
                                 *****************
                                 * O   R   C   A *
                                 *****************

                                            #,                                       
                                            ###                                      
                                            ####                                     
                                            #####                                    
                                            ######                                   
                                           ########,                                 
                                     ,,################,,,,,                         
                               ,,#################################,,                 
                          ,,##########################################,,             
                       ,#########################################, ''#####,          
                    ,#############################################,,   '####,        
                  ,##################################################,,,,####,       
                ,###########''''           ''''###############################       
              ,#####''   ,,,,##########,,,,          '''####'''          '####       
            ,##' ,,,,###########################,,,                        '##       
           ' ,,###''''                  '''############,,,                           
         ,,##''                                '''############,,,,        ,,,,,,###''
      ,#''                                            '''#######################'''  
     '                                                          ''''####''''         
             ,#######,   #######,   ,#######,      ##                                
            ,#'     '#,  ##    ##  ,#'     '#,    #''#        ######   ,####,        
            ##       ##  ##   ,#'  ##            #'  '#       #        #'  '#        
            ##       ##  #######   ##           ,######,      #####,   #    #        
            '#,     ,#'  ##    ##  '#,     ,#' ,#      #,         ##   #,  ,#        
             '#######'   ##     ##  '#######'  #'      '#     #####' # '####'        



                  #######################################################
                  #                        -***-                        #
                  #          Department of theory and spectroscopy      #
                  #    Directorship and core code : Frank Neese         #
                  #        Max Planck Institute fuer Kohlenforschung    #
                  #                Kaiser Wilhelm Platz 1               #
                  #                 D-45470 Muelheim/Ruhr               #
                  #                      Germany                        #
                  #                                                     #
                  #                  All rights reserved                #
                  #                        -***-                        #
                  #######################################################


                         Program Version 5.0.4 -  RELEASE  -


 With contributions from (in alphabetic order):
   Daniel Aravena         : Magnetic Suceptibility
   Michael Atanasov       : Ab Initio Ligand Field Theory (pilot matlab implementation)
   Alexander A. Auer      : GIAO ZORA, VPT2 properties, NMR spectrum
   Ute Becker             : Parallelization
   Giovanni Bistoni       : ED, misc. LED, open-shell LED, HFLD
   Martin Brehm           : Molecular dynamics
   Dmytro Bykov           : SCF Hessian
   Vijay G. Chilkuri      : MRCI spin determinant printing, contributions to CSF-ICE
   Dipayan Datta          : RHF DLPNO-CCSD density
   Achintya Kumar Dutta   : EOM-CC, STEOM-CC
   Dmitry Ganyushin       : Spin-Orbit,Spin-Spin,Magnetic field MRCI
   Miquel Garcia          : C-PCM and meta-GGA Hessian, CC/C-PCM, Gaussian charge scheme
   Yang Guo               : DLPNO-NEVPT2, F12-NEVPT2, CIM, IAO-localization
   Andreas Hansen         : Spin unrestricted coupled pair/coupled cluster methods
   Benjamin Helmich-Paris : MC-RPA, TRAH-SCF, COSX integrals
   Lee Huntington         : MR-EOM, pCC
   Robert Izsak           : Overlap fitted RIJCOSX, COSX-SCS-MP3, EOM
   Marcus Kettner         : VPT2
   Christian Kollmar      : KDIIS, OOCD, Brueckner-CCSD(T), CCSD density, CASPT2, CASPT2-K
   Simone Kossmann        : Meta GGA functionals, TD-DFT gradient, OOMP2, MP2 Hessian
   Martin Krupicka        : Initial AUTO-CI
   Lucas Lang             : DCDCAS
   Marvin Lechner         : AUTO-CI (C++ implementation), FIC-MRCC
   Dagmar Lenk            : GEPOL surface, SMD
   Dimitrios Liakos       : Extrapolation schemes; Compound Job, initial MDCI parallelization
   Dimitrios Manganas     : Further ROCIS development; embedding schemes
   Dimitrios Pantazis     : SARC Basis sets
   Anastasios Papadopoulos: AUTO-CI, single reference methods and gradients
   Taras Petrenko         : DFT Hessian,TD-DFT gradient, ASA, ECA, R-Raman, ABS, FL, XAS/XES, NRVS
   Peter Pinski           : DLPNO-MP2, DLPNO-MP2 Gradient
   Christoph Reimann      : Effective Core Potentials
   Marius Retegan         : Local ZFS, SOC
   Christoph Riplinger    : Optimizer, TS searches, QM/MM, DLPNO-CCSD(T), (RO)-DLPNO pert. Triples
   Tobias Risthaus        : Range-separated hybrids, TD-DFT gradient, RPA, STAB
   Michael Roemelt        : Original ROCIS implementation
   Masaaki Saitow         : Open-shell DLPNO-CCSD energy and density
   Barbara Sandhoefer     : DKH picture change effects
   Avijit Sen             : IP-ROCIS
   Kantharuban Sivalingam : CASSCF convergence, NEVPT2, FIC-MRCI
   Bernardo de Souza      : ESD, SOC TD-DFT
   Georgi Stoychev        : AutoAux, RI-MP2 NMR, DLPNO-MP2 response
   Willem Van den Heuvel  : Paramagnetic NMR
   Boris Wezisla          : Elementary symmetry handling
   Frank Wennmohs         : Technical directorship


 We gratefully acknowledge several colleagues who have allowed us to
 interface, adapt or use parts of their codes:
   Stefan Grimme, W. Hujo, H. Kruse, P. Pracht,  : VdW corrections, initial TS optimization,
                  C. Bannwarth, S. Ehlert          DFT functionals, gCP, sTDA/sTD-DF
   Ed Valeev, F. Pavosevic, A. Kumar             : LibInt (2-el integral package), F12 methods
   Garnet Chan, S. Sharma, J. Yang, R. Olivares  : DMRG
   Ulf Ekstrom                                   : XCFun DFT Library
   Mihaly Kallay                                 : mrcc  (arbitrary order and MRCC methods)
   Jiri Pittner, Ondrej Demel                    : Mk-CCSD
   Frank Weinhold                                : gennbo (NPA and NBO analysis)
   Christopher J. Cramer and Donald G. Truhlar   : smd solvation model
   Lars Goerigk                                  : TD-DFT with DH, B97 family of functionals
   V. Asgeirsson, H. Jonsson                     : NEB implementation
   FAccTs GmbH                                   : IRC, NEB, NEB-TS, DLPNO-Multilevel, CI-OPT
                                                   MM, QMMM, 2- and 3-layer-ONIOM, Crystal-QMMM,
                                                   LR-CPCM, SF, NACMEs, symmetry and pop. for TD-DFT,
                                                   nearIR, NL-DFT gradient (VV10), updates on ESD,
                                                   ML-optimized integration grids
   S Lehtola, MJT Oliveira, MAL Marques          : LibXC Library
   Liviu Ungur et al                             : ANISO software


 Your calculation uses the libint2 library for the computation of 2-el integrals
 For citations please refer to: http://libint.valeyev.net

 Your ORCA version has been built with support for libXC version: 5.1.0
 For citations please refer to: https://tddft.org/programs/libxc/

 This ORCA versions uses:
   CBLAS   interface :  Fast vector & matrix operations
   LAPACKE interface :  Fast linear algebra routines
   SCALAPACK package :  Parallel linear algebra routines
   Shared memory     :  Shared parallel matrices
   BLAS/LAPACK       :  OpenBLAS 0.3.15  USE64BITINT DYNAMIC_ARCH NO_AFFINITY Sandybridge SINGLE_THREADED
        Core in use  :  Sandybridge
   Copyright (c) 2011-2014, The OpenBLAS Project


================================================================================

----- Orbital basis set information -----
Your calculation utilizes the basis: cc-pVDZ 
       H, B-Ne : Obtained from the ccRepo (grant-hill.group.shef.ac.uk/ccrepo) Feb. 2017
                 T. H. Dunning, Jr., J. Chem. Phys. 90, 1007 (1989)
            He : Obtained from the ccRepo (grant-hill.group.shef.ac.uk/ccrepo) Feb. 2017
                 D. E. Woon, T. H. Dunning, Jr., J. Chem. Phys. 100, 2975 (1994)
  Li-Be, Na-Mg : Obtained from the ccRepo (grant-hill.group.shef.ac.uk/ccrepo) Feb. 2017
                 B. P. Prascher, D. E. Woon, K. A. Peterson, T. H. Dunning, Jr., A. K. Wilson, Theor. Chem. Acc. 128, 69 (2011)
         Al-Ar : Obtained from the ccRepo (grant-hill.group.shef.ac.uk/ccrepo) Feb. 2017
                 D. E. Woon, T. H. Dunning, Jr., J. Chem. Phys. 98, 1358 (1993)
            Ca : Obtained from the Peterson Research Group Website (tyr0.chem.wsu.edu/~kipeters) Feb. 2017
                 J. Koput, K. A. Peterson, J. Phys. Chem. 106, 9595 (2002)
         Sc-Zn : Obtained from the ccRepo (grant-hill.group.shef.ac.uk/ccrepo) Feb. 2017
                 N. B. Balabanov, K. A. Peterson, J. Chem. Phys. 123, 064107 (2005)
                 N. B. Balabanov, K. A. Peterson, J. Chem. Phys. 125, 074110 (2006)
         Ga-Kr : Obtained from the ccRepo (grant-hill.group.shef.ac.uk/ccrepo) Feb. 2017
                 A. K. Wilson, D. E. Woon, K. A. Peterson, T. H. Dunning, Jr., J. Chem. Phys. 110, 7667 (1999)

================================================================================
                                        WARNINGS
                       Please study these warnings very carefully!
================================================================================


WARNING: No MP2 level density has been requested!
         To caclulate MP2 level properties use
         %mp2 Density relaxed end
         or
         %mp2 Density unrelaxed end

WARNING: Post HF methods need fully converged wavefunctions
  ===> : Setting SCFConvForced true
         You can overwrite this default with %scf ConvForced false 


INFO   : the flag for use of the SHARK integral package has been found!

================================================================================
                                       INPUT FILE
================================================================================
NAME = /scratch/allen/tmpyp4_amber_gaff2/2.Mdgx/conf11/conf11/Conf14.orca
|  1> ! PAL2
|  2> ! mp2 cc-pvdz TightSCF  NoKeepInts
|  3> 
|  4> %scf
|  5>   MaxCore 2000
|  6> end
|  7> %mp2
|  8>   MaxCore 2000
|  9> end
| 10> * xyz 0 1
| 11>    C       -3.05500         6.48500        -0.14600
| 12>    C        1.47400         4.04100         0.05700
| 13>    C       -2.80200         4.09300         0.04900
| 14>    C       -4.17800         4.02100         0.31500
| 15>    C       -4.94100         5.17100         0.34000
| 16>    C       -5.23000         7.59100         0.11000
| 17>    C        0.13200         4.30700         0.06100
| 18>    C       -0.56900         3.05600         0.04700
| 19>    C        1.64900         2.61800         0.02300
| 20>    C       -2.25100         5.36200        -0.18600
| 21>    N       -4.37800         6.38100         0.11500
| 22>    N        0.38800         2.06700         0.02500
| 23>    N       -2.01000         0.39500        -0.07500
| 24>    N       -0.38800        -2.07400        -0.02700
| 25>    N        2.01000        -0.40100         0.06500
| 26>    C       -1.96000         2.86100         0.02400
| 27>    C       -2.62300         1.61500        -0.01800
| 28>    C       -5.57300        -4.32900         1.06600
| 29>    C       -4.07300         1.47100         0.05600
| 30>    C       -4.10600        -2.75600        -0.02600
| 31>    C       -4.99500        -2.75700        -1.11100
| 32>    C       -6.13200        -3.54200        -1.07600
| 33>    C       -7.65100        -5.11300         0.04000
| 34>    C       -4.32400         0.14100         0.03700
| 35>    C       -3.02500        -0.52000        -0.04800
| 36>    C       -4.42200        -3.56600         1.07500
| 37>    N       -6.40700        -4.31300         0.00100
| 38>    C       -2.86700        -1.92200        -0.04000
| 39>    C       -1.65000        -2.62400        -0.02700
| 40>    C        3.56800        -6.14200        -1.04000
| 41>    C       -1.47600        -4.04900        -0.03400
| 42>    C        2.80300        -4.09900        -0.00800
| 43>    C        3.65700        -4.38400         1.06900
| 44>    C        4.42700        -5.53000         1.05900
| 45>    C        5.24500        -7.58800         0.01400
| 46>    C       -0.13400        -4.31500        -0.02200
| 47>    C        0.56800        -3.06400        -0.02700
| 48>    C        2.77500        -5.01200        -1.07400
| 49>    N        4.37600        -6.39100         0.01700
| 50>    C        1.95900        -2.86900        -0.00900
| 51>    C        2.62100        -1.62200         0.00900
| 52>    C        5.54300         4.33900        -1.13000
| 53>    C        4.07000        -1.47900        -0.09400
| 54>    C        4.10400         2.75100        -0.02100
| 55>    C        5.02700         2.72900         1.03600
| 56>    C        6.16600         3.50900         0.97800
| 57>    C        7.61900         5.15300        -0.11500
| 58>    C        4.32100        -0.14800        -0.09200
| 59>    C        3.02500         0.51400         0.01500
| 60>    C        4.38700         3.58200        -1.11500
| 61>    C        2.86600         1.91600         0.01300
| 62>    N        6.41300         4.29600        -0.09500
| 63>    H       -2.67100         7.48500        -0.30900
| 64>    H        2.27400         4.76600         0.08100
| 65>    H       -4.66300         3.06900         0.49500
| 66>    H       -6.00600         5.16400         0.53200
| 67>    H       -5.65700         7.72100        -0.88700
| 68>    H       -6.02400         7.46300         0.84500
| 69>    H       -4.61600         8.45300         0.36900
| 70>    H       -0.33200         5.28200         0.06900
| 71>    H       -1.19300         5.48500        -0.38400
| 72>    H        0.18200         1.07200         0.00500
| 73>    H       -0.18300        -1.08000        -0.02100
| 74>    H       -5.86400        -4.96200         1.89500
| 75>    H       -4.79400         2.27200         0.13900
| 76>    H       -4.80000        -2.16000        -1.99400
| 77>    H       -6.84100        -3.58200        -1.89300
| 78>    H       -8.42800        -4.53600         0.54600
| 79>    H       -7.95600        -5.33700        -0.98100
| 80>    H       -7.45600        -6.03700         0.58400
| 81>    H       -5.28700        -0.34400         0.10000
| 82>    H       -3.78000        -3.60100         1.94700
| 83>    H        3.58700        -6.86800        -1.84300
| 84>    H       -2.27600        -4.77400        -0.05000
| 85>    H        3.71400        -3.72400         1.92600
| 86>    H        5.09200        -5.79500         1.87100
| 87>    H        6.20500        -7.32900        -0.43900
| 88>    H        5.39300        -7.91700         1.04200
| 89>    H        4.75900        -8.37300        -0.56400
| 90>    H        0.32900        -5.29000        -0.00800
| 91>    H        2.14600        -4.84200        -1.94000
| 92>    H        5.80800         4.98600        -1.95600
| 93>    H        4.78800        -2.28100        -0.18500
| 94>    H        4.86000         2.11400         1.91200
| 95>    H        6.90100         3.53100         1.77200
| 96>    H        7.38300         6.10900         0.35600
| 97>    H        8.41400         4.65200         0.43500
| 98>    H        7.92100         5.31000        -1.15000
| 99>    H        5.28300         0.33600        -0.17900
|100>    H        3.72000         3.63200        -1.96700
|101> *
|102> 
|103>                          ****END OF INPUT****
================================================================================

                       ****************************
                       * Single Point Calculation *
                       ****************************

---------------------------------
CARTESIAN COORDINATES (ANGSTROEM)
---------------------------------
  C     -3.055000    6.485000   -0.146000
  C      1.474000    4.041000    0.057000
  C     -2.802000    4.093000    0.049000
  C     -4.178000    4.021000    0.315000
  C     -4.941000    5.171000    0.340000
  C     -5.230000    7.591000    0.110000
  C      0.132000    4.307000    0.061000
  C     -0.569000    3.056000    0.047000
  C      1.649000    2.618000    0.023000
  C     -2.251000    5.362000   -0.186000
  N     -4.378000    6.381000    0.115000
  N      0.388000    2.067000    0.025000
  N     -2.010000    0.395000   -0.075000
  N     -0.388000   -2.074000   -0.027000
  N      2.010000   -0.401000    0.065000
  C     -1.960000    2.861000    0.024000
  C     -2.623000    1.615000   -0.018000
  C     -5.573000   -4.329000    1.066000
  C     -4.073000    1.471000    0.056000
  C     -4.106000   -2.756000   -0.026000
  C     -4.995000   -2.757000   -1.111000
  C     -6.132000   -3.542000   -1.076000
  C     -7.651000   -5.113000    0.040000
  C     -4.324000    0.141000    0.037000
  C     -3.025000   -0.520000   -0.048000
  C     -4.422000   -3.566000    1.075000
  N     -6.407000   -4.313000    0.001000
  C     -2.867000   -1.922000   -0.040000
  C     -1.650000   -2.624000   -0.027000
  C      3.568000   -6.142000   -1.040000
  C     -1.476000   -4.049000   -0.034000
  C      2.803000   -4.099000   -0.008000
  C      3.657000   -4.384000    1.069000
  C      4.427000   -5.530000    1.059000
  C      5.245000   -7.588000    0.014000
  C     -0.134000   -4.315000   -0.022000
  C      0.568000   -3.064000   -0.027000
  C      2.775000   -5.012000   -1.074000
  N      4.376000   -6.391000    0.017000
  C      1.959000   -2.869000   -0.009000
  C      2.621000   -1.622000    0.009000
  C      5.543000    4.339000   -1.130000
  C      4.070000   -1.479000   -0.094000
  C      4.104000    2.751000   -0.021000
  C      5.027000    2.729000    1.036000
  C      6.166000    3.509000    0.978000
  C      7.619000    5.153000   -0.115000
  C      4.321000   -0.148000   -0.092000
  C      3.025000    0.514000    0.015000
  C      4.387000    3.582000   -1.115000
  C      2.866000    1.916000    0.013000
  N      6.413000    4.296000   -0.095000
  H     -2.671000    7.485000   -0.309000
  H      2.274000    4.766000    0.081000
  H     -4.663000    3.069000    0.495000
  H     -6.006000    5.164000    0.532000
  H     -5.657000    7.721000   -0.887000
  H     -6.024000    7.463000    0.845000
  H     -4.616000    8.453000    0.369000
  H     -0.332000    5.282000    0.069000
  H     -1.193000    5.485000   -0.384000
  H      0.182000    1.072000    0.005000
  H     -0.183000   -1.080000   -0.021000
  H     -5.864000   -4.962000    1.895000
  H     -4.794000    2.272000    0.139000
  H     -4.800000   -2.160000   -1.994000
  H     -6.841000   -3.582000   -1.893000
  H     -8.428000   -4.536000    0.546000
  H     -7.956000   -5.337000   -0.981000
  H     -7.456000   -6.037000    0.584000
  H     -5.287000   -0.344000    0.100000
  H     -3.780000   -3.601000    1.947000
  H      3.587000   -6.868000   -1.843000
  H     -2.276000   -4.774000   -0.050000
  H      3.714000   -3.724000    1.926000
  H      5.092000   -5.795000    1.871000
  H      6.205000   -7.329000   -0.439000
  H      5.393000   -7.917000    1.042000
  H      4.759000   -8.373000   -0.564000
  H      0.329000   -5.290000   -0.008000
  H      2.146000   -4.842000   -1.940000
  H      5.808000    4.986000   -1.956000
  H      4.788000   -2.281000   -0.185000
  H      4.860000    2.114000    1.912000
  H      6.901000    3.531000    1.772000
  H      7.383000    6.109000    0.356000
  H      8.414000    4.652000    0.435000
  H      7.921000    5.310000   -1.150000
  H      5.283000    0.336000   -0.179000
  H      3.720000    3.632000   -1.967000

----------------------------
CARTESIAN COORDINATES (A.U.)
----------------------------
  NO LB      ZA    FRAG     MASS         X           Y           Z
   0 C     6.0000    0    12.011   -5.773113   12.254874   -0.275900
   1 C     6.0000    0    12.011    2.785456    7.636383    0.107714
   2 C     6.0000    0    12.011   -5.295013    7.734649    0.092597
   3 C     6.0000    0    12.011   -7.895276    7.598589    0.595264
   4 C     6.0000    0    12.011   -9.337137    9.771774    0.642507
   5 C     6.0000    0    12.011   -9.883268   14.344911    0.207870
   6 C     6.0000    0    12.011    0.249444    8.139050    0.115273
   7 C     6.0000    0    12.011   -1.075254    5.775003    0.088817
   8 C     6.0000    0    12.011    3.116158    4.947303    0.043464
   9 C     6.0000    0    12.011   -4.253774   10.132712   -0.351489
  10 N     7.0000    0    14.007   -8.273221   12.058342    0.217319
  11 N     7.0000    0    14.007    0.733214    3.906064    0.047243
  12 N     7.0000    0    14.007   -3.798350    0.746442   -0.141729
  13 N     7.0000    0    14.007   -0.733214   -3.919292   -0.051023
  14 N     7.0000    0    14.007    3.798350   -0.757780    0.122832
  15 C     6.0000    0    12.011   -3.703863    5.406506    0.045353
  16 C     6.0000    0    12.011   -4.956752    3.051908   -0.034015
  17 C     6.0000    0    12.011  -10.531444   -8.180624    2.014448
  18 C     6.0000    0    12.011   -7.696855    2.779787    0.105825
  19 C     6.0000    0    12.011   -7.759216   -5.208085   -0.049133
  20 C     6.0000    0    12.011   -9.439182   -5.209975   -2.099486
  21 C     6.0000    0    12.011  -11.587801   -6.693410   -2.033345
  22 C     6.0000    0    12.011  -14.458295   -9.662170    0.075589
  23 C     6.0000    0    12.011   -8.171176    0.266451    0.069920
  24 C     6.0000    0    12.011   -5.716422   -0.982658   -0.090707
  25 C     6.0000    0    12.011   -8.356369   -6.738763    2.031456
  26 N     7.0000    0    14.007  -12.107475   -8.150389    0.001890
  27 C     6.0000    0    12.011   -5.417845   -3.632054   -0.075589
  28 C     6.0000    0    12.011   -3.118048   -4.958641   -0.051023
  29 C     6.0000    0    12.011    6.742543  -11.606698   -1.965315
  30 C     6.0000    0    12.011   -2.789236   -7.651501   -0.064251
  31 C     6.0000    0    12.011    5.296902   -7.745987   -0.015118
  32 C     6.0000    0    12.011    6.910728   -8.284559    2.020117
  33 C     6.0000    0    12.011    8.365818  -10.450186    2.001220
  34 C     6.0000    0    12.011    9.911614  -14.339242    0.026456
  35 C     6.0000    0    12.011   -0.253223   -8.154168   -0.041574
  36 C     6.0000    0    12.011    1.073364   -5.790121   -0.051023
  37 C     6.0000    0    12.011    5.243990   -9.471307   -2.029566
  38 N     7.0000    0    14.007    8.269442  -12.077240    0.032125
  39 C     6.0000    0    12.011    3.701973   -5.421624   -0.017008
  40 C     6.0000    0    12.011    4.952972   -3.065136    0.017008
  41 C     6.0000    0    12.011   10.474752    8.199522   -2.135391
  42 C     6.0000    0    12.011    7.691185   -2.794905   -0.177634
  43 C     6.0000    0    12.011    7.755436    5.198637   -0.039684
  44 C     6.0000    0    12.011    9.499653    5.157063    1.957756
  45 C     6.0000    0    12.011   11.652051    6.631049    1.848152
  46 C     6.0000    0    12.011   14.397823    9.737759   -0.217319
  47 C     6.0000    0    12.011    8.165507   -0.279679   -0.173855
  48 C     6.0000    0    12.011    5.716422    0.971319    0.028346
  49 C     6.0000    0    12.011    8.290229    6.768999   -2.107045
  50 C     6.0000    0    12.011    5.415955    3.620715    0.024566
  51 N     7.0000    0    14.007   12.118814    8.118263   -0.179524
  52 H     1.0000    0     1.008   -5.047459   14.144600   -0.583925
  53 H     1.0000    0     1.008    4.297237    9.006435    0.153068
  54 H     1.0000    0     1.008   -8.811793    5.799570    0.935414
  55 H     1.0000    0     1.008  -11.349695    9.758546    1.005334
  56 H     1.0000    0     1.008  -10.690181   14.590575   -1.676187
  57 H     1.0000    0     1.008  -11.383710   14.103026    1.596819
  58 H     1.0000    0     1.008   -8.722976   15.973855    0.697309
  59 H     1.0000    0     1.008   -0.627389    9.981533    0.130391
  60 H     1.0000    0     1.008   -2.254443   10.365148   -0.725655
  61 H     1.0000    0     1.008    0.343930    2.025786    0.009449
  62 H     1.0000    0     1.008   -0.345820   -2.040904   -0.039684
  63 H     1.0000    0     1.008  -11.081354   -9.376821    3.581031
  64 H     1.0000    0     1.008   -9.059347    4.293458    0.262672
  65 H     1.0000    0     1.008   -9.070685   -4.081808   -3.768114
  66 H     1.0000    0     1.008  -12.927616   -6.768999   -3.577252
  67 H     1.0000    0     1.008  -15.926612   -8.571798    1.031790
  68 H     1.0000    0     1.008  -15.034661  -10.085468   -1.853821
  69 H     1.0000    0     1.008  -14.089798  -11.408277    1.103600
  70 H     1.0000    0     1.008   -9.990982   -0.650066    0.188973
  71 H     1.0000    0     1.008   -7.143165   -6.804904    3.679297
  72 H     1.0000    0     1.008    6.778448  -12.978639   -3.482765
  73 H     1.0000    0     1.008   -4.301017   -9.021553   -0.094486
  74 H     1.0000    0     1.008    7.018443   -7.037340    3.639613
  75 H     1.0000    0     1.008    9.622485  -10.950963    3.535678
  76 H     1.0000    0     1.008   11.725751  -13.849803   -0.829590
  77 H     1.0000    0     1.008   10.191293  -14.960962    1.969095
  78 H     1.0000    0     1.008    8.993207  -15.822677   -1.065806
  79 H     1.0000    0     1.008    0.621720   -9.996651   -0.015118
  80 H     1.0000    0     1.008    4.055352   -9.150054   -3.666069
  81 H     1.0000    0     1.008   10.975529    9.422175   -3.696304
  82 H     1.0000    0     1.008    9.048009   -4.310465   -0.349599
  83 H     1.0000    0     1.008    9.184069    3.994881    3.613156
  84 H     1.0000    0     1.008   13.041000    6.672623    3.348595
  85 H     1.0000    0     1.008   13.951848   11.544337    0.672743
  86 H     1.0000    0     1.008   15.900156    8.791006    0.822031
  87 H     1.0000    0     1.008   14.968521   10.034446   -2.173185
  88 H     1.0000    0     1.008    9.983423    0.634948   -0.338261
  89 H     1.0000    0     1.008    7.029781    6.863485   -3.717091

--------------------------------
INTERNAL COORDINATES (ANGSTROEM)
--------------------------------
 C      0   0   0     0.000000000000     0.00000000     0.00000000
 C      1   0   0     5.150357851645     0.00000000     0.00000000
 C      1   2   0     2.413233929813    55.54699262     0.00000000
 C      3   1   2     1.403323198697    87.90104369   169.29537595
 C      4   3   1     1.380323875038   120.17837217     0.08601084
 C      5   4   3     2.448023896942   152.51796227     1.74495189
 C      2   1   3     1.368114030335    17.30817139   356.23133318
 C      7   2   1     1.434084376876   108.05010202   171.20134757
 C      2   1   3     1.434123425651   125.25519605     7.33590819
 C      1   2   3     1.381718133340    26.33444664   347.59085001
 N      1   2   3     1.352503604431   144.69421397    18.87399271
 N      9   2   1     1.376127174356   106.58526707   355.77902090
 N     12   9   2     2.925062050624   168.53581413   171.12065651
 N     13  12   9     2.954513327098    91.55032014    11.12112580
 N     14  13  12     2.925371258490    88.43092389   359.84326247
 C      8   7   2     1.404790019896   127.24786865   181.11170171
 C     13  12   9     1.366535034311    81.72106996   188.00453233
 C     14  13  12     5.758810554272    80.56209567   166.76250791
 C     17  13  12     1.459010623676   111.08861209   183.82872609
 C     18  14  13     2.412235892279    27.27532823    36.33507194
 C     20  18  14     1.402692767501    87.95206320   148.94598259
 C     21  20  18     1.382106725257   120.14573887   359.70382047
 C     18  14  13     2.446510985056   144.15733107    82.80075377
 C     19  17  13     1.353610726908   106.29293361   359.75308708
 C     13  12   9     1.366813447402   172.21332906    33.46711076
 C     18  14  13     1.380960173213    15.08449437   309.23336894
 N     22  21  20     1.352773077792   120.73759875     0.27865223
 C     25  13  17     1.410897586645   125.60330303   182.37774668
 C     14  13  12     1.376642291955    80.24689249   177.85461986
 C     14  13  12     5.764089607215   164.51507311   312.20821879
 C     29  14  13     1.435600919476   106.58649366   178.76395472
 C     30  14  13     2.413316804732    27.10625047    82.12560436
 C     32  30  14     1.403734305344    87.90059683   149.76154742
 C     33  32  30     1.380694028378   120.14881443   359.74174632
 C     34  33  32     2.448777858443   152.49203239     2.45173620
 C     31  29  14     1.368160809262   108.16950133     0.70383075
 C     14  13  12     1.376239804685   169.26375223   353.09862627
 C     30  14  13     1.380907310430    14.68948582   353.70041132
 N     34  33  32     1.352658863128   120.85575621     0.19603406
 C     37  14  29     1.404717053360   126.01551127   180.90772073
 C     15  14  13     1.366491126938    81.61824056   183.09049352
 C      2   1   3     4.249062720177   142.92060827   153.01469917
 C     41  15  14     1.459677704153   111.05201287   175.08990246
 C     42   2   1     2.412953791518    41.78584867   183.81311046
 C     44  42   2     1.403446472082    87.95153797   233.97558675
 C     45  44  42     1.381696421071   120.11137308     0.19721020
 C     42   2   1     2.450019795838   135.97209175    94.12795956
 C     43  41  15     1.354461516618   106.26758155     0.30894352
 C     15  14  13     1.367461151185   171.87382904   332.35056460
 C     42   2   1     1.381886391857    32.59078432   232.66838965
 C      9   2   1     1.404988612053   126.98745415   176.78335843
 N     42   2   1     1.352765315936   113.57249190   121.86454875
 H      1   2   3     1.083524342135    97.59887278   184.35946619
 H      2   1   3     1.079907866440   109.49527509   184.62356910
 H      4   3   1     1.083480041348   121.03001674   179.53388083
 H      5   4   3     1.082191295474   122.80707767   179.45408405
 H      6   5   4     1.092354338116   104.45064102    99.96257880
 H      6   5   4     1.089515947566    84.63577542   209.44189052
 H      6   5   4     1.089550824882   133.88659884   322.27610168
 H      7   2   1     1.079807853278   126.66122480   351.43976135
 H     60   7   2     0.993850592393   123.59506951   146.59322288
 H     12   9   2     1.016297692608   125.29023241   180.00180175
 H     14  13  12     1.014936943854    44.97226959   359.42596618
 H     18  14  13     1.082871645210   128.03556573   234.20482432
 H     55   4   3     0.882669813690   142.44801566   304.16316578
 H     21  20  18     1.083569563987   121.05669627   180.67006309
 H     22  21  20     1.082483256222   122.73097286   180.59748951
 H     23  18  14     1.092105306278   103.92715769   234.93429879
 H     23  18  14     1.088871893291   134.19244188    12.25587044
 H     23  18  14     1.089833473518    84.85857450   125.45241208
 H     24  19  17     1.080075460327   127.28078426   178.44613241
 H     26  18  14     1.083408048706   118.76995697   244.94906660
 H     30  14  13     1.082703098730   127.99711412   279.66882698
 H     31  29  14     1.079759695488   125.22293469   180.92530585
 H     33  32  30     1.083188810873   121.01964473   180.74284758
 H     34  33  32     1.082494341787   122.70821597   180.59516895
 H     35  34  33     1.092652735319   105.73575241    97.19771933
 H     35  34  33     1.089462711615    84.05943581   206.43036958
 H     35  34  33     1.089268102902   133.08365142   318.50306270
 H     36  31  29     1.079439669458   126.61599965   178.98859863
 H     38  30  73     1.083742127999   118.77264435   359.90091293
 H     42   2   1     1.082178358682   119.31790784   338.49607921
 H     43  41  15     1.080281907652   126.36969097   182.06329380
 H     45  44  42     1.083277434455   121.10105945   179.58025624
 H     46  45  44     1.082194529648   122.72144639   179.46906377
 H     47  42   2     1.091546151109   106.65128841   315.16475048
 H     47  42   2     1.088818625851   132.46019523    94.52397119
 H     47  42   2     1.089531091801    83.63838232   206.04504406
 H     48  43  41     1.080402239909   127.23657387   181.62955349
 H     50  42   2     1.083186502870   118.77001737    94.71359229

---------------------------
INTERNAL COORDINATES (A.U.)
---------------------------
 C      0   0   0     0.000000000000     0.00000000     0.00000000
 C      1   0   0     9.732765831300     0.00000000     0.00000000
 C      1   2   0     4.560351224433    55.54699262     0.00000000
 C      3   1   2     2.651896522915    87.90104369   169.29537595
 C      4   3   1     2.608434099935   120.17837217     0.08601084
 C      5   4   3     4.626094734515   152.51796227     1.74495189
 C      2   1   3     2.585360837309    17.30817139   356.23133318
 C      7   2   1     2.710026725231   108.05010202   171.20134757
 C      2   1   3     2.710100516721   125.25519605     7.33590819
 C      1   2   3     2.611068866285    26.33444664   347.59085001
 N      1   2   3     2.555861407517   144.69421397    18.87399271
 N      9   2   1     2.600503484979   106.58526707   355.77902090
 N     12   9   2     5.527566200405   168.53581413   171.12065651
 N     13  12   9     5.583221047236    91.55032014    11.12112580
 N     14  13  12     5.528150518591    88.43092389   359.84326247
 C      8   7   2     2.654668413270   127.24786865   181.11170171
 C     13  12   9     2.582376967257    81.72106996   188.00453233
 C     14  13  12    10.882574804710    80.56209567   166.76250791
 C     17  13  12     2.757130505230   111.08861209   183.82872609
 C     18  14  13     4.558465206823    27.27532823    36.33507194
 C     20  18  14     2.650705180609    87.95206320   148.94598259
 C     21  20  18     2.611803198586   120.14573887   359.70382047
 C     18  14  13     4.623235745386   144.15733107    82.80075377
 C     19  17  13     2.557953565794   106.29293361   359.75308708
 C     13  12   9     2.582903091751   172.21332906    33.46711076
 C     18  14  13     2.609636529225    15.08449437   309.23336894
 N     22  21  20     2.556370638369   120.73759875     0.27865223
 C     25  13  17     2.666210041769   125.60330303   182.37774668
 C     14  13  12     2.601476916169    80.24689249   177.85461986
 C     14  13  12    10.892550769017   164.51507311   312.20821879
 C     29  14  13     2.712892575415   106.58649366   178.76395472
 C     30  14  13     4.560507835333    27.10625047    82.12560436
 C     32  30  14     2.652673401891    87.90059683   149.76154742
 C     33  32  30     2.609133588376   120.14881443   359.74174632
 C     34  33  32     4.627519515267   152.49203239     2.45173620
 C     31  29  14     2.585449236669   108.16950133     0.70383075
 C     14  13  12     2.600716325456   169.26375223   353.09862627
 C     30  14  13     2.609536633043    14.68948582   353.70041132
 N     34  33  32     2.556154803934   120.85575621     0.19603406
 C     37  14  29     2.654530526499   126.01551127   180.90772073
 C     15  14  13     2.582293994346    81.61824056   183.09049352
 C      2   1   3     8.029564866989   142.92060827   153.01469917
 C     41  15  14     2.758391104639   111.05201287   175.08990246
 C     42   2   1     4.559821839776    41.78584867   183.81311046
 C     44  42   2     2.652129475853    87.95153797   233.97558675
 C     45  44  42     2.611027836043   120.11137308     0.19721020
 C     42   2   1     4.629866436820   135.97209175    94.12795956
 C     43  41  15     2.559561325344   106.26758155     0.30894352
 C     15  14  13     2.584127074516   171.87382904   332.35056460
 C     42   2   1     2.611386828803    32.59078432   232.66838965
 C      9   2   1     2.655043698059   126.98745415   176.78335843
 N     42   2   1     2.556355970587   113.57249190   121.86454875
 H      1   2   3     2.047564266073    97.59887278   184.35946619
 H      2   1   3     2.040730117440   109.49527509   184.62356910
 H      4   3   1     2.047480549718   121.03001674   179.53388083
 H      5   4   3     2.045045172960   122.80707767   179.45408405
 H      6   5   4     2.064250540239   104.45064102    99.96257880
 H      6   5   4     2.058886759439    84.63577542   209.44189052
 H      6   5   4     2.058952668014   133.88659884   322.27610168
 H      7   2   1     2.040541119952   126.66122480   351.43976135
 H     60   7   2     1.878105437658   123.59506951   146.59322288
 H     12   9   2     1.920524309565   125.29023241   180.00180175
 H     14  13  12     1.917952867083    44.97226959   359.42596618
 H     18  14  13     2.046330847636   128.03556573   234.20482432
 H     55   4   3     1.668004214554   142.44801566   304.16316578
 H     21  20  18     2.047649722989   121.05669627   180.67006309
 H     22  21  20     2.045596898814   122.73097286   180.59748951
 H     23  18  14     2.063779938267   103.92715769   234.93429879
 H     23  18  14     2.057669673245   134.19244188    12.25587044
 H     23  18  14     2.059486796529    84.85857450   125.45241208
 H     24  19  17     2.041046823986   127.28078426   178.44613241
 H     26  18  14     2.047344503340   118.76995697   244.94906660
 H     30  14  13     2.046012340948   127.99711412   279.66882698
 H     31  29  14     2.040450114918   125.22293469   180.92530585
 H     33  32  30     2.046930203877   121.01964473   180.74284758
 H     34  33  32     2.045617847496   122.70821597   180.59516895
 H     35  34  33     2.064814429233   105.73575241    97.19771933
 H     35  34  33     2.058786158072    84.05943581   206.43036958
 H     35  34  33     2.058418400901   133.08365142   318.50306270
 H     36  31  29     2.039845353366   126.61599965   178.98859863
 H     38  30  73     2.047975821711   118.77264435   359.90091293
 H     42   2   1     2.045020725966   119.31790784   338.49607921
 H     43  41  15     2.041436952892   126.36969097   182.06329380
 H     45  44  42     2.047097678177   121.10105945   179.58025624
 H     46  45  44     2.045051284662   122.72144639   179.46906377
 H     47  42   2     2.062723288131   106.65128841   315.16475048
 H     47  42   2     2.057569012371   132.46019523    94.52397119
 H     47  42   2     2.058915377895    83.63838232   206.04504406
 H     48  43  41     2.041664347903   127.23657387   181.62955349
 H     50  42   2     2.046925842384   118.77001737    94.71359229

---------------------
BASIS SET INFORMATION
---------------------
There are 3 groups of distinct atoms

 Group   1 Type C   : 17s4p1d contracted to 3s2p1d pattern {881/31/1}
 Group   2 Type N   : 17s4p1d contracted to 3s2p1d pattern {881/31/1}
 Group   3 Type H   : 4s1p contracted to 2s1p pattern {31/1}

Atom   0C    basis set group =>   1
Atom   1N    basis set group =>   2
Atom   2C    basis set group =>   1
Atom   3N    basis set group =>   2
Atom   4C    basis set group =>   1
Atom   5N    basis set group =>   2
Atom   6C    basis set group =>   1
Atom   7N    basis set group =>   2
Atom   8C    basis set group =>   1
Atom   9N    basis set group =>   2
Atom  10C    basis set group =>   1
Atom  11N    basis set group =>   2
Atom  12C    basis set group =>   1
Atom  13N    basis set group =>   2
Atom  14C    basis set group =>   1
Atom  15N    basis set group =>   2
Atom  16C    basis set group =>   1
Atom  17C    basis set group =>   1
Atom  18C    basis set group =>   1
Atom  19C    basis set group =>   1
Atom  20C    basis set group =>   1
Atom  21C    basis set group =>   1
Atom  22C    basis set group =>   1
Atom  23C    basis set group =>   1
Atom  24C    basis set group =>   1
Atom  25C    basis set group =>   1
Atom  26C    basis set group =>   1
Atom  27C    basis set group =>   1
Atom  28C    basis set group =>   1
Atom  29C    basis set group =>   1
Atom  30C    basis set group =>   1
Atom  31C    basis set group =>   1
Atom  32C    basis set group =>   1
Atom  33C    basis set group =>   1
Atom  34C    basis set group =>   1
Atom  35C    basis set group =>   1
Atom  36C    basis set group =>   1
Atom  37C    basis set group =>   1
Atom  38C    basis set group =>   1
Atom  39C    basis set group =>   1
Atom  40C    basis set group =>   1
Atom  41C    basis set group =>   1
Atom  42C    basis set group =>   1
Atom  43C    basis set group =>   1
Atom  44C    basis set group =>   1
Atom  45C    basis set group =>   1
Atom  46C    basis set group =>   1
Atom  47C    basis set group =>   1
Atom  48C    basis set group =>   1
Atom  49C    basis set group =>   1
Atom  50C    basis set group =>   1
Atom  51C    basis set group =>   1
Atom  52H    basis set group =>   3
Atom  53H    basis set group =>   3
Atom  54H    basis set group =>   3
Atom  55H    basis set group =>   3
Atom  56H    basis set group =>   3
Atom  57H    basis set group =>   3
Atom  58H    basis set group =>   3
Atom  59H    basis set group =>   3
Atom  60H    basis set group =>   3
Atom  61H    basis set group =>   3
Atom  62H    basis set group =>   3
Atom  63H    basis set group =>   3
Atom  64H    basis set group =>   3
Atom  65H    basis set group =>   3
Atom  66H    basis set group =>   3
Atom  67H    basis set group =>   3
Atom  68H    basis set group =>   3
Atom  69H    basis set group =>   3
Atom  70H    basis set group =>   3
Atom  71H    basis set group =>   3
Atom  72H    basis set group =>   3
Atom  73H    basis set group =>   3
Atom  74H    basis set group =>   3
Atom  75H    basis set group =>   3
Atom  76H    basis set group =>   3
Atom  77H    basis set group =>   3
Atom  78H    basis set group =>   3
Atom  79H    basis set group =>   3
Atom  80H    basis set group =>   3
Atom  81H    basis set group =>   3
Atom  82H    basis set group =>   3
Atom  83H    basis set group =>   3
Atom  84H    basis set group =>   3
Atom  85H    basis set group =>   3
Atom  86H    basis set group =>   3
Atom  87H    basis set group =>   3
Atom  88H    basis set group =>   3
Atom  89H    basis set group =>   3


           ************************************************************
           *        Program running with 16 parallel MPI-processes    *
           *              working on a common directory               *
           ************************************************************
------------------------------------------------------------------------------
                           ORCA GTO INTEGRAL CALCULATION
------------------------------------------------------------------------------
------------------------------------------------------------------------------
                   ___                                                        
                  /   \      - P O W E R E D   B Y -                         
                 /     \                                                     
                 |  |  |   _    _      __       _____    __    __             
                 |  |  |  | |  | |    /  \     |  _  \  |  |  /  |          
                  \  \/   | |  | |   /    \    | | | |  |  | /  /          
                 / \  \   | |__| |  /  /\  \   | |_| |  |  |/  /          
                |  |  |   |  __  | /  /__\  \  |    /   |      \           
                |  |  |   | |  | | |   __   |  |    \   |  |\   \          
                \     /   | |  | | |  |  |  |  | |\  \  |  | \   \       
                 \___/    |_|  |_| |__|  |__|  |_| \__\ |__|  \__/        
                                                                              
                      - O R C A' S   B I G   F R I E N D -                    
                                      &                                       
                       - I N T E G R A L  F E E D E R -                       
                                                                              
 v1 FN, 2020, v2 2021                                                         
------------------------------------------------------------------------------


Reading SHARK input file /scratch/allen/tmpyp4_amber_gaff2/conf1/conf1/Conf14.orca.SHARKINP.tmp ... ok
----------------------
SHARK INTEGRAL PACKAGE
----------------------

Number of atoms                             ...     90
Number of basis functions                   ...   1230
Number of shells                            ...    738
Maximum angular momentum                    ...      2
Integral batch strategy                     ... SHARK/LIBINT Hybrid
RI-J (if used) integral strategy            ... SPLIT-RIJ (Revised 2003 algorithm where possible)
Printlevel                                  ...      1
Contraction scheme used                     ... PARTIAL GENERAL contraction
Coulomb Range Separation                    ... NOT USED
Exchange Range Separation                   ... NOT USED
Finite Nucleus Model                        ... NOT USED
Auxiliary Coulomb fitting basis             ... NOT available
Auxiliary J/K fitting basis                 ... NOT available
Auxiliary Correlation fitting basis         ... NOT available
Auxiliary 'external' fitting basis          ... NOT available
Integral threshold                          ...     2.500000e-11
Primitive cut-off                           ...     2.500000e-12
Primitive pair pre-selection threshold      ...     2.500000e-12

Calculating pre-screening integrals         ... done (  0.1 sec) Dimension = 738
Calculating pre-screening integrals (ORCA)  ... done (  0.3 sec) Dimension = 426
Organizing shell pair data                  ... done (  0.5 sec)
Shell pair information
Total number of shell pairs                 ...    272691
Shell pairs after pre-screening             ...     71731
Total number of primitive shell pairs       ...    422091
Primitive shell pairs kept                  ...     92628
          la=0 lb=0:  29445 shell pairs
          la=1 lb=0:  26033 shell pairs
          la=1 lb=1:   4703 shell pairs
          la=2 lb=0:   7891 shell pairs
          la=2 lb=1:   3130 shell pairs
          la=2 lb=2:    529 shell pairs

Calculating one electron integrals          ... done (  0.2 sec)
Calculating Nuclear repulsion               ... done (  0.0 sec) ENN=   6235.018935228963 Eh

SHARK setup successfully completed in   1.9 seconds

Maximum memory used throughout the entire GTOINT-calculation: 99.1 MB


           ************************************************************
           *        Program running with 16 parallel MPI-processes    *
           *              working on a common directory               *
           ************************************************************
-------------------------------------------------------------------------------
                                 ORCA SCF
-------------------------------------------------------------------------------

------------
SCF SETTINGS
------------
Hamiltonian:
 Ab initio Hamiltonian  Method          .... Hartree-Fock(GTOs)


General Settings:
 Integral files         IntName         .... /scratch/allen/tmpyp4_amber_gaff2/conf1/conf1/Conf14.orca
 Hartree-Fock type      HFTyp           .... RHF
 Total Charge           Charge          ....    0
 Multiplicity           Mult            ....    1
 Number of Electrons    NEL             ....  358
 Basis Dimension        Dim             ....  918
 Nuclear Repulsion      ENuc            ....   6235.0189352290 Eh

Convergence Acceleration:
 DIIS                   CNVDIIS         .... on
   Start iteration      DIISMaxIt       ....    12
   Startup error        DIISStart       ....  0.200000
   # of expansion vecs  DIISMaxEq       ....     5
   Bias factor          DIISBfac        ....   1.050
   Max. coefficient     DIISMaxC        ....  10.000
 Trust-Rad. Augm. Hess. CNVTRAH         .... auto
   Auto Start mean grad. ratio tolernc. ....  1.125000
   Auto Start start iteration           ....    20
   Auto Start num. interpolation iter.  ....    10
   Max. Number of Micro iterations      ....    16
   Max. Number of Macro iterations      .... Maxiter - #DIIS iter
   Number of Davidson start vectors     ....     2
   Converg. threshold I  (grad. norm)   ....   1.000e-05
   Converg. threshold II (energy diff.) ....   1.000e-08
   Grad. Scal. Fac. for Micro threshold ....   0.100
   Minimum threshold for Micro iter.    ....   0.010
   NR start threshold (gradient norm)   ....   0.001
   Initial trust radius                 ....   0.400
   Minimum AH scaling param. (alpha)    ....   1.000
   Maximum AH scaling param. (alpha)    .... 1000.000
   Orbital update algorithm             .... Taylor
   White noise on init. David. guess    .... on
   Maximum white noise                  ....   0.010
   Quad. conv. algorithm                .... NR
 SOSCF                  CNVSOSCF        .... on
   Start iteration      SOSCFMaxIt      ....   150
   Startup grad/error   SOSCFStart      ....  0.003300
 Level Shifting         CNVShift        .... on
   Level shift para.    LevelShift      ....    0.2500
   Turn off err/grad.   ShiftErr        ....    0.0010
 Zerner damping         CNVZerner       .... off
 Static damping         CNVDamp         .... on
   Fraction old density DampFac         ....    0.7000
   Max. Damping (<1)    DampMax         ....    0.9800
   Min. Damping (>=0)   DampMin         ....    0.0000
   Turn off err/grad.   DampErr         ....    0.1000
 Fernandez-Rico         CNVRico         .... off

SCF Procedure:
 Maximum # iterations   MaxIter         ....   125
 SCF integral mode      SCFMode         .... Direct
   Integral package                     .... SHARK and LIBINT hybrid scheme
 Reset frequency        DirectResetFreq ....    20
 Integral Threshold     Thresh          ....  2.500e-11 Eh
 Primitive CutOff       TCut            ....  2.500e-12 Eh

Convergence Tolerance:
 Convergence Check Mode ConvCheckMode   .... Total+1el-Energy
 Convergence forced     ConvForced      .... 1
 Energy Change          TolE            ....  1.000e-08 Eh
 1-El. energy change                    ....  1.000e-05 Eh
 Orbital Gradient       TolG            ....  1.000e-05
 Orbital Rotation angle TolX            ....  1.000e-05
 DIIS Error             TolErr          ....  5.000e-07


Diagonalization of the overlap matrix:
Smallest eigenvalue                        ... 1.824e-04
Time for diagonalization                   ...    0.617 sec
Threshold for overlap eigenvalues          ... 1.000e-08
Number of eigenvalues below threshold      ... 0
Time for construction of square roots      ...    0.189 sec
Total time needed                          ...    0.815 sec

Time for model grid setup =    1.006 sec

------------------------------
INITIAL GUESS: MODEL POTENTIAL
------------------------------
Loading Hartree-Fock densities                     ... done
Calculating cut-offs                               ... done
Initializing the effective Hamiltonian             ... done
Setting up the integral package (SHARK)            ... done
Starting the Coulomb interaction                   ... done (   1.1 sec)
Reading the grid                                   ... done
Mapping shells                                     ... done
Starting the XC term evaluation                    ... done (   0.2 sec)
Transforming the Hamiltonian                       ... done (   0.2 sec)
Diagonalizing the Hamiltonian                      ... done (   0.3 sec)
Back transforming the eigenvectors                 ... done (   0.1 sec)
Now organizing SCF variables                       ... done
                      ------------------
                      INITIAL GUESS DONE (   2.9 sec)
                      ------------------
--------------
SCF ITERATIONS
--------------
ITER       Energy         Delta-E        Max-DP      RMS-DP      [F,P]     Damp
               ***  Starting incremental Fock matrix formation  ***
  0  -2121.5967939184   0.000000000000 0.07433848  0.00128399  0.2312331 0.7000
  1  -2122.2386723227  -0.641878404283 0.07105683  0.00105071  0.1434880 0.7000
                               ***Turning on DIIS***
  2  -2122.6392238532  -0.400551530569 0.13208240  0.00237299  0.0803049 0.0000
  3  -2118.0276189931   4.611604860100 0.09660290  0.00073382  0.0434584 0.0000
  4  -2123.3371502258  -5.309531232668 0.02742867  0.00023824  0.0092701 0.0000
  5  -2123.4675264256  -0.130376199835 0.01268439  0.00013637  0.0048327 0.0000
  6  -2123.4515363285   0.015990097174 0.00774937  0.00008708  0.0022435 0.0000
  7  -2123.5436247399  -0.092088411466 0.00468691  0.00006814  0.0016176 0.0000
  8  -2123.5500835752  -0.006458835263 0.00366274  0.00006492  0.0015157 0.0000
  9  -2123.5235680626   0.026515512625 0.00265416  0.00004624  0.0012192 0.0000
 10  -2123.5310674205  -0.007499357976 0.00532807  0.00009669  0.0009548 0.0000
                      *** Initiating the SOSCF procedure ***
                           *** Shutting down DIIS ***
                      *** Re-Reading the Fockian *** 
                      *** Removing any level shift *** 
ITER      Energy       Delta-E        Grad      Rot      Max-DP    RMS-DP
 11  -2123.42563487   0.1054325514  0.000181  0.000181  0.000246  0.000005
               *** Restarting incremental Fock matrix formation ***
 12  -2123.49128620  -0.0656513307  0.000923  0.006177  0.001478  0.000035
 13  -2123.49139819  -0.0001119919  0.001136  0.030682  0.006687  0.000138
 14  -2123.49158451  -0.0001863188  0.000385  0.001782  0.000596  0.000013
 15  -2123.49159982  -0.0000153110  0.000194  0.002458  0.000519  0.000014
 16  -2123.49160701  -0.0000071870  0.000135  0.002152  0.000475  0.000009
 17  -2123.49160980  -0.0000027965  0.000136  0.002163  0.000311  0.000008
 18  -2123.49161120  -0.0000013911  0.000062  0.001300  0.000230  0.000005
 19  -2123.49161205  -0.0000008539  0.000047  0.001824  0.000276  0.000006
 20  -2123.49161261  -0.0000005555  0.000029  0.001099  0.000168  0.000004
 21  -2123.49161287  -0.0000002671  0.000028  0.001313  0.000197  0.000004
 22  -2123.49161313  -0.0000002591  0.000027  0.001067  0.000163  0.000003
 23  -2123.49161328  -0.0000001524  0.000016  0.000412  0.000071  0.000002
 24  -2123.49161334  -0.0000000571  0.000009  0.000267  0.000057  0.000001
 25  -2123.49161337  -0.0000000315  0.000009  0.000141  0.000044  0.000001
 26  -2123.49161338  -0.0000000115  0.000006  0.000086  0.000030  0.000000
 27  -2123.49161338   0.0000000024  0.000003  0.000063  0.000021  0.000000
                  ***Gradient check signals convergence***
              ***Rediagonalizing the Fockian in SOSCF/NRSCF***

               *****************************************************
               *                     SUCCESS                       *
               *           SCF CONVERGED AFTER  28 CYCLES          *
               *****************************************************


----------------
TOTAL SCF ENERGY
----------------

Total Energy       :        -2123.49161338 Eh          -57783.14444 eV

Components:
Nuclear Repulsion  :         6235.01893523 Eh          169663.49075 eV
Electronic Energy  :        -8358.51054861 Eh         -227446.63519 eV
One Electron Energy:       -15310.52116182 Eh         -416620.46139 eV
Two Electron Energy:         6952.01061321 Eh          189173.82620 eV

Virial components:
Potential Energy   :        -4246.03627371 Eh         -115540.52097 eV
Kinetic Energy     :         2122.54466033 Eh           57757.37654 eV
Virial Ratio       :            2.00044614


---------------
SCF CONVERGENCE
---------------

  Last Energy change         ...    1.6626e-09  Tolerance :   1.0000e-08
  Last MAX-Density change    ...    9.5973e-06  Tolerance :   1.0000e-07
  Last RMS-Density change    ...    1.7814e-07  Tolerance :   5.0000e-09
  Last Orbital Gradient      ...    1.9397e-06  Tolerance :   1.0000e-05
  Last Orbital Rotation      ...    3.5232e-05  Tolerance :   1.0000e-05

             **** THE GBW FILE WAS UPDATED (/scratch/allen/tmpyp4_amber_gaff2/conf1/conf1/Conf14.orca.gbw) ****
             **** DENSITY /scratch/allen/tmpyp4_amber_gaff2/conf1/conf1/Conf14.orca.scfp WAS UPDATED ****
             **** ENERGY FILE WAS UPDATED (/scratch/allen/tmpyp4_amber_gaff2/conf1/conf1/Conf14.orca.en.tmp) ****
             **** THE GBW FILE WAS UPDATED (/scratch/allen/tmpyp4_amber_gaff2/conf1/conf1/Conf14.orca.gbw) ****
             **** DENSITY /scratch/allen/tmpyp4_amber_gaff2/conf1/conf1/Conf14.orca.scfp WAS UPDATED ****
----------------
ORBITAL ENERGIES
----------------

  NO   OCC          E(Eh)            E(eV) 
   0   2.0000     -15.679815      -426.6695 
   1   2.0000     -15.632988      -425.3952 
   2   2.0000     -15.632788      -425.3898 
   3   2.0000     -15.588268      -424.1783 
   4   2.0000     -15.524851      -422.4527 
   5   2.0000     -15.515605      -422.2011 
   6   2.0000     -15.454110      -420.5277 
   7   2.0000     -15.439410      -420.1277 
   8   2.0000     -11.329300      -308.2859 
   9   2.0000     -11.328534      -308.2651 
  10   2.0000     -11.327948      -308.2491 
  11   2.0000     -11.299083      -307.4637 
  12   2.0000     -11.298589      -307.4502 
  13   2.0000     -11.292202      -307.2764 
  14   2.0000     -11.292026      -307.2717 
  15   2.0000     -11.287505      -307.1486 
  16   2.0000     -11.285513      -307.0944 
  17   2.0000     -11.282057      -307.0004 
  18   2.0000     -11.269909      -306.6698 
  19   2.0000     -11.263380      -306.4922 
  20   2.0000     -11.262377      -306.4649 
  21   2.0000     -11.252142      -306.1863 
  22   2.0000     -11.248476      -306.0866 
  23   2.0000     -11.237707      -305.7936 
  24   2.0000     -11.236603      -305.7635 
  25   2.0000     -11.230593      -305.6000 
  26   2.0000     -11.230436      -305.5957 
  27   2.0000     -11.230245      -305.5905 
  28   2.0000     -11.229480      -305.5697 
  29   2.0000     -11.210630      -305.0567 
  30   2.0000     -11.209333      -305.0215 
  31   2.0000     -11.194231      -304.6105 
  32   2.0000     -11.191593      -304.5387 
  33   2.0000     -11.191497      -304.5361 
  34   2.0000     -11.188914      -304.4658 
  35   2.0000     -11.188367      -304.4510 
  36   2.0000     -11.187489      -304.4270 
  37   2.0000     -11.176441      -304.1264 
  38   2.0000     -11.174423      -304.0715 
  39   2.0000     -11.171435      -303.9902 
  40   2.0000     -11.171410      -303.9895 
  41   2.0000     -11.170733      -303.9711 
  42   2.0000     -11.167835      -303.8922 
  43   2.0000     -11.162324      -303.7423 
  44   2.0000     -11.160401      -303.6900 
  45   2.0000     -11.157248      -303.6041 
  46   2.0000     -11.156221      -303.5762 
  47   2.0000     -11.152072      -303.4633 
  48   2.0000     -11.147257      -303.3323 
  49   2.0000     -11.135358      -303.0085 
  50   2.0000     -11.129094      -302.8380 
  51   2.0000     -11.116966      -302.5080 
  52   2.0000      -1.360401       -37.0184 
  53   2.0000      -1.320607       -35.9355 
  54   2.0000      -1.320202       -35.9245 
  55   2.0000      -1.280608       -34.8471 
  56   2.0000      -1.225894       -33.3583 
  57   2.0000      -1.210406       -32.9368 
  58   2.0000      -1.173827       -31.9415 
  59   2.0000      -1.150465       -31.3057 
  60   2.0000      -1.143689       -31.1214 
  61   2.0000      -1.110421       -30.2161 
  62   2.0000      -1.108775       -30.1713 
  63   2.0000      -1.082091       -29.4452 
  64   2.0000      -1.077430       -29.3184 
  65   2.0000      -1.045205       -28.4415 
  66   2.0000      -1.044435       -28.4205 
  67   2.0000      -1.041137       -28.3308 
  68   2.0000      -1.014948       -27.6181 
  69   2.0000      -1.013690       -27.5839 
  70   2.0000      -1.009050       -27.4577 
  71   2.0000      -0.993281       -27.0286 
  72   2.0000      -0.985705       -26.8224 
  73   2.0000      -0.981656       -26.7122 
  74   2.0000      -0.973229       -26.4829 
  75   2.0000      -0.962435       -26.1892 
  76   2.0000      -0.954940       -25.9852 
  77   2.0000      -0.946036       -25.7429 
  78   2.0000      -0.938333       -25.5333 
  79   2.0000      -0.917036       -24.9538 
  80   2.0000      -0.910546       -24.7772 
  81   2.0000      -0.897201       -24.4141 
  82   2.0000      -0.876825       -23.8596 
  83   2.0000      -0.871663       -23.7192 
  84   2.0000      -0.871065       -23.7029 
  85   2.0000      -0.860343       -23.4111 
  86   2.0000      -0.844363       -22.9763 
  87   2.0000      -0.836087       -22.7511 
  88   2.0000      -0.828158       -22.5353 
  89   2.0000      -0.796583       -21.6761 
  90   2.0000      -0.789165       -21.4743 
  91   2.0000      -0.766622       -20.8609 
  92   2.0000      -0.752945       -20.4887 
  93   2.0000      -0.733559       -19.9612 
  94   2.0000      -0.727193       -19.7879 
  95   2.0000      -0.724534       -19.7156 
  96   2.0000      -0.719529       -19.5794 
  97   2.0000      -0.717257       -19.5176 
  98   2.0000      -0.713548       -19.4166 
  99   2.0000      -0.698458       -19.0060 
 100   2.0000      -0.698046       -18.9948 
 101   2.0000      -0.693859       -18.8809 
 102   2.0000      -0.685300       -18.6480 
 103   2.0000      -0.684362       -18.6224 
 104   2.0000      -0.678680       -18.4678 
 105   2.0000      -0.674578       -18.3562 
 106   2.0000      -0.672707       -18.3053 
 107   2.0000      -0.660654       -17.9773 
 108   2.0000      -0.658120       -17.9084 
 109   2.0000      -0.652839       -17.7647 
 110   2.0000      -0.652013       -17.7422 
 111   2.0000      -0.646178       -17.5834 
 112   2.0000      -0.645540       -17.5660 
 113   2.0000      -0.637618       -17.3505 
 114   2.0000      -0.636105       -17.3093 
 115   2.0000      -0.628537       -17.1034 
 116   2.0000      -0.623177       -16.9575 
 117   2.0000      -0.620947       -16.8968 
 118   2.0000      -0.612945       -16.6791 
 119   2.0000      -0.612349       -16.6629 
 120   2.0000      -0.611492       -16.6395 
 121   2.0000      -0.611294       -16.6342 
 122   2.0000      -0.601518       -16.3681 
 123   2.0000      -0.588436       -16.0122 
 124   2.0000      -0.581463       -15.8224 
 125   2.0000      -0.580831       -15.8052 
 126   2.0000      -0.580066       -15.7844 
 127   2.0000      -0.571235       -15.5441 
 128   2.0000      -0.567581       -15.4447 
 129   2.0000      -0.560025       -15.2391 
 130   2.0000      -0.554465       -15.0878 
 131   2.0000      -0.547930       -14.9099 
 132   2.0000      -0.542690       -14.7674 
 133   2.0000      -0.540660       -14.7121 
 134   2.0000      -0.538245       -14.6464 
 135   2.0000      -0.536476       -14.5982 
 136   2.0000      -0.531342       -14.4586 
 137   2.0000      -0.518895       -14.1198 
 138   2.0000      -0.516457       -14.0535 
 139   2.0000      -0.514906       -14.0113 
 140   2.0000      -0.512400       -13.9431 
 141   2.0000      -0.510164       -13.8823 
 142   2.0000      -0.507909       -13.8209 
 143   2.0000      -0.505177       -13.7466 
 144   2.0000      -0.502594       -13.6763 
 145   2.0000      -0.495791       -13.4912 
 146   2.0000      -0.488581       -13.2950 
 147   2.0000      -0.481388       -13.0992 
 148   2.0000      -0.477535       -12.9944 
 149   2.0000      -0.467774       -12.7288 
 150   2.0000      -0.466399       -12.6914 
 151   2.0000      -0.456868       -12.4320 
 152   2.0000      -0.451845       -12.2953 
 153   2.0000      -0.444802       -12.1037 
 154   2.0000      -0.438345       -11.9280 
 155   2.0000      -0.427477       -11.6322 
 156   2.0000      -0.409731       -11.1494 
 157   2.0000      -0.398838       -10.8529 
 158   2.0000      -0.390391       -10.6231 
 159   2.0000      -0.387677       -10.5492 
 160   2.0000      -0.378751       -10.3063 
 161   2.0000      -0.374612       -10.1937 
 162   2.0000      -0.366790        -9.9809 
 163   2.0000      -0.356763        -9.7080 
 164   2.0000      -0.355733        -9.6800 
 165   2.0000      -0.342165        -9.3108 
 166   2.0000      -0.337654        -9.1880 
 167   2.0000      -0.324450        -8.8287 
 168   2.0000      -0.321338        -8.7440 
 169   2.0000      -0.305058        -8.3010 
 170   2.0000      -0.299500        -8.1498 
 171   2.0000      -0.285599        -7.7716 
 172   2.0000      -0.278780        -7.5860 
 173   2.0000      -0.263912        -7.1814 
 174   2.0000      -0.241592        -6.5741 
 175   2.0000      -0.189955        -5.1690 
 176   2.0000      -0.181074        -4.9273 
 177   2.0000      -0.079458        -2.1622 
 178   2.0000      -0.059722        -1.6251 
 179   0.0000       0.028347         0.7714 
 180   0.0000       0.065329         1.7777 
 181   0.0000       0.090186         2.4541 
 182   0.0000       0.106241         2.8910 
 183   0.0000       0.115552         3.1443 
 184   0.0000       0.137160         3.7323 
 185   0.0000       0.139296         3.7904 
 186   0.0000       0.140931         3.8349 
 187   0.0000       0.164045         4.4639 
 188   0.0000       0.165084         4.4922 
 189   0.0000       0.165704         4.5090 
 190   0.0000       0.173468         4.7203 
 191   0.0000       0.180357         4.9078 
 192   0.0000       0.183759         5.0003 
 193   0.0000       0.189195         5.1483 
 194   0.0000       0.204804         5.5730 
 195   0.0000       0.205632         5.5955 
 196   0.0000       0.208020         5.6605 
 197   0.0000       0.208891         5.6842 
 198   0.0000       0.216529         5.8921 
 199   0.0000       0.228635         6.2215 
 200   0.0000       0.233747         6.3606 
 201   0.0000       0.233794         6.3619 
 202   0.0000       0.238933         6.5017 
 203   0.0000       0.239770         6.5245 
 204   0.0000       0.246245         6.7007 
 205   0.0000       0.255052         6.9403 
 206   0.0000       0.256232         6.9724 
 207   0.0000       0.257695         7.0122 
 208   0.0000       0.258899         7.0450 
 209   0.0000       0.260470         7.0878 
 210   0.0000       0.263434         7.1684 
 211   0.0000       0.265633         7.2282 
 212   0.0000       0.268650         7.3103 
 213   0.0000       0.271452         7.3866 
 214   0.0000       0.272886         7.4256 
 215   0.0000       0.275790         7.5046 
 216   0.0000       0.277861         7.5610 
 217   0.0000       0.282884         7.6977 
 218   0.0000       0.286694         7.8013 
 219   0.0000       0.287436         7.8215 
 220   0.0000       0.289927         7.8893 
 221   0.0000       0.292093         7.9483 
 222   0.0000       0.294929         8.0254 
 223   0.0000       0.296637         8.0719 
 224   0.0000       0.297170         8.0864 
 225   0.0000       0.300989         8.1903 
 226   0.0000       0.305065         8.3012 
 227   0.0000       0.308520         8.3953 
 228   0.0000       0.313735         8.5372 
 229   0.0000       0.324488         8.8298 
 230   0.0000       0.328046         8.9266 
 231   0.0000       0.334965         9.1149 
 232   0.0000       0.343353         9.3431 
 233   0.0000       0.356096         9.6899 
 234   0.0000       0.366043         9.9605 
 235   0.0000       0.368599        10.0301 
 236   0.0000       0.376754        10.2520 
 237   0.0000       0.390380        10.6228 
 238   0.0000       0.395705        10.7677 
 239   0.0000       0.400525        10.8988 
 240   0.0000       0.407175        11.0798 
 241   0.0000       0.411167        11.1884 
 242   0.0000       0.414666        11.2836 
 243   0.0000       0.418192        11.3796 
 244   0.0000       0.429649        11.6913 
 245   0.0000       0.434637        11.8271 
 246   0.0000       0.438418        11.9300 
 247   0.0000       0.440546        11.9879 
 248   0.0000       0.442391        12.0381 
 249   0.0000       0.448878        12.2146 
 250   0.0000       0.454068        12.3558 
 251   0.0000       0.465677        12.6717 
 252   0.0000       0.467019        12.7082 
 253   0.0000       0.468106        12.7378 
 254   0.0000       0.470885        12.8134 
 255   0.0000       0.474803        12.9200 
 256   0.0000       0.475894        12.9497 
 257   0.0000       0.480118        13.0647 
 258   0.0000       0.489400        13.3173 
 259   0.0000       0.495793        13.4912 
 260   0.0000       0.503692        13.7062 
 261   0.0000       0.504871        13.7382 
 262   0.0000       0.506506        13.7827 
 263   0.0000       0.512223        13.9383 
 264   0.0000       0.516607        14.0576 
 265   0.0000       0.521536        14.1917 
 266   0.0000       0.522655        14.2222 
 267   0.0000       0.528174        14.3723 
 268   0.0000       0.533650        14.5214 
 269   0.0000       0.535891        14.5823 
 270   0.0000       0.544513        14.8170 
 271   0.0000       0.550737        14.9863 
 272   0.0000       0.558268        15.1912 
 273   0.0000       0.559670        15.2294 
 274   0.0000       0.563863        15.3435 
 275   0.0000       0.566166        15.4062 
 276   0.0000       0.572397        15.5757 
 277   0.0000       0.574042        15.6205 
 278   0.0000       0.580113        15.7857 
 279   0.0000       0.586303        15.9541 
 280   0.0000       0.592640        16.1265 
 281   0.0000       0.593391        16.1470 
 282   0.0000       0.594253        16.1704 
 283   0.0000       0.595926        16.2160 
 284   0.0000       0.598462        16.2850 
 285   0.0000       0.600244        16.3335 
 286   0.0000       0.604412        16.4469 
 287   0.0000       0.610838        16.6218 
 288   0.0000       0.616800        16.7840 
 289   0.0000       0.624231        16.9862 
 290   0.0000       0.625036        17.0081 
 291   0.0000       0.628224        17.0948 
 292   0.0000       0.633079        17.2269 
 293   0.0000       0.635733        17.2992 
 294   0.0000       0.645511        17.5653 
 295   0.0000       0.648310        17.6414 
 296   0.0000       0.652493        17.7552 
 297   0.0000       0.655264        17.8306 
 298   0.0000       0.661368        17.9967 
 299   0.0000       0.665988        18.1224 
 300   0.0000       0.670899        18.2561 
 301   0.0000       0.675253        18.3746 
 302   0.0000       0.677560        18.4374 
 303   0.0000       0.680082        18.5060 
 304   0.0000       0.681299        18.5391 
 305   0.0000       0.685366        18.6498 
 306   0.0000       0.688666        18.7396 
 307   0.0000       0.692305        18.8386 
 308   0.0000       0.695167        18.9165 
 309   0.0000       0.700203        19.0535 
 310   0.0000       0.702558        19.1176 
 311   0.0000       0.704073        19.1588 
 312   0.0000       0.706257        19.2182 
 313   0.0000       0.711283        19.3550 
 314   0.0000       0.712085        19.3768 
 315   0.0000       0.716021        19.4839 
 316   0.0000       0.716966        19.5096 
 317   0.0000       0.718188        19.5429 
 318   0.0000       0.724648        19.7187 
 319   0.0000       0.727706        19.8019 
 320   0.0000       0.728122        19.8132 
 321   0.0000       0.729440        19.8491 
 322   0.0000       0.731229        19.8977 
 323   0.0000       0.732674        19.9371 
 324   0.0000       0.735683        20.0189 
 325   0.0000       0.740672        20.1547 
 326   0.0000       0.743743        20.2383 
 327   0.0000       0.748931        20.3795 
 328   0.0000       0.753044        20.4914 
 329   0.0000       0.756301        20.5800 
 330   0.0000       0.757751        20.6195 
 331   0.0000       0.763464        20.7749 
 332   0.0000       0.766914        20.8688 
 333   0.0000       0.767088        20.8735 
 334   0.0000       0.769037        20.9265 
 335   0.0000       0.774455        21.0740 
 336   0.0000       0.779403        21.2086 
 337   0.0000       0.781234        21.2585 
 338   0.0000       0.784984        21.3605 
 339   0.0000       0.790033        21.4979 
 340   0.0000       0.792655        21.5692 
 341   0.0000       0.794862        21.6293 
 342   0.0000       0.800622        21.7860 
 343   0.0000       0.803073        21.8527 
 344   0.0000       0.806167        21.9369 
 345   0.0000       0.808206        21.9924 
 346   0.0000       0.811306        22.0768 
 347   0.0000       0.814840        22.1729 
 348   0.0000       0.815612        22.1939 
 349   0.0000       0.817182        22.2367 
 350   0.0000       0.819711        22.3055 
 351   0.0000       0.822929        22.3930 
 352   0.0000       0.825024        22.4500 
 353   0.0000       0.826990        22.5035 
 354   0.0000       0.830892        22.6097 
 355   0.0000       0.832630        22.6570 
 356   0.0000       0.834438        22.7062 
 357   0.0000       0.836835        22.7714 
 358   0.0000       0.838581        22.8190 
 359   0.0000       0.840034        22.8585 
 360   0.0000       0.842448        22.9242 
 361   0.0000       0.843567        22.9546 
 362   0.0000       0.845781        23.0149 
 363   0.0000       0.849288        23.1103 
 364   0.0000       0.852009        23.1843 
 365   0.0000       0.856135        23.2966 
 366   0.0000       0.858975        23.3739 
 367   0.0000       0.861975        23.4555 
 368   0.0000       0.867803        23.6141 
 369   0.0000       0.870241        23.6805 
 370   0.0000       0.871361        23.7109 
 371   0.0000       0.873274        23.7630 
 372   0.0000       0.876065        23.8389 
 373   0.0000       0.877978        23.8910 
 374   0.0000       0.879000        23.9188 
 375   0.0000       0.882569        24.0159 
 376   0.0000       0.889577        24.2066 
 377   0.0000       0.890142        24.2220 
 378   0.0000       0.892777        24.2937 
 379   0.0000       0.894275        24.3345 
 380   0.0000       0.897216        24.4145 
 381   0.0000       0.898721        24.4554 
 382   0.0000       0.900641        24.5077 
 383   0.0000       0.901062        24.5191 
 384   0.0000       0.905964        24.6525 
 385   0.0000       0.906965        24.6798 
 386   0.0000       0.908409        24.7191 
 387   0.0000       0.911414        24.8008 
 388   0.0000       0.915510        24.9123 
 389   0.0000       0.918500        24.9936 
 390   0.0000       0.920645        25.0520 
 391   0.0000       0.925839        25.1934 
 392   0.0000       0.926965        25.2240 
 393   0.0000       0.928436        25.2640 
 394   0.0000       0.929875        25.3032 
 395   0.0000       0.932351        25.3706 
 396   0.0000       0.935321        25.4514 
 397   0.0000       0.941185        25.6109 
 398   0.0000       0.943930        25.6856 
 399   0.0000       0.944198        25.6929 
 400   0.0000       0.948703        25.8155 
 401   0.0000       0.953935        25.9579 
 402   0.0000       0.955108        25.9898 
 403   0.0000       0.958218        26.0744 
 404   0.0000       0.960791        26.1445 
 405   0.0000       0.962532        26.1918 
 406   0.0000       0.971501        26.4359 
 407   0.0000       0.978550        26.6277 
 408   0.0000       0.982323        26.7304 
 409   0.0000       0.987050        26.8590 
 410   0.0000       0.988385        26.8953 
 411   0.0000       0.993486        27.0341 
 412   0.0000       0.999094        27.1867 
 413   0.0000       1.003592        27.3091 
 414   0.0000       1.008025        27.4297 
 415   0.0000       1.010802        27.5053 
 416   0.0000       1.017036        27.6749 
 417   0.0000       1.019107        27.7313 
 418   0.0000       1.028076        27.9754 
 419   0.0000       1.032283        28.0898 
 420   0.0000       1.034935        28.1620 
 421   0.0000       1.038219        28.2514 
 422   0.0000       1.043843        28.4044 
 423   0.0000       1.052991        28.6534 
 424   0.0000       1.062170        28.9031 
 425   0.0000       1.067741        29.0547 
 426   0.0000       1.071726        29.1632 
 427   0.0000       1.076341        29.2887 
 428   0.0000       1.078505        29.3476 
 429   0.0000       1.087532        29.5933 
 430   0.0000       1.089076        29.6353 
 431   0.0000       1.092331        29.7238 
 432   0.0000       1.099374        29.9155 
 433   0.0000       1.102366        29.9969 
 434   0.0000       1.106953        30.1217 
 435   0.0000       1.110993        30.2317 
 436   0.0000       1.113756        30.3068 
 437   0.0000       1.116773        30.3889 
 438   0.0000       1.120880        30.5007 
 439   0.0000       1.121706        30.5232 
 440   0.0000       1.124730        30.6054 
 441   0.0000       1.129020        30.7222 
 442   0.0000       1.132505        30.8170 
 443   0.0000       1.134720        30.8773 
 444   0.0000       1.137596        30.9555 
 445   0.0000       1.140252        31.0278 
 446   0.0000       1.147126        31.2149 
 447   0.0000       1.150290        31.3010 
 448   0.0000       1.153482        31.3878 
 449   0.0000       1.158392        31.5214 
 450   0.0000       1.159528        31.5524 
 451   0.0000       1.162779        31.6408 
 452   0.0000       1.165938        31.7268 
 453   0.0000       1.168566        31.7983 
 454   0.0000       1.169362        31.8200 
 455   0.0000       1.172225        31.8979 
 456   0.0000       1.183115        32.1942 
 457   0.0000       1.184560        32.2335 
 458   0.0000       1.193699        32.4822 
 459   0.0000       1.197348        32.5815 
 460   0.0000       1.202751        32.7285 
 461   0.0000       1.203017        32.7358 
 462   0.0000       1.207583        32.8600 
 463   0.0000       1.208717        32.8909 
 464   0.0000       1.210744        32.9460 
 465   0.0000       1.217114        33.1193 
 466   0.0000       1.219231        33.1770 
 467   0.0000       1.226261        33.3683 
 468   0.0000       1.228163        33.4200 
 469   0.0000       1.229558        33.4580 
 470   0.0000       1.232417        33.5358 
 471   0.0000       1.236555        33.6484 
 472   0.0000       1.240455        33.7545 
 473   0.0000       1.243451        33.8360 
 474   0.0000       1.244580        33.8667 
 475   0.0000       1.248699        33.9788 
 476   0.0000       1.251177        34.0463 
 477   0.0000       1.251617        34.0582 
 478   0.0000       1.254760        34.1438 
 479   0.0000       1.260499        34.2999 
 480   0.0000       1.262181        34.3457 
 481   0.0000       1.263724        34.3877 
 482   0.0000       1.270454        34.5708 
 483   0.0000       1.271180        34.5906 
 484   0.0000       1.278856        34.7994 
 485   0.0000       1.282161        34.8894 
 486   0.0000       1.284158        34.9437 
 487   0.0000       1.289239        35.0820 
 488   0.0000       1.291695        35.1488 
 489   0.0000       1.293336        35.1935 
 490   0.0000       1.300458        35.3872 
 491   0.0000       1.300841        35.3977 
 492   0.0000       1.306168        35.5426 
 493   0.0000       1.311410        35.6853 
 494   0.0000       1.313468        35.7413 
 495   0.0000       1.319163        35.8963 
 496   0.0000       1.321741        35.9664 
 497   0.0000       1.325009        36.0553 
 498   0.0000       1.328343        36.1460 
 499   0.0000       1.330964        36.2174 
 500   0.0000       1.338022        36.4094 
 501   0.0000       1.339877        36.4599 
 502   0.0000       1.341499        36.5040 
 503   0.0000       1.343857        36.5682 
 504   0.0000       1.347696        36.6727 
 505   0.0000       1.350364        36.7453 
 506   0.0000       1.351936        36.7880 
 507   0.0000       1.358747        36.9734 
 508   0.0000       1.360961        37.0336 
 509   0.0000       1.363366        37.0991 
[...]
      px      :     0.043611
      py      :     0.014046
 77 H s       :     0.884467  s :     0.884467
      pz      :     0.047979  p :     0.079296
      px      :     0.015024
      py      :     0.016293
 78 H s       :     0.884786  s :     0.884786
      pz      :     0.025886  p :     0.079270
      px      :     0.020455
      py      :     0.032930
 79 H s       :     0.910870  s :     0.910870
      pz      :     0.021786  p :     0.086283
      px      :     0.021658
      py      :     0.042840
 80 H s       :     0.864300  s :     0.864300
      pz      :     0.039396  p :     0.084831
      px      :     0.030283
      py      :     0.015152
 81 H s       :     0.886594  s :     0.886594
      pz      :     0.037840  p :     0.084133
      px      :     0.016168
      py      :     0.030125
 82 H s       :     0.915937  s :     0.915937
      pz      :     0.021943  p :     0.086731
      px      :     0.031661
      py      :     0.033127
 83 H s       :     0.873180  s :     0.873180
      pz      :     0.039298  p :     0.084127
      px      :     0.015270
      py      :     0.029559
 84 H s       :     0.886440  s :     0.886440
      pz      :     0.035784  p :     0.083424
      px      :     0.031706
      py      :     0.015935
 85 H s       :     0.892589  s :     0.892589
      pz      :     0.022495  p :     0.079796
      px      :     0.014060
      py      :     0.043241
 86 H s       :     0.890836  s :     0.890836
      pz      :     0.024736  p :     0.078842
      px      :     0.032991
      py      :     0.021114
 87 H s       :     0.889697  s :     0.889697
      pz      :     0.048029  p :     0.078755
      px      :     0.015586
      py      :     0.015139
 88 H s       :     0.910540  s :     0.910540
      pz      :     0.021602  p :     0.087008
      px      :     0.042952
      py      :     0.022455
 89 H s       :     0.870963  s :     0.870963
      pz      :     0.037970  p :     0.083871
      px      :     0.030512
      py      :     0.015388


                      *****************************
                      * MAYER POPULATION ANALYSIS *
                      *****************************

  NA   - Mulliken gross atomic population
  ZA   - Total nuclear charge
  QA   - Mulliken gross atomic charge
  VA   - Mayer's total valence
  BVA  - Mayer's bonded valence
  FA   - Mayer's free valence

  ATOM       NA         ZA         QA         VA         BVA        FA
  0 C      5.7813     6.0000     0.2187     3.8486     3.8486    -0.0000
  1 N      7.4557     7.0000    -0.4557     3.3444     3.3444     0.0000
  2 C      6.0723     6.0000    -0.0723     3.9234     3.9234     0.0000
  3 N      7.3412     7.0000    -0.3412     3.4547     3.4547     0.0000
  4 C      6.0700     6.0000    -0.0700     4.1156     4.1156    -0.0000
  5 N      7.5682     7.0000    -0.5682     3.0952     3.0952    -0.0000
  6 C      6.1026     6.0000    -0.1026     3.9317     3.9317    -0.0000
  7 N      7.3410     7.0000    -0.3410     3.4324     3.4324     0.0000
  8 C      5.7875     6.0000     0.2125     3.8502     3.8502     0.0000
  9 N      7.5621     7.0000    -0.5621     3.0767     3.0767     0.0000
 10 C      5.8804     6.0000     0.1196     3.9091     3.9091     0.0000
 11 N      7.4387     7.0000    -0.4387     3.3768     3.3768     0.0000
 12 C      6.0573     6.0000    -0.0573     3.8499     3.8499     0.0000
 13 N      7.4294     7.0000    -0.4294     3.4285     3.4285     0.0000
 14 C      5.7793     6.0000     0.2207     3.7970     3.7970     0.0000
 15 N      7.4407     7.0000    -0.4407     3.3739     3.3739     0.0000
 16 C      5.7687     6.0000     0.2313     3.7758     3.7758    -0.0000
 17 C      6.1178     6.0000    -0.1178     3.9501     3.9501    -0.0000
 18 C      6.1817     6.0000    -0.1817     3.7568     3.7568     0.0000
 19 C      5.7852     6.0000     0.2148     3.8751     3.8751     0.0000
 20 C      5.7868     6.0000     0.2132     3.8293     3.8293    -0.0000
 21 C      6.0565     6.0000    -0.0565     3.8137     3.8137    -0.0000
 22 C      6.0912     6.0000    -0.0912     3.9830     3.9830     0.0000
 23 C      6.0395     6.0000    -0.0395     3.9927     3.9927     0.0000
 24 C      5.8069     6.0000     0.1931     3.8212     3.8212    -0.0000
 25 C      5.8852     6.0000     0.1148     3.8920     3.8920     0.0000
 26 C      6.0903     6.0000    -0.0903     3.9091     3.9091    -0.0000
 27 C      5.7834     6.0000     0.2166     3.8621     3.8621    -0.0000
 28 C      6.0619     6.0000    -0.0619     3.9888     3.9888     0.0000
 29 C      6.1822     6.0000    -0.1822     3.7460     3.7460    -0.0000
 30 C      5.7539     6.0000     0.2461     3.8013     3.8013    -0.0000
 31 C      5.7701     6.0000     0.2299     3.8169     3.8169     0.0000
 32 C      6.0618     6.0000    -0.0618     3.9229     3.9229     0.0000
 33 C      6.0601     6.0000    -0.0601     3.9712     3.9712     0.0000
 34 C      6.0517     6.0000    -0.0517     3.9833     3.9833     0.0000
 35 C      5.7709     6.0000     0.2291     3.8165     3.8165    -0.0000
 36 C      5.8918     6.0000     0.1082     3.8747     3.8747    -0.0000
 37 C      6.0643     6.0000    -0.0643     3.9179     3.9179     0.0000
 38 C      5.7694     6.0000     0.2306     3.8005     3.8005     0.0000
 39 C      6.0572     6.0000    -0.0572     3.9831     3.9831     0.0000
 40 C      6.1816     6.0000    -0.1816     3.7266     3.7266     0.0000
 41 C      5.7735     6.0000     0.2265     3.8879     3.8879     0.0000
 42 C      5.8023     6.0000     0.1977     3.8255     3.8255    -0.0000
 43 C      6.0723     6.0000    -0.0723     3.9000     3.9000    -0.0000
 44 C      6.0889     6.0000    -0.0889     3.9849     3.9849     0.0000
 45 C      6.0616     6.0000    -0.0616     3.9918     3.9918     0.0000
 46 C      5.7876     6.0000     0.2124     3.8283     3.8283     0.0000
 47 C      5.8848     6.0000     0.1152     3.8924     3.8924     0.0000
 48 C      6.0665     6.0000    -0.0665     3.9095     3.9095    -0.0000
 49 C      5.7611     6.0000     0.2389     3.8943     3.8943    -0.0000
 50 C      6.0461     6.0000    -0.0461     3.9902     3.9902    -0.0000
 51 C      6.1927     6.0000    -0.1927     3.7368     3.7368     0.0000
 52 H      0.9643     1.0000     0.0357     0.9856     0.9856    -0.0000
 53 H      1.0181     1.0000    -0.0181     0.9988     0.9988     0.0000
 54 H      0.9548     1.0000     0.0452     1.0127     1.0127    -0.0000
 55 H      0.9661     1.0000     0.0339     0.9862     0.9862     0.0000
 56 H      0.9506     1.0000     0.0494     0.9695     0.9695     0.0000
 57 H      0.9524     1.0000     0.0476     0.9826     0.9826    -0.0000
 58 H      0.9534     1.0000     0.0466     0.9847     0.9847    -0.0000
 59 H      1.0113     1.0000    -0.0113     0.9964     0.9964     0.0000
 60 H      0.9577     1.0000     0.0423     1.0128     1.0128    -0.0000
 61 H      0.8288     1.0000     0.1712     1.0422     1.0422     0.0000
 62 H      0.8246     1.0000     0.1754     1.0436     1.0436     0.0000
 63 H      0.9452     1.0000     0.0548     0.9853     0.9853     0.0000
 64 H      1.0334     1.0000    -0.0334     0.9908     0.9908    -0.0000
 65 H      0.9531     1.0000     0.0469     1.0099     1.0099    -0.0000
 66 H      0.9448     1.0000     0.0552     0.9855     0.9855    -0.0000
 67 H      0.9379     1.0000     0.0621     0.9719     0.9719    -0.0000
 68 H      0.9430     1.0000     0.0570     0.9868     0.9868    -0.0000
 69 H      0.9440     1.0000     0.0560     0.9828     0.9828     0.0000
 70 H      1.0306     1.0000    -0.0306     0.9942     0.9942    -0.0000
 71 H      0.9557     1.0000     0.0443     1.0059     1.0059     0.0000
 72 H      0.9286     1.0000     0.0714     0.9836     0.9836     0.0000
 73 H      1.0079     1.0000    -0.0079     1.0011     1.0011     0.0000
 74 H      0.9395     1.0000     0.0605     1.0100     1.0100     0.0000
 75 H      0.9291     1.0000     0.0709     0.9838     0.9838     0.0000
 76 H      0.9249     1.0000     0.0751     0.9721     0.9721     0.0000
 77 H      0.9319     1.0000     0.0681     0.9855     0.9855     0.0000
 78 H      0.9325     1.0000     0.0675     0.9854     0.9854     0.0000
 79 H      1.0169     1.0000    -0.0169     0.9974     0.9974     0.0000
 80 H      0.9385     1.0000     0.0615     1.0072     1.0072     0.0000
 81 H      0.9452     1.0000     0.0548     0.9856     0.9856    -0.0000
 82 H      1.0247     1.0000    -0.0247     0.9935     0.9935    -0.0000
 83 H      0.9576     1.0000     0.0424     1.0082     1.0082    -0.0000
 84 H      0.9453     1.0000     0.0547     0.9852     0.9852     0.0000
 85 H      0.9387     1.0000     0.0613     0.9716     0.9716     0.0000
 86 H      0.9442     1.0000     0.0558     0.9839     0.9839     0.0000
 87 H      0.9425     1.0000     0.0575     0.9857     0.9857     0.0000
 88 H      1.0144     1.0000    -0.0144     0.9968     0.9968    -0.0000
 89 H      0.9528     1.0000     0.0472     1.0076     1.0076    -0.0000

  Mayer bond orders larger than 0.100000
B(  0-C ,  1-N ) :   1.1012 B(  0-C , 17-C ) :   1.7118 B(  0-C , 52-H ) :   0.9628 
B(  1-N ,  8-C ) :   1.0893 B(  1-N , 10-C ) :   0.9771 B(  2-C , 12-C ) :   1.4907 
B(  2-C , 16-C ) :   1.3709 B(  2-C , 53-H ) :   0.9724 B(  3-N , 14-C ) :   1.2221 
B(  3-N , 16-C ) :   1.1804 B(  3-N , 61-H ) :   0.8986 B(  4-C ,  6-C ) :   1.2172 
B(  4-C , 17-C ) :   1.2189 B(  4-C , 18-C ) :   1.4734 B(  5-N , 19-C ) :   1.4594 
B(  5-N , 27-C ) :   1.3708 B(  6-C ,  8-C ) :   1.7250 B(  6-C , 54-H ) :   0.8731 
B(  7-N , 30-C ) :   1.1959 B(  7-N , 38-C ) :   1.1889 B(  7-N , 62-H ) :   0.8968 
B(  8-C , 55-H ) :   0.9621 B(  9-N , 41-C ) :   1.3951 B(  9-N , 49-C ) :   1.4242 
B( 10-C , 56-H ) :   0.9776 B( 10-C , 57-H ) :   0.9823 B( 10-C , 58-H ) :   0.9841 
B( 11-N , 20-C ) :   1.1303 B( 11-N , 24-C ) :   1.1058 B( 11-N , 25-C ) :   0.9607 
B( 12-C , 14-C ) :   1.3572 B( 12-C , 59-H ) :   0.9359 B( 13-N , 31-C ) :   1.1612 
B( 13-N , 35-C ) :   1.1612 B( 13-N , 36-C ) :   0.9412 B( 14-C , 18-C ) :   1.1197 
B( 15-N , 42-C ) :   1.1086 B( 15-N , 46-C ) :   1.1257 B( 15-N , 47-C ) :   0.9607 
B( 16-C , 51-C ) :   1.1683 B( 17-C , 60-H ) :   0.9016 B( 18-C , 19-C ) :   1.1176 
B( 19-C , 21-C ) :   1.2543 B( 20-C , 28-C ) :   1.6298 B( 20-C , 63-H ) :   0.9703 
B( 21-C , 26-C ) :   1.5775 B( 21-C , 64-H ) :   0.9087 B( 22-C , 23-C ) :   1.2883 
B( 22-C , 28-C ) :   1.2627 B( 22-C , 29-C ) :   1.2280 B( 23-C , 24-C ) :   1.6215 
B( 23-C , 65-H ) :   0.9703 B( 24-C , 66-H ) :   0.9696 B( 25-C , 67-H ) :   0.9761 
B( 25-C , 68-H ) :   0.9829 B( 25-C , 69-H ) :   0.9824 B( 26-C , 27-C ) :   1.2639 
B( 26-C , 70-H ) :   0.9672 B( 27-C , 29-C ) :   1.2045 B( 28-C , 71-H ) :   0.9720 
B( 29-C , 30-C ) :   1.2467 B( 30-C , 32-C ) :   1.2791 B( 31-C , 39-C ) :   1.5873 
B( 31-C , 72-H ) :   0.9681 B( 32-C , 37-C ) :   1.5793 B( 32-C , 73-H ) :   0.9787 
B( 33-C , 34-C ) :   1.3066 B( 33-C , 39-C ) :   1.3048 B( 33-C , 40-C ) :   1.1760 
B( 34-C , 35-C ) :   1.5853 B( 34-C , 74-H ) :   0.9696 B( 35-C , 75-H ) :   0.9681 
B( 36-C , 76-H ) :   0.9768 B( 36-C , 77-H ) :   0.9816 B( 36-C , 78-H ) :   0.9823 
B( 37-C , 38-C ) :   1.2856 B( 37-C , 79-H ) :   0.9764 B( 38-C , 40-C ) :   1.2337 
B( 39-C , 80-H ) :   0.9705 B( 40-C , 41-C ) :   1.2509 B( 41-C , 43-C ) :   1.1833 
B( 42-C , 50-C ) :   1.6317 B( 42-C , 81-H ) :   0.9696 B( 43-C , 48-C ) :   1.6698 
B( 43-C , 82-H ) :   0.9721 B( 44-C , 45-C ) :   1.2644 B( 44-C , 50-C ) :   1.2738 
B( 44-C , 51-C ) :   1.2582 B( 45-C , 46-C ) :   1.6333 B( 45-C , 83-H ) :   0.9718 
B( 46-C , 84-H ) :   0.9699 B( 47-C , 85-H ) :   0.9762 B( 47-C , 86-H ) :   0.9829 
B( 47-C , 87-H ) :   0.9824 B( 48-C , 49-C ) :   1.1867 B( 48-C , 88-H ) :   0.9748 
B( 49-C , 51-C ) :   1.2462 B( 50-C , 89-H ) :   0.9708 B( 54-H , 64-H ) :   0.1061 


-------
TIMINGS
-------

Total SCF time: 0 days 0 hours 22 min 52 sec 

Total time                  ....    1372.286 sec
Sum of individual times     ....    1368.194 sec  ( 99.7%)

Fock matrix formation       ....    1347.559 sec  ( 98.2%)
Diagonalization             ....       6.679 sec  (  0.5%)
Density matrix formation    ....       0.377 sec  (  0.0%)
Population analysis         ....       0.430 sec  (  0.0%)
Initial guess               ....       1.907 sec  (  0.1%)
Orbital Transformation      ....       0.000 sec  (  0.0%)
Orbital Orthonormalization  ....       0.000 sec  (  0.0%)
DIIS solution               ....       2.929 sec  (  0.2%)
SOSCF solution              ....       7.305 sec  (  0.5%)

Maximum memory used throughout the entire SCF-calculation: 302.7 MB


           ************************************************************
           *        Program running with 16 parallel MPI-processes    *
           *              working on a common directory               *
           ************************************************************

------------------------------------------------------------------------------
                                ORCA  MP2 
------------------------------------------------------------------------------

Freezing NCore=104 chemical core electrons

----------
MP2 ENERGY (disk based algorithm)
----------

Dimension of the basis                    ...  918
Memory devoted to MP2                     ... 2000 MB   
Data format for buffers                   ... DOUBLE
Compression type for matrix containers    ... UNCOMPRESSED

-------------------------------
PARTIAL EXCHANGE TRANSFORMATION
-------------------------------

Transformation type                        ... one-operator
Generation of integrals (i,mue|j,nue)      ... ON
Generation of integrals (mue,kappa|nue,tau)... OFF
Generation of integrals (i,mue|a,nue)      ... OFF
Dimension of the basis                     ...  918
Number of internal MOs                     ...  127 (  52- 178)
Pair cutoff                                ... 2.500e-12 Eh
Number of AO pairs in the trafo            ... 421821
Total Number of distinct AO pairs          ... 421821
Memory devoted for trafo                   ... 2000.0 MB 
Max. Number of MO pairs treated together   ...  311      
Number Format for Storage                  ... Double (8 Byte)
Integral package used                      ... LIBINT

Starting integral evaluation:
    ... done with AO integral generation
Closing buffer AOK     (38.29 GB; CompressionRatio= 1.32)
Collecting buffer AOK 
Number of MO pairs included in the trafo   ... 8128
------------------------
SORTING OF (i,mue|j,nue)
------------------------

IBATCH = 1 of  2
IBATCH = 2 of  2
Closing buffer KAO     (51.03 GB; CompressionRatio= 1.00)
Collecting buffer KAO 
N(AO-Batches) Done                         ...  86161321 
N(AO-Batches) Skipped                      ...  82285677 
N(IJ)-pairs Skipped                        ...         0 
TOTAL TIME for half transformation         ...  2628.302 sec
AO-integral generation                     ...   177.999 sec
Half transformation                        ...   314.161 sec
K-integral sorting                         ...  1995.892 sec
Process 13:   Internal MO 156
Process 10:   Internal MO 132

Finished integral transformation - now doing MP2 part

OPERATOR COMBINATION   0   0: ij=( 52..178, 52..178)
Process  4:   Internal MO  84
Process  7:   Internal MO 108
Process  1:   Internal MO  60
Process  0:   Internal MO  54
Process  1:   Internal MO  63
Process  0:   Internal MO  57
Process  3:   Internal MO  78
Process  2:   Internal MO  69
Process  1:   Internal MO  66
Process  8:   Internal MO 117
Process  2:   Internal MO  72
Process  5:   Internal MO  93
Process 11:   Internal MO 141
Process  6:   Internal MO 102
Process 14:   Internal MO 165
Process  4:   Internal MO  87
Process  9:   Internal MO 126
Process  3:   Internal MO  81
Process  2:   Internal MO  75
Process 12:   Internal MO 150
Process  7:   Internal MO 111
Process  4:   Internal MO  90
Process 15:   Internal MO 174
Process 10:   Internal MO 135
Process  5:   Internal MO  96
Process  6:   Internal MO 105
Process  8:   Internal MO 120
Process  7:   Internal MO 114
Process  9:   Internal MO 129
Process  5:   Internal MO  99
Process 13:   Internal MO 159
Process 11:   Internal MO 144
Process 14:   Internal MO 168
Process 10:   Internal MO 138
Process 12:   Internal MO 153
Process  8:   Internal MO 123
Process 15:   Internal MO 177
Process 11:   Internal MO 147
Process 13:   Internal MO 162
Process 14:   Internal MO 171
-----------------------------------------------
 MP2 CORRELATION ENERGY   :     -7.290395773 Eh
-----------------------------------------------


-------
TIMINGS
-------
Total time                : 2921.685 sec
Integral trafo            : 2630.259 sec ( 90.0%)
K(i,j)                    :    7.853 sec (  0.3%)
T(i,j)                    :    0.376 sec (  0.0%)

---------------------------------------
MP2 TOTAL ENERGY:    -2130.782009153 Eh
---------------------------------------

Maximum memory used throughout the entire MP2-calculation: 2275.3 MB

-------------------------   --------------------
FINAL SINGLE POINT ENERGY     -2130.782009152657
-------------------------   --------------------


                            ***************************************
                            *     ORCA property calculations      *
                            ***************************************


  WARNING: The energy has been calculated at the MP2 level but the densities
           used in the property calculations are still SCF densities
           MP2 response densities have not been calculated 
           use %mp2 Density relaxed end
           or  %mp2 Density unrelaxed end

                                    ---------------------
                                    Active property flags
                                    ---------------------
   (+) Dipole Moment


------------------------------------------------------------------------------
                       ORCA ELECTRIC PROPERTIES CALCULATION
------------------------------------------------------------------------------

Dipole Moment Calculation                       ... on
Quadrupole Moment Calculation                   ... off
Polarizability Calculation                      ... off
GBWName                                         ... /scratch/allen/tmpyp4_amber_gaff2/conf1/conf1/Conf14.orca.gbw
Electron density                                ... /scratch/allen/tmpyp4_amber_gaff2/conf1/conf1/Conf14.orca.scfp
The origin for moment calculation is the CENTER OF MASS  = (-0.001071, -0.004841  0.002630)

-------------
DIPOLE MOMENT
-------------
                                X             Y             Z
Electronic contribution:      2.96237      -4.22632      -0.09571
Nuclear contribution   :     -0.04354       0.15688       0.11089
                        -----------------------------------------
Total Dipole Moment    :      2.91883      -4.06944       0.01518
                        -----------------------------------------
Magnitude (a.u.)       :      5.00801
Magnitude (Debye)      :     12.72934



--------------------
Rotational spectrum 
--------------------
 
Rotational constants in cm-1:     0.001503     0.001478     0.000760 
Rotational constants in MHz :    45.064518    44.296896    22.783907 

 Dipole components along the rotational axes: 
x,y,z [a.u.] :     3.603345     3.477883     0.019366 
x,y,z [Debye]:     9.158975     8.840076     0.049224 

 

Timings for individual modules:

Sum of individual times         ...     4321.121 sec (=  72.019 min)
GTO integral calculation        ...        7.046 sec (=   0.117 min)   0.2 %
SCF iterations                  ...     1374.699 sec (=  22.912 min)  31.8 %
MP2 module                      ...     2939.376 sec (=  48.990 min)  68.0 %
                             ****ORCA TERMINATED NORMALLY****
TOTAL RUN TIME: 0 days 1 hours 12 minutes 4 seconds 518 msec
# of primitive gaussian functions

