
                                 *****************
                                 * O   R   C   A *
                                 *****************

                                            #,                                       
                                            ###                                      
                                            ####                                     
                                            #####                                    
                                            ######                                   
                                           ########,                                 
                                     ,,################,,,,,                         
                               ,,#################################,,                 
                          ,,##########################################,,             
                       ,#########################################, ''#####,          
                    ,#############################################,,   '####,        
                  ,##################################################,,,,####,       
                ,###########''''           ''''###############################       
              ,#####''   ,,,,##########,,,,          '''####'''          '####       
            ,##' ,,,,###########################,,,                        '##       
           ' ,,###''''                  '''############,,,                           
         ,,##''                                '''############,,,,        ,,,,,,###''
      ,#''                                            '''#######################'''  
     '                                                          ''''####''''         
             ,#######,   #######,   ,#######,      ##                                
            ,#'     '#,  ##    ##  ,#'     '#,    #''#        ######   ,####,        
            ##       ##  ##   ,#'  ##            #'  '#       #        #'  '#        
            ##       ##  #######   ##           ,######,      #####,   #    #        
            '#,     ,#'  ##    ##  '#,     ,#' ,#      #,         ##   #,  ,#        
             '#######'   ##     ##  '#######'  #'      '#     #####' # '####'        



                  #######################################################
                  #                        -***-                        #
                  #          Department of theory and spectroscopy      #
                  #    Directorship and core code : Frank Neese         #
                  #        Max Planck Institute fuer Kohlenforschung    #
                  #                Kaiser Wilhelm Platz 1               #
                  #                 D-45470 Muelheim/Ruhr               #
                  #                      Germany                        #
                  #                                                     #
                  #                  All rights reserved                #
                  #                        -***-                        #
                  #######################################################


                         Program Version 5.0.4 -  RELEASE  -


 With contributions from (in alphabetic order):
   Daniel Aravena         : Magnetic Suceptibility
   Michael Atanasov       : Ab Initio Ligand Field Theory (pilot matlab implementation)
   Alexander A. Auer      : GIAO ZORA, VPT2 properties, NMR spectrum
   Ute Becker             : Parallelization
   Giovanni Bistoni       : ED, misc. LED, open-shell LED, HFLD
   Martin Brehm           : Molecular dynamics
   Dmytro Bykov           : SCF Hessian
   Vijay G. Chilkuri      : MRCI spin determinant printing, contributions to CSF-ICE
   Dipayan Datta          : RHF DLPNO-CCSD density
   Achintya Kumar Dutta   : EOM-CC, STEOM-CC
   Dmitry Ganyushin       : Spin-Orbit,Spin-Spin,Magnetic field MRCI
   Miquel Garcia          : C-PCM and meta-GGA Hessian, CC/C-PCM, Gaussian charge scheme
   Yang Guo               : DLPNO-NEVPT2, F12-NEVPT2, CIM, IAO-localization
   Andreas Hansen         : Spin unrestricted coupled pair/coupled cluster methods
   Benjamin Helmich-Paris : MC-RPA, TRAH-SCF, COSX integrals
   Lee Huntington         : MR-EOM, pCC
   Robert Izsak           : Overlap fitted RIJCOSX, COSX-SCS-MP3, EOM
   Marcus Kettner         : VPT2
   Christian Kollmar      : KDIIS, OOCD, Brueckner-CCSD(T), CCSD density, CASPT2, CASPT2-K
   Simone Kossmann        : Meta GGA functionals, TD-DFT gradient, OOMP2, MP2 Hessian
   Martin Krupicka        : Initial AUTO-CI
   Lucas Lang             : DCDCAS
   Marvin Lechner         : AUTO-CI (C++ implementation), FIC-MRCC
   Dagmar Lenk            : GEPOL surface, SMD
   Dimitrios Liakos       : Extrapolation schemes; Compound Job, initial MDCI parallelization
   Dimitrios Manganas     : Further ROCIS development; embedding schemes
   Dimitrios Pantazis     : SARC Basis sets
   Anastasios Papadopoulos: AUTO-CI, single reference methods and gradients
   Taras Petrenko         : DFT Hessian,TD-DFT gradient, ASA, ECA, R-Raman, ABS, FL, XAS/XES, NRVS
   Peter Pinski           : DLPNO-MP2, DLPNO-MP2 Gradient
   Christoph Reimann      : Effective Core Potentials
   Marius Retegan         : Local ZFS, SOC
   Christoph Riplinger    : Optimizer, TS searches, QM/MM, DLPNO-CCSD(T), (RO)-DLPNO pert. Triples
   Tobias Risthaus        : Range-separated hybrids, TD-DFT gradient, RPA, STAB
   Michael Roemelt        : Original ROCIS implementation
   Masaaki Saitow         : Open-shell DLPNO-CCSD energy and density
   Barbara Sandhoefer     : DKH picture change effects
   Avijit Sen             : IP-ROCIS
   Kantharuban Sivalingam : CASSCF convergence, NEVPT2, FIC-MRCI
   Bernardo de Souza      : ESD, SOC TD-DFT
   Georgi Stoychev        : AutoAux, RI-MP2 NMR, DLPNO-MP2 response
   Willem Van den Heuvel  : Paramagnetic NMR
   Boris Wezisla          : Elementary symmetry handling
   Frank Wennmohs         : Technical directorship


 We gratefully acknowledge several colleagues who have allowed us to
 interface, adapt or use parts of their codes:
   Stefan Grimme, W. Hujo, H. Kruse, P. Pracht,  : VdW corrections, initial TS optimization,
                  C. Bannwarth, S. Ehlert          DFT functionals, gCP, sTDA/sTD-DF
   Ed Valeev, F. Pavosevic, A. Kumar             : LibInt (2-el integral package), F12 methods
   Garnet Chan, S. Sharma, J. Yang, R. Olivares  : DMRG
   Ulf Ekstrom                                   : XCFun DFT Library
   Mihaly Kallay                                 : mrcc  (arbitrary order and MRCC methods)
   Jiri Pittner, Ondrej Demel                    : Mk-CCSD
   Frank Weinhold                                : gennbo (NPA and NBO analysis)
   Christopher J. Cramer and Donald G. Truhlar   : smd solvation model
   Lars Goerigk                                  : TD-DFT with DH, B97 family of functionals
   V. Asgeirsson, H. Jonsson                     : NEB implementation
   FAccTs GmbH                                   : IRC, NEB, NEB-TS, DLPNO-Multilevel, CI-OPT
                                                   MM, QMMM, 2- and 3-layer-ONIOM, Crystal-QMMM,
                                                   LR-CPCM, SF, NACMEs, symmetry and pop. for TD-DFT,
                                                   nearIR, NL-DFT gradient (VV10), updates on ESD,
                                                   ML-optimized integration grids
   S Lehtola, MJT Oliveira, MAL Marques          : LibXC Library
   Liviu Ungur et al                             : ANISO software


 Your calculation uses the libint2 library for the computation of 2-el integrals
 For citations please refer to: http://libint.valeyev.net

 Your ORCA version has been built with support for libXC version: 5.1.0
 For citations please refer to: https://tddft.org/programs/libxc/

 This ORCA versions uses:
   CBLAS   interface :  Fast vector & matrix operations
   LAPACKE interface :  Fast linear algebra routines
   SCALAPACK package :  Parallel linear algebra routines
   Shared memory     :  Shared parallel matrices
   BLAS/LAPACK       :  OpenBLAS 0.3.15  USE64BITINT DYNAMIC_ARCH NO_AFFINITY Sandybridge SINGLE_THREADED
        Core in use  :  Sandybridge
   Copyright (c) 2011-2014, The OpenBLAS Project


================================================================================

----- Orbital basis set information -----
Your calculation utilizes the basis: cc-pVDZ 
       H, B-Ne : Obtained from the ccRepo (grant-hill.group.shef.ac.uk/ccrepo) Feb. 2017
                 T. H. Dunning, Jr., J. Chem. Phys. 90, 1007 (1989)
            He : Obtained from the ccRepo (grant-hill.group.shef.ac.uk/ccrepo) Feb. 2017
                 D. E. Woon, T. H. Dunning, Jr., J. Chem. Phys. 100, 2975 (1994)
  Li-Be, Na-Mg : Obtained from the ccRepo (grant-hill.group.shef.ac.uk/ccrepo) Feb. 2017
                 B. P. Prascher, D. E. Woon, K. A. Peterson, T. H. Dunning, Jr., A. K. Wilson, Theor. Chem. Acc. 128, 69 (2011)
         Al-Ar : Obtained from the ccRepo (grant-hill.group.shef.ac.uk/ccrepo) Feb. 2017
                 D. E. Woon, T. H. Dunning, Jr., J. Chem. Phys. 98, 1358 (1993)
            Ca : Obtained from the Peterson Research Group Website (tyr0.chem.wsu.edu/~kipeters) Feb. 2017
                 J. Koput, K. A. Peterson, J. Phys. Chem. 106, 9595 (2002)
         Sc-Zn : Obtained from the ccRepo (grant-hill.group.shef.ac.uk/ccrepo) Feb. 2017
                 N. B. Balabanov, K. A. Peterson, J. Chem. Phys. 123, 064107 (2005)
                 N. B. Balabanov, K. A. Peterson, J. Chem. Phys. 125, 074110 (2006)
         Ga-Kr : Obtained from the ccRepo (grant-hill.group.shef.ac.uk/ccrepo) Feb. 2017
                 A. K. Wilson, D. E. Woon, K. A. Peterson, T. H. Dunning, Jr., J. Chem. Phys. 110, 7667 (1999)

================================================================================
                                        WARNINGS
                       Please study these warnings very carefully!
================================================================================


WARNING: No MP2 level density has been requested!
         To caclulate MP2 level properties use
         %mp2 Density relaxed end
         or
         %mp2 Density unrelaxed end

WARNING: Post HF methods need fully converged wavefunctions
  ===> : Setting SCFConvForced true
         You can overwrite this default with %scf ConvForced false 


INFO   : the flag for use of the SHARK integral package has been found!

================================================================================
                                       INPUT FILE
================================================================================
NAME = /scratch/allen/tmpyp4_amber_gaff2/2.Mdgx/conf11/conf11/Conf130.orca
|  1> ! PAL2
|  2> ! mp2 cc-pvdz TightSCF  NoKeepInts
|  3> 
|  4> %scf
|  5>   MaxCore 2000
|  6> end
|  7> %mp2
|  8>   MaxCore 2000
|  9> end
| 10> * xyz 0 1
| 11>    C       -4.59200         5.44900        -0.83600
| 12>    C        1.47400         4.04100         0.05700
| 13>    C       -2.80200         4.09300         0.04900
| 14>    C       -2.58100         5.09900         1.00300
| 15>    C       -3.36600         6.23400         1.00800
| 16>    C       -5.20000         7.61000         0.15200
| 17>    C        0.13200         4.30700         0.06100
| 18>    C       -0.56900         3.05600         0.04700
| 19>    C        1.64900         2.61800         0.02300
| 20>    C       -3.83700         4.29300        -0.87800
| 21>    N       -4.35200         6.39900         0.09600
| 22>    N        0.38800         2.06700         0.02500
| 23>    N       -2.01000         0.39500        -0.07500
| 24>    N       -0.38800        -2.07400        -0.02700
| 25>    N        2.01000        -0.40100         0.06500
| 26>    C       -1.96000         2.86100         0.02400
| 27>    C       -2.62300         1.61500        -0.01800
| 28>    C       -5.57300        -4.32900         1.06600
| 29>    C       -4.07300         1.47100         0.05600
| 30>    C       -4.10600        -2.75600        -0.02600
| 31>    C       -4.99500        -2.75700        -1.11100
| 32>    C       -6.13200        -3.54200        -1.07600
| 33>    C       -7.65100        -5.11300         0.04000
| 34>    C       -4.32400         0.14100         0.03700
| 35>    C       -3.02500        -0.52000        -0.04800
| 36>    C       -4.42200        -3.56600         1.07500
| 37>    N       -6.40700        -4.31300         0.00100
| 38>    C       -2.86700        -1.92200        -0.04000
| 39>    C       -1.65000        -2.62400        -0.02700
| 40>    C        3.56800        -6.14200        -1.04000
| 41>    C       -1.47600        -4.04900        -0.03400
| 42>    C        2.80300        -4.09900        -0.00800
| 43>    C        3.65700        -4.38400         1.06900
| 44>    C        4.42700        -5.53000         1.05900
| 45>    C        5.24500        -7.58800         0.01400
| 46>    C       -0.13400        -4.31500        -0.02200
| 47>    C        0.56800        -3.06400        -0.02700
| 48>    C        2.77500        -5.01200        -1.07400
| 49>    N        4.37600        -6.39100         0.01700
| 50>    C        1.95900        -2.86900        -0.00900
| 51>    C        2.62100        -1.62200         0.00900
| 52>    C        5.54300         4.33900        -1.13000
| 53>    C        4.07000        -1.47900        -0.09400
| 54>    C        4.10400         2.75100        -0.02100
| 55>    C        5.02700         2.72900         1.03600
| 56>    C        6.16600         3.50900         0.97800
| 57>    C        7.61900         5.15300        -0.11500
| 58>    C        4.32100        -0.14800        -0.09200
| 59>    C        3.02500         0.51400         0.01500
| 60>    C        4.38700         3.58200        -1.11500
| 61>    C        2.86600         1.91600         0.01300
| 62>    N        6.41300         4.29600        -0.09500
| 63>    H       -5.39100         5.65100        -1.53800
| 64>    H        2.27400         4.76600         0.08100
| 65>    H       -1.80300         4.99800         1.75000
| 66>    H       -3.23800         7.03200         1.72900
| 67>    H       -6.02000         7.43800         0.85300
| 68>    H       -4.59100         8.45000         0.48700
| 69>    H       -5.59500         7.80800        -0.84400
| 70>    H       -0.33200         5.28200         0.06900
| 71>    H       -4.04800         3.56000        -1.64800
| 72>    H        0.18200         1.07200         0.00500
| 73>    H       -0.18300        -1.08000        -0.02100
| 74>    H       -5.86400        -4.96200         1.89500
| 75>    H       -4.79400         2.27200         0.13900
| 76>    H       -4.80000        -2.16000        -1.99400
| 77>    H       -6.84100        -3.58200        -1.89300
| 78>    H       -8.42800        -4.53600         0.54600
| 79>    H       -7.95600        -5.33700        -0.98100
| 80>    H       -7.45600        -6.03700         0.58400
| 81>    H       -5.28700        -0.34400         0.10000
| 82>    H       -3.78000        -3.60100         1.94700
| 83>    H        3.58700        -6.86800        -1.84300
| 84>    H       -2.27600        -4.77400        -0.05000
| 85>    H        3.71400        -3.72400         1.92600
| 86>    H        5.09200        -5.79500         1.87100
| 87>    H        6.20500        -7.32900        -0.43900
| 88>    H        5.39300        -7.91700         1.04200
| 89>    H        4.75900        -8.37300        -0.56400
| 90>    H        0.32900        -5.29000        -0.00800
| 91>    H        2.14600        -4.84200        -1.94000
| 92>    H        5.80800         4.98600        -1.95600
| 93>    H        4.78800        -2.28100        -0.18500
| 94>    H        4.86000         2.11400         1.91200
| 95>    H        6.90100         3.53100         1.77200
| 96>    H        7.38300         6.10900         0.35600
| 97>    H        8.41400         4.65200         0.43500
| 98>    H        7.92100         5.31000        -1.15000
| 99>    H        5.28300         0.33600        -0.17900
|100>    H        3.72000         3.63200        -1.96700
|101> *
|102> 
|103>                          ****END OF INPUT****
================================================================================

                       ****************************
                       * Single Point Calculation *
                       ****************************

---------------------------------
CARTESIAN COORDINATES (ANGSTROEM)
---------------------------------
  C     -4.592000    5.449000   -0.836000
  C      1.474000    4.041000    0.057000
  C     -2.802000    4.093000    0.049000
  C     -2.581000    5.099000    1.003000
  C     -3.366000    6.234000    1.008000
  C     -5.200000    7.610000    0.152000
  C      0.132000    4.307000    0.061000
  C     -0.569000    3.056000    0.047000
  C      1.649000    2.618000    0.023000
  C     -3.837000    4.293000   -0.878000
  N     -4.352000    6.399000    0.096000
  N      0.388000    2.067000    0.025000
  N     -2.010000    0.395000   -0.075000
  N     -0.388000   -2.074000   -0.027000
  N      2.010000   -0.401000    0.065000
  C     -1.960000    2.861000    0.024000
  C     -2.623000    1.615000   -0.018000
  C     -5.573000   -4.329000    1.066000
  C     -4.073000    1.471000    0.056000
  C     -4.106000   -2.756000   -0.026000
  C     -4.995000   -2.757000   -1.111000
  C     -6.132000   -3.542000   -1.076000
  C     -7.651000   -5.113000    0.040000
  C     -4.324000    0.141000    0.037000
  C     -3.025000   -0.520000   -0.048000
  C     -4.422000   -3.566000    1.075000
  N     -6.407000   -4.313000    0.001000
  C     -2.867000   -1.922000   -0.040000
  C     -1.650000   -2.624000   -0.027000
  C      3.568000   -6.142000   -1.040000
  C     -1.476000   -4.049000   -0.034000
  C      2.803000   -4.099000   -0.008000
  C      3.657000   -4.384000    1.069000
  C      4.427000   -5.530000    1.059000
  C      5.245000   -7.588000    0.014000
  C     -0.134000   -4.315000   -0.022000
  C      0.568000   -3.064000   -0.027000
  C      2.775000   -5.012000   -1.074000
  N      4.376000   -6.391000    0.017000
  C      1.959000   -2.869000   -0.009000
  C      2.621000   -1.622000    0.009000
  C      5.543000    4.339000   -1.130000
  C      4.070000   -1.479000   -0.094000
  C      4.104000    2.751000   -0.021000
  C      5.027000    2.729000    1.036000
  C      6.166000    3.509000    0.978000
  C      7.619000    5.153000   -0.115000
  C      4.321000   -0.148000   -0.092000
  C      3.025000    0.514000    0.015000
  C      4.387000    3.582000   -1.115000
  C      2.866000    1.916000    0.013000
  N      6.413000    4.296000   -0.095000
  H     -5.391000    5.651000   -1.538000
  H      2.274000    4.766000    0.081000
  H     -1.803000    4.998000    1.750000
  H     -3.238000    7.032000    1.729000
  H     -6.020000    7.438000    0.853000
  H     -4.591000    8.450000    0.487000
  H     -5.595000    7.808000   -0.844000
  H     -0.332000    5.282000    0.069000
  H     -4.048000    3.560000   -1.648000
  H      0.182000    1.072000    0.005000
  H     -0.183000   -1.080000   -0.021000
  H     -5.864000   -4.962000    1.895000
  H     -4.794000    2.272000    0.139000
  H     -4.800000   -2.160000   -1.994000
  H     -6.841000   -3.582000   -1.893000
  H     -8.428000   -4.536000    0.546000
  H     -7.956000   -5.337000   -0.981000
  H     -7.456000   -6.037000    0.584000
  H     -5.287000   -0.344000    0.100000
  H     -3.780000   -3.601000    1.947000
  H      3.587000   -6.868000   -1.843000
  H     -2.276000   -4.774000   -0.050000
  H      3.714000   -3.724000    1.926000
  H      5.092000   -5.795000    1.871000
  H      6.205000   -7.329000   -0.439000
  H      5.393000   -7.917000    1.042000
  H      4.759000   -8.373000   -0.564000
  H      0.329000   -5.290000   -0.008000
  H      2.146000   -4.842000   -1.940000
  H      5.808000    4.986000   -1.956000
  H      4.788000   -2.281000   -0.185000
  H      4.860000    2.114000    1.912000
  H      6.901000    3.531000    1.772000
  H      7.383000    6.109000    0.356000
  H      8.414000    4.652000    0.435000
  H      7.921000    5.310000   -1.150000
  H      5.283000    0.336000   -0.179000
  H      3.720000    3.632000   -1.967000

----------------------------
CARTESIAN COORDINATES (A.U.)
----------------------------
  NO LB      ZA    FRAG     MASS         X           Y           Z
   0 C     6.0000    0    12.011   -8.677622   10.297118   -1.579811
   1 C     6.0000    0    12.011    2.785456    7.636383    0.107714
   2 C     6.0000    0    12.011   -5.295013    7.734649    0.092597
   3 C     6.0000    0    12.011   -4.877383    9.635714    1.895395
   4 C     6.0000    0    12.011   -6.360818   11.780553    1.904844
   5 C     6.0000    0    12.011   -9.826576   14.380816    0.287238
   6 C     6.0000    0    12.011    0.249444    8.139050    0.115273
   7 C     6.0000    0    12.011   -1.075254    5.775003    0.088817
   8 C     6.0000    0    12.011    3.116158    4.947303    0.043464
   9 C     6.0000    0    12.011   -7.250879    8.112594   -1.659180
  10 N     7.0000    0    14.007   -8.224088   12.092358    0.181414
  11 N     7.0000    0    14.007    0.733214    3.906064    0.047243
  12 N     7.0000    0    14.007   -3.798350    0.746442   -0.141729
  13 N     7.0000    0    14.007   -0.733214   -3.919292   -0.051023
  14 N     7.0000    0    14.007    3.798350   -0.757780    0.122832
  15 C     6.0000    0    12.011   -3.703863    5.406506    0.045353
  16 C     6.0000    0    12.011   -4.956752    3.051908   -0.034015
  17 C     6.0000    0    12.011  -10.531444   -8.180624    2.014448
  18 C     6.0000    0    12.011   -7.696855    2.779787    0.105825
  19 C     6.0000    0    12.011   -7.759216   -5.208085   -0.049133
  20 C     6.0000    0    12.011   -9.439182   -5.209975   -2.099486
  21 C     6.0000    0    12.011  -11.587801   -6.693410   -2.033345
  22 C     6.0000    0    12.011  -14.458295   -9.662170    0.075589
  23 C     6.0000    0    12.011   -8.171176    0.266451    0.069920
  24 C     6.0000    0    12.011   -5.716422   -0.982658   -0.090707
  25 C     6.0000    0    12.011   -8.356369   -6.738763    2.031456
  26 N     7.0000    0    14.007  -12.107475   -8.150389    0.001890
  27 C     6.0000    0    12.011   -5.417845   -3.632054   -0.075589
  28 C     6.0000    0    12.011   -3.118048   -4.958641   -0.051023
  29 C     6.0000    0    12.011    6.742543  -11.606698   -1.965315
  30 C     6.0000    0    12.011   -2.789236   -7.651501   -0.064251
  31 C     6.0000    0    12.011    5.296902   -7.745987   -0.015118
  32 C     6.0000    0    12.011    6.910728   -8.284559    2.020117
  33 C     6.0000    0    12.011    8.365818  -10.450186    2.001220
  34 C     6.0000    0    12.011    9.911614  -14.339242    0.026456
  35 C     6.0000    0    12.011   -0.253223   -8.154168   -0.041574
  36 C     6.0000    0    12.011    1.073364   -5.790121   -0.051023
  37 C     6.0000    0    12.011    5.243990   -9.471307   -2.029566
  38 N     7.0000    0    14.007    8.269442  -12.077240    0.032125
  39 C     6.0000    0    12.011    3.701973   -5.421624   -0.017008
  40 C     6.0000    0    12.011    4.952972   -3.065136    0.017008
  41 C     6.0000    0    12.011   10.474752    8.199522   -2.135391
  42 C     6.0000    0    12.011    7.691185   -2.794905   -0.177634
  43 C     6.0000    0    12.011    7.755436    5.198637   -0.039684
  44 C     6.0000    0    12.011    9.499653    5.157063    1.957756
  45 C     6.0000    0    12.011   11.652051    6.631049    1.848152
  46 C     6.0000    0    12.011   14.397823    9.737759   -0.217319
  47 C     6.0000    0    12.011    8.165507   -0.279679   -0.173855
  48 C     6.0000    0    12.011    5.716422    0.971319    0.028346
  49 C     6.0000    0    12.011    8.290229    6.768999   -2.107045
  50 C     6.0000    0    12.011    5.415955    3.620715    0.024566
  51 N     7.0000    0    14.007   12.118814    8.118263   -0.179524
  52 H     1.0000    0     1.008  -10.187514   10.678842   -2.906399
  53 H     1.0000    0     1.008    4.297237    9.006435    0.153068
  54 H     1.0000    0     1.008   -3.407176    9.444851    3.307021
  55 H     1.0000    0     1.008   -6.118933   13.288554    3.267336
  56 H     1.0000    0     1.008  -11.376151   14.055783    1.611936
  57 H     1.0000    0     1.008   -8.675733   15.968186    0.920297
  58 H     1.0000    0     1.008  -10.573018   14.754982   -1.594929
  59 H     1.0000    0     1.008   -0.627389    9.981533    0.130391
  60 H     1.0000    0     1.008   -7.649611    6.727425   -3.114269
  61 H     1.0000    0     1.008    0.343930    2.025786    0.009449
  62 H     1.0000    0     1.008   -0.345820   -2.040904   -0.039684
  63 H     1.0000    0     1.008  -11.081354   -9.376821    3.581031
  64 H     1.0000    0     1.008   -9.059347    4.293458    0.262672
  65 H     1.0000    0     1.008   -9.070685   -4.081808   -3.768114
  66 H     1.0000    0     1.008  -12.927616   -6.768999   -3.577252
  67 H     1.0000    0     1.008  -15.926612   -8.571798    1.031790
  68 H     1.0000    0     1.008  -15.034661  -10.085468   -1.853821
  69 H     1.0000    0     1.008  -14.089798  -11.408277    1.103600
  70 H     1.0000    0     1.008   -9.990982   -0.650066    0.188973
  71 H     1.0000    0     1.008   -7.143165   -6.804904    3.679297
  72 H     1.0000    0     1.008    6.778448  -12.978639   -3.482765
  73 H     1.0000    0     1.008   -4.301017   -9.021553   -0.094486
  74 H     1.0000    0     1.008    7.018443   -7.037340    3.639613
  75 H     1.0000    0     1.008    9.622485  -10.950963    3.535678
  76 H     1.0000    0     1.008   11.725751  -13.849803   -0.829590
  77 H     1.0000    0     1.008   10.191293  -14.960962    1.969095
  78 H     1.0000    0     1.008    8.993207  -15.822677   -1.065806
  79 H     1.0000    0     1.008    0.621720   -9.996651   -0.015118
  80 H     1.0000    0     1.008    4.055352   -9.150054   -3.666069
  81 H     1.0000    0     1.008   10.975529    9.422175   -3.696304
  82 H     1.0000    0     1.008    9.048009   -4.310465   -0.349599
  83 H     1.0000    0     1.008    9.184069    3.994881    3.613156
  84 H     1.0000    0     1.008   13.041000    6.672623    3.348595
  85 H     1.0000    0     1.008   13.951848   11.544337    0.672743
  86 H     1.0000    0     1.008   15.900156    8.791006    0.822031
  87 H     1.0000    0     1.008   14.968521   10.034446   -2.173185
  88 H     1.0000    0     1.008    9.983423    0.634948   -0.338261
  89 H     1.0000    0     1.008    7.029781    6.863485   -3.717091

--------------------------------
INTERNAL COORDINATES (ANGSTROEM)
--------------------------------
 C      0   0   0     0.000000000000     0.00000000     0.00000000
 C      1   0   0     6.290967254723     0.00000000     0.00000000
 C      1   2   0     2.413723472148    26.76579357     0.00000000
 C      3   1   2     1.403920581799    87.89860683    74.45511233
 C      4   3   1     1.380027173646   120.14936286     0.12314010
 C      5   4   3     2.447379823403   152.54907510     1.63445039
 C      2   1   3     1.368114030335     8.53123248   315.17274000
 C      7   2   3     1.434084376876   108.05010202     0.84668783
 C      2   1   3     1.434123425651   109.65609744    36.95620603
 C      1   2   7     1.381348978354    44.76455141   271.76479710
 N      1   2   7     1.352303220435    83.58497569    59.41580880
 N      9   2   1     1.376127174356   106.58526707   350.34527741
 N     12   9   2     2.925062050624   168.53581413   171.12065651
 N     13  12   9     2.954513327098    91.55032014    11.12112580
 N     14  13  12     2.925371258490    88.43092389   359.84326247
 C      8   7   2     1.404790019896   127.24786865   181.11170171
 C     13  12   9     1.366535034311    81.72106996   188.00453233
 C     14  13  12     5.758810554272    80.56209567   166.76250791
 C     17  13  12     1.459010623676   111.08861209   183.82872609
 C     18  14  13     2.412235892279    27.27532823    36.33507194
 C     20  18  14     1.402692767501    87.95206320   148.94598259
 C     21  20  18     1.382106725257   120.14573887   359.70382047
 C     18  14  13     2.446510985056   144.15733107    82.80075377
 C     19  17  13     1.353610726908   106.29293361   359.75308708
 C     13  12   9     1.366813447402   172.21332906    33.46711076
 C     18  14  13     1.380960173213    15.08449437   309.23336894
 N     22  21  20     1.352773077792   120.73759875     0.27865223
 C     25  13  17     1.410897586645   125.60330303   182.37774668
 C     14  13  12     1.376642291955    80.24689249   177.85461986
 C     14  13  12     5.764089607215   164.51507311   312.20821879
 C     29  14  13     1.435600919476   106.58649366   178.76395472
 C     30  14  13     2.413316804732    27.10625047    82.12560436
 C     32  30  14     1.403734305344    87.90059683   149.76154742
 C     33  32  30     1.380694028378   120.14881443   359.74174632
 C     34  33  32     2.448777858443   152.49203239     2.45173620
 C     31  29  14     1.368160809262   108.16950133     0.70383075
 C     14  13  12     1.376239804685   169.26375223   353.09862627
 C     30  14  13     1.380907310430    14.68948582   353.70041132
 N     34  33  32     1.352658863128   120.85575621     0.19603406
 C     37  14  29     1.404717053360   126.01551127   180.90772073
 C     15  14  13     1.366491126938    81.61824056   183.09049352
 C      2   1   3     4.249062720177   150.23015505   157.56662577
 C     41  15  14     1.459677704153   111.05201287   175.08990246
 C     42   2   1     2.412953791518    41.78584867   210.61587164
 C     44  42   2     1.403446472082    87.95153797   233.97558675
 C     45  44  42     1.381696421071   120.11137308     0.19721020
 C     42   2   1     2.450019795838   135.97209175   120.93072074
 C     43  41  15     1.354461516618   106.26758155     0.30894352
 C     15  14  13     1.367461151185   171.87382904   332.35056460
 C     42   2   1     1.381886391857    32.59078432   259.47115083
 C      9   2   1     1.404988612053   126.98745415   171.34961494
 N     42   2   1     1.352765315936   113.57249190   148.66730993
 H      1   2   7     1.082593644910   147.72092306   191.01574616
 H      2   1   3     1.079907866440   124.55587077   208.45968821
 H      4   3   1     1.083279280703   120.98595782   179.58771566
 H      5   4   3     1.083064633344   122.76289251   179.48241689
 H      6   5   4     1.092421621902   104.45005406   100.11115986
 H      6   5   4     1.090277946214    84.67085837   209.50978675
 H      6   5   4     1.089607727579   133.91104764   322.39410634
 H      7   2  54     1.079807853278   126.66122480     1.30600390
 H     10   1   2     1.083840394154   118.76156711   219.13511525
 H     12   9   2     1.016297692608   125.29023241   180.00180175
 H     14  13  12     1.014936943854    44.97226959   359.42596618
 H     18  14  13     1.082871645210   128.03556573   234.20482432
 H     19  17  13     1.080893611786   126.41830519   178.11313280
 H     21  20  18     1.083569563987   121.05669627   180.67006309
 H     22  21  20     1.082483256222   122.73097286   180.59748951
 H     23  18  14     1.092105306278   103.92715769   234.93429879
 H     23  18  14     1.088871893291   134.19244188    12.25587044
 H     23  18  14     1.089833473518    84.85857450   125.45241208
 H     24  19  17     1.080075460327   127.28078426   178.44613241
 H     26  18  14     1.083408048706   118.76995697   244.94906660
 H     30  14  13     1.082703098730   127.99711412   279.66882698
 H     31  29  14     1.079759695488   125.22293469   180.92530585
 H     33  32  30     1.083188810873   121.01964473   180.74284758
 H     34  33  32     1.082494341787   122.70821597   180.59516895
 H     35  34  33     1.092652735319   105.73575241    97.19771933
 H     35  34  33     1.089462711615    84.05943581   206.43036958
 H     35  34  33     1.089268102902   133.08365142   318.50306270
 H     36  31  29     1.079439669458   126.61599965   178.98859863
 H     38  30  73     1.083742127999   118.77264435   359.90091293
 H     42   2   1     1.082178358682   119.31790784     5.29884039
 H     43  41  15     1.080281907652   126.36969097   182.06329380
 H     45  44  42     1.083277434455   121.10105945   179.58025624
 H     46  45  44     1.082194529648   122.72144639   179.46906377
 H     47  42   2     1.091546151109   106.65128841   315.16475048
 H     47  42   2     1.088818625851   132.46019523    94.52397119
 H     47  42   2     1.089531091801    83.63838232   206.04504406
 H     48  43  41     1.080402239909   127.23657387   181.62955349
 H     50  42   2     1.083186502870   118.77001737    94.71359229

---------------------------
INTERNAL COORDINATES (A.U.)
---------------------------
 C      0   0   0     0.000000000000     0.00000000     0.00000000
 C      1   0   0    11.888205228893     0.00000000     0.00000000
 C      1   2   0     4.561276325378    26.76579357     0.00000000
 C      3   1   2     2.653025413376    87.89860683    74.45511233
 C      4   3   1     2.607873415559   120.14936286     0.12314010
 C      5   4   3     4.624877611916   152.54907510     1.63445039
 C      2   1   3     2.585360837309     8.53123248   315.17274000
 C      7   2   3     2.710026725231   108.05010202     0.84668783
 C      2   1   3     2.710100516721   109.65609744    36.95620603
 C      1   2   7     2.610371264461    44.76455141   271.76479710
 N      1   2   7     2.555482736643    83.58497569    59.41580880
 N      9   2   1     2.600503484979   106.58526707   350.34527741
 N     12   9   2     5.527566200405   168.53581413   171.12065651
 N     13  12   9     5.583221047236    91.55032014    11.12112580
 N     14  13  12     5.528150518591    88.43092389   359.84326247
 C      8   7   2     2.654668413270   127.24786865   181.11170171
 C     13  12   9     2.582376967257    81.72106996   188.00453233
 C     14  13  12    10.882574804710    80.56209567   166.76250791
 C     17  13  12     2.757130505230   111.08861209   183.82872609
 C     18  14  13     4.558465206823    27.27532823    36.33507194
 C     20  18  14     2.650705180609    87.95206320   148.94598259
 C     21  20  18     2.611803198586   120.14573887   359.70382047
 C     18  14  13     4.623235745386   144.15733107    82.80075377
 C     19  17  13     2.557953565794   106.29293361   359.75308708
 C     13  12   9     2.582903091751   172.21332906    33.46711076
 C     18  14  13     2.609636529225    15.08449437   309.23336894
 N     22  21  20     2.556370638369   120.73759875     0.27865223
 C     25  13  17     2.666210041769   125.60330303   182.37774668
 C     14  13  12     2.601476916169    80.24689249   177.85461986
 C     14  13  12    10.892550769017   164.51507311   312.20821879
 C     29  14  13     2.712892575415   106.58649366   178.76395472
 C     30  14  13     4.560507835333    27.10625047    82.12560436
 C     32  30  14     2.652673401891    87.90059683   149.76154742
 C     33  32  30     2.609133588376   120.14881443   359.74174632
 C     34  33  32     4.627519515267   152.49203239     2.45173620
 C     31  29  14     2.585449236669   108.16950133     0.70383075
 C     14  13  12     2.600716325456   169.26375223   353.09862627
 C     30  14  13     2.609536633043    14.68948582   353.70041132
 N     34  33  32     2.556154803934   120.85575621     0.19603406
 C     37  14  29     2.654530526499   126.01551127   180.90772073
 C     15  14  13     2.582293994346    81.61824056   183.09049352
 C      2   1   3     8.029564866989   150.23015505   157.56662577
 C     41  15  14     2.758391104639   111.05201287   175.08990246
 C     42   2   1     4.559821839776    41.78584867   210.61587164
 C     44  42   2     2.652129475853    87.95153797   233.97558675
 C     45  44  42     2.611027836043   120.11137308     0.19721020
 C     42   2   1     4.629866436820   135.97209175   120.93072074
 C     43  41  15     2.559561325344   106.26758155     0.30894352
 C     15  14  13     2.584127074516   171.87382904   332.35056460
 C     42   2   1     2.611386828803    32.59078432   259.47115083
 C      9   2   1     2.655043698059   126.98745415   171.34961494
 N     42   2   1     2.556355970587   113.57249190   148.66730993
 H      1   2   7     2.045805503204   147.72092306   191.01574616
 H      2   1   3     2.040730117440   124.55587077   208.45968821
 H      4   3   1     2.047101167080   120.98595782   179.58771566
 H      5   4   3     2.046695542355   122.76289251   179.48241689
 H      6   5   4     2.064377688170   104.45005406   100.11115986
 H      6   5   4     2.060326728198    84.67085837   209.50978675
 H      6   5   4     2.059060198529   133.91104764   322.39410634
 H      7   2  54     2.040541119952   126.66122480     1.30600390
 H     10   1   2     2.048161517832   118.76156711   219.13511525
 H     12   9   2     1.920524309565   125.29023241   180.00180175
 H     14  13  12     1.917952867083    44.97226959   359.42596618
 H     18  14  13     2.046330847636   128.03556573   234.20482432
 H     19  17  13     2.042592906181   126.41830519   178.11313280
 H     21  20  18     2.047649722989   121.05669627   180.67006309
 H     22  21  20     2.045596898814   122.73097286   180.59748951
 H     23  18  14     2.063779938267   103.92715769   234.93429879
 H     23  18  14     2.057669673245   134.19244188    12.25587044
 H     23  18  14     2.059486796529    84.85857450   125.45241208
 H     24  19  17     2.041046823986   127.28078426   178.44613241
 H     26  18  14     2.047344503340   118.76995697   244.94906660
 H     30  14  13     2.046012340948   127.99711412   279.66882698
 H     31  29  14     2.040450114918   125.22293469   180.92530585
 H     33  32  30     2.046930203877   121.01964473   180.74284758
 H     34  33  32     2.045617847496   122.70821597   180.59516895
 H     35  34  33     2.064814429233   105.73575241    97.19771933
 H     35  34  33     2.058786158072    84.05943581   206.43036958
 H     35  34  33     2.058418400901   133.08365142   318.50306270
 H     36  31  29     2.039845353366   126.61599965   178.98859863
 H     38  30  73     2.047975821711   118.77264435   359.90091293
 H     42   2   1     2.045020725966   119.31790784     5.29884039
 H     43  41  15     2.041436952892   126.36969097   182.06329380
 H     45  44  42     2.047097678177   121.10105945   179.58025624
 H     46  45  44     2.045051284662   122.72144639   179.46906377
 H     47  42   2     2.062723288131   106.65128841   315.16475048
 H     47  42   2     2.057569012371   132.46019523    94.52397119
 H     47  42   2     2.058915377895    83.63838232   206.04504406
 H     48  43  41     2.041664347903   127.23657387   181.62955349
 H     50  42   2     2.046925842384   118.77001737    94.71359229

---------------------
BASIS SET INFORMATION
---------------------
There are 3 groups of distinct atoms

 Group   1 Type C   : 17s4p1d contracted to 3s2p1d pattern {881/31/1}
 Group   2 Type N   : 17s4p1d contracted to 3s2p1d pattern {881/31/1}
 Group   3 Type H   : 4s1p contracted to 2s1p pattern {31/1}

Atom   0C    basis set group =>   1
Atom   1N    basis set group =>   2
Atom   2C    basis set group =>   1
Atom   3N    basis set group =>   2
Atom   4C    basis set group =>   1
Atom   5N    basis set group =>   2
Atom   6C    basis set group =>   1
Atom   7N    basis set group =>   2
Atom   8C    basis set group =>   1
Atom   9N    basis set group =>   2
Atom  10C    basis set group =>   1
Atom  11N    basis set group =>   2
Atom  12C    basis set group =>   1
Atom  13N    basis set group =>   2
Atom  14C    basis set group =>   1
Atom  15N    basis set group =>   2
Atom  16C    basis set group =>   1
Atom  17C    basis set group =>   1
Atom  18C    basis set group =>   1
Atom  19C    basis set group =>   1
Atom  20C    basis set group =>   1
Atom  21C    basis set group =>   1
Atom  22C    basis set group =>   1
Atom  23C    basis set group =>   1
Atom  24C    basis set group =>   1
Atom  25C    basis set group =>   1
Atom  26C    basis set group =>   1
Atom  27C    basis set group =>   1
Atom  28C    basis set group =>   1
Atom  29C    basis set group =>   1
Atom  30C    basis set group =>   1
Atom  31C    basis set group =>   1
Atom  32C    basis set group =>   1
Atom  33C    basis set group =>   1
Atom  34C    basis set group =>   1
Atom  35C    basis set group =>   1
Atom  36C    basis set group =>   1
Atom  37C    basis set group =>   1
Atom  38C    basis set group =>   1
Atom  39C    basis set group =>   1
Atom  40C    basis set group =>   1
Atom  41C    basis set group =>   1
Atom  42C    basis set group =>   1
Atom  43C    basis set group =>   1
Atom  44C    basis set group =>   1
Atom  45C    basis set group =>   1
Atom  46C    basis set group =>   1
Atom  47C    basis set group =>   1
Atom  48C    basis set group =>   1
Atom  49C    basis set group =>   1
Atom  50C    basis set group =>   1
Atom  51C    basis set group =>   1
Atom  52H    basis set group =>   3
Atom  53H    basis set group =>   3
Atom  54H    basis set group =>   3
Atom  55H    basis set group =>   3
Atom  56H    basis set group =>   3
Atom  57H    basis set group =>   3
Atom  58H    basis set group =>   3
Atom  59H    basis set group =>   3
Atom  60H    basis set group =>   3
Atom  61H    basis set group =>   3
Atom  62H    basis set group =>   3
Atom  63H    basis set group =>   3
Atom  64H    basis set group =>   3
Atom  65H    basis set group =>   3
Atom  66H    basis set group =>   3
Atom  67H    basis set group =>   3
Atom  68H    basis set group =>   3
Atom  69H    basis set group =>   3
Atom  70H    basis set group =>   3
Atom  71H    basis set group =>   3
Atom  72H    basis set group =>   3
Atom  73H    basis set group =>   3
Atom  74H    basis set group =>   3
Atom  75H    basis set group =>   3
Atom  76H    basis set group =>   3
Atom  77H    basis set group =>   3
Atom  78H    basis set group =>   3
Atom  79H    basis set group =>   3
Atom  80H    basis set group =>   3
Atom  81H    basis set group =>   3
Atom  82H    basis set group =>   3
Atom  83H    basis set group =>   3
Atom  84H    basis set group =>   3
Atom  85H    basis set group =>   3
Atom  86H    basis set group =>   3
Atom  87H    basis set group =>   3
Atom  88H    basis set group =>   3
Atom  89H    basis set group =>   3


           ************************************************************
           *        Program running with 16 parallel MPI-processes    *
           *              working on a common directory               *
           ************************************************************
------------------------------------------------------------------------------
                           ORCA GTO INTEGRAL CALCULATION
------------------------------------------------------------------------------
------------------------------------------------------------------------------
                   ___                                                        
                  /   \      - P O W E R E D   B Y -                         
                 /     \                                                     
                 |  |  |   _    _      __       _____    __    __             
                 |  |  |  | |  | |    /  \     |  _  \  |  |  /  |          
                  \  \/   | |  | |   /    \    | | | |  |  | /  /          
                 / \  \   | |__| |  /  /\  \   | |_| |  |  |/  /          
                |  |  |   |  __  | /  /__\  \  |    /   |      \           
                |  |  |   | |  | | |   __   |  |    \   |  |\   \          
                \     /   | |  | | |  |  |  |  | |\  \  |  | \   \       
                 \___/    |_|  |_| |__|  |__|  |_| \__\ |__|  \__/        
                                                                              
                      - O R C A' S   B I G   F R I E N D -                    
                                      &                                       
                       - I N T E G R A L  F E E D E R -                       
                                                                              
 v1 FN, 2020, v2 2021                                                         
------------------------------------------------------------------------------


Reading SHARK input file /scratch/allen/tmpyp4_amber_gaff2/conf1/conf1/Conf130.orca.SHARKINP.tmp ... ok
----------------------
SHARK INTEGRAL PACKAGE
----------------------

Number of atoms                             ...     90
Number of basis functions                   ...   1230
Number of shells                            ...    738
Maximum angular momentum                    ...      2
Integral batch strategy                     ... SHARK/LIBINT Hybrid
RI-J (if used) integral strategy            ... SPLIT-RIJ (Revised 2003 algorithm where possible)
Printlevel                                  ...      1
Contraction scheme used                     ... PARTIAL GENERAL contraction
Coulomb Range Separation                    ... NOT USED
Exchange Range Separation                   ... NOT USED
Finite Nucleus Model                        ... NOT USED
Auxiliary Coulomb fitting basis             ... NOT available
Auxiliary J/K fitting basis                 ... NOT available
Auxiliary Correlation fitting basis         ... NOT available
Auxiliary 'external' fitting basis          ... NOT available
Integral threshold                          ...     2.500000e-11
Primitive cut-off                           ...     2.500000e-12
Primitive pair pre-selection threshold      ...     2.500000e-12

Calculating pre-screening integrals         ... done (  0.1 sec) Dimension = 738
Calculating pre-screening integrals (ORCA)  ... done (  0.3 sec) Dimension = 426
Organizing shell pair data                  ... done (  0.8 sec)
Shell pair information
Total number of shell pairs                 ...    272691
Shell pairs after pre-screening             ...     71598
Total number of primitive shell pairs       ...    422091
Primitive shell pairs kept                  ...     92384
          la=0 lb=0:  29407 shell pairs
          la=1 lb=0:  25969 shell pairs
          la=1 lb=1:   4702 shell pairs
          la=2 lb=0:   7865 shell pairs
          la=2 lb=1:   3124 shell pairs
          la=2 lb=2:    531 shell pairs

Calculating one electron integrals          ... done (  0.3 sec)
Calculating Nuclear repulsion               ... done (  0.0 sec) ENN=   6226.418912078436 Eh

SHARK setup successfully completed in   2.2 seconds

Maximum memory used throughout the entire GTOINT-calculation: 98.9 MB


           ************************************************************
           *        Program running with 16 parallel MPI-processes    *
           *              working on a common directory               *
           ************************************************************
-------------------------------------------------------------------------------
                                 ORCA SCF
-------------------------------------------------------------------------------

------------
SCF SETTINGS
------------
Hamiltonian:
 Ab initio Hamiltonian  Method          .... Hartree-Fock(GTOs)


General Settings:
 Integral files         IntName         .... /scratch/allen/tmpyp4_amber_gaff2/conf1/conf1/Conf130.orca
 Hartree-Fock type      HFTyp           .... RHF
 Total Charge           Charge          ....    0
 Multiplicity           Mult            ....    1
 Number of Electrons    NEL             ....  358
 Basis Dimension        Dim             ....  918
 Nuclear Repulsion      ENuc            ....   6226.4189120784 Eh

Convergence Acceleration:
 DIIS                   CNVDIIS         .... on
   Start iteration      DIISMaxIt       ....    12
   Startup error        DIISStart       ....  0.200000
   # of expansion vecs  DIISMaxEq       ....     5
   Bias factor          DIISBfac        ....   1.050
   Max. coefficient     DIISMaxC        ....  10.000
 Trust-Rad. Augm. Hess. CNVTRAH         .... auto
   Auto Start mean grad. ratio tolernc. ....  1.125000
   Auto Start start iteration           ....    20
   Auto Start num. interpolation iter.  ....    10
   Max. Number of Micro iterations      ....    16
   Max. Number of Macro iterations      .... Maxiter - #DIIS iter
   Number of Davidson start vectors     ....     2
   Converg. threshold I  (grad. norm)   ....   1.000e-05
   Converg. threshold II (energy diff.) ....   1.000e-08
   Grad. Scal. Fac. for Micro threshold ....   0.100
   Minimum threshold for Micro iter.    ....   0.010
   NR start threshold (gradient norm)   ....   0.001
   Initial trust radius                 ....   0.400
   Minimum AH scaling param. (alpha)    ....   1.000
   Maximum AH scaling param. (alpha)    .... 1000.000
   Orbital update algorithm             .... Taylor
   White noise on init. David. guess    .... on
   Maximum white noise                  ....   0.010
   Quad. conv. algorithm                .... NR
 SOSCF                  CNVSOSCF        .... on
   Start iteration      SOSCFMaxIt      ....   150
   Startup grad/error   SOSCFStart      ....  0.003300
 Level Shifting         CNVShift        .... on
   Level shift para.    LevelShift      ....    0.2500
   Turn off err/grad.   ShiftErr        ....    0.0010
 Zerner damping         CNVZerner       .... off
 Static damping         CNVDamp         .... on
   Fraction old density DampFac         ....    0.7000
   Max. Damping (<1)    DampMax         ....    0.9800
   Min. Damping (>=0)   DampMin         ....    0.0000
   Turn off err/grad.   DampErr         ....    0.1000
 Fernandez-Rico         CNVRico         .... off

SCF Procedure:
 Maximum # iterations   MaxIter         ....   125
 SCF integral mode      SCFMode         .... Direct
   Integral package                     .... SHARK and LIBINT hybrid scheme
 Reset frequency        DirectResetFreq ....    20
 Integral Threshold     Thresh          ....  2.500e-11 Eh
 Primitive CutOff       TCut            ....  2.500e-12 Eh

Convergence Tolerance:
 Convergence Check Mode ConvCheckMode   .... Total+1el-Energy
 Convergence forced     ConvForced      .... 1
 Energy Change          TolE            ....  1.000e-08 Eh
 1-El. energy change                    ....  1.000e-05 Eh
 Orbital Gradient       TolG            ....  1.000e-05
 Orbital Rotation angle TolX            ....  1.000e-05
 DIIS Error             TolErr          ....  5.000e-07


Diagonalization of the overlap matrix:
Smallest eigenvalue                        ... 2.248e-04
Time for diagonalization                   ...    0.400 sec
Threshold for overlap eigenvalues          ... 1.000e-08
Number of eigenvalues below threshold      ... 0
Time for construction of square roots      ...    0.249 sec
Total time needed                          ...    0.654 sec

Time for model grid setup =    1.067 sec

------------------------------
INITIAL GUESS: MODEL POTENTIAL
------------------------------
Loading Hartree-Fock densities                     ... done
Calculating cut-offs                               ... done
Initializing the effective Hamiltonian             ... done
Setting up the integral package (SHARK)            ... done
Starting the Coulomb interaction                   ... done (   1.2 sec)
Reading the grid                                   ... done
Mapping shells                                     ... done
Starting the XC term evaluation                    ... done (   0.2 sec)
Transforming the Hamiltonian                       ... done (   0.2 sec)
Diagonalizing the Hamiltonian                      ... done (   0.3 sec)
Back transforming the eigenvectors                 ... done (   0.1 sec)
Now organizing SCF variables                       ... done
                      ------------------
                      INITIAL GUESS DONE (   3.1 sec)
                      ------------------
--------------
SCF ITERATIONS
--------------
ITER       Energy         Delta-E        Max-DP      RMS-DP      [F,P]     Damp
               ***  Starting incremental Fock matrix formation  ***
  0  -2121.6863978903   0.000000000000 0.06885325  0.00120732  0.2327311 0.7000
  1  -2122.3485654841  -0.662167593890 0.05221342  0.00097995  0.1440467 0.7000
                               ***Turning on DIIS***
  2  -2122.7598070239  -0.411241539727 0.11654639  0.00222176  0.0802420 0.0000
  3  -2117.7992174003   4.960589623617 0.03016369  0.00067594  0.0441688 0.0000
  4  -2123.4257800953  -5.626562695088 0.00881212  0.00022681  0.0071979 0.0000
  5  -2123.5988428958  -0.173062800483 0.00510733  0.00013380  0.0049734 0.0000
  6  -2123.5814246770   0.017418218835 0.00342110  0.00008651  0.0019366 0.0000
  7  -2123.6841357543  -0.102711077341 0.00289434  0.00006808  0.0015190 0.0000
  8  -2123.6996536961  -0.015517941765 0.00298622  0.00006378  0.0014115 0.0000
  9  -2123.6656374353   0.034016260759 0.00240437  0.00004371  0.0011154 0.0000
 10  -2123.6778472278  -0.012209792501 0.00494596  0.00008679  0.0008524 0.0000
                      *** Initiating the SOSCF procedure ***
                           *** Shutting down DIIS ***
                      *** Re-Reading the Fockian *** 
                      *** Removing any level shift *** 
ITER      Energy       Delta-E        Grad      Rot      Max-DP    RMS-DP
 11  -2123.56489544   0.1129517843  0.000267  0.000267  0.000277  0.000006
               *** Restarting incremental Fock matrix formation ***
 12  -2123.62908090  -0.0641854542  0.000865  0.005834  0.001146  0.000028
 13  -2123.62915197  -0.0000710718  0.000957  0.025681  0.005348  0.000102
 14  -2123.62925480  -0.0001028297  0.000445  0.002047  0.000524  0.000011
 15  -2123.62926855  -0.0000137472  0.000183  0.003332  0.000844  0.000015
 16  -2123.62927649  -0.0000079389  0.000136  0.004403  0.000774  0.000016
 17  -2123.62928079  -0.0000043078  0.000139  0.003333  0.000456  0.000010
 18  -2123.62928294  -0.0000021436  0.000069  0.001539  0.000232  0.000005
 19  -2123.62928401  -0.0000010729  0.000060  0.000501  0.000170  0.000003
 20  -2123.62928434  -0.0000003319  0.000026  0.000512  0.000132  0.000002
 21  -2123.62928449  -0.0000001473  0.000020  0.000184  0.000063  0.000001
 22  -2123.62928457  -0.0000000832  0.000016  0.000397  0.000100  0.000002
 23  -2123.62928463  -0.0000000618  0.000010  0.000122  0.000046  0.000001
 24  -2123.62928465  -0.0000000172  0.000005  0.000062  0.000025  0.000000
 25  -2123.62928466  -0.0000000089  0.000003  0.000029  0.000015  0.000000
                  ***Gradient check signals convergence***
              ***Rediagonalizing the Fockian in SOSCF/NRSCF***

               *****************************************************
               *                     SUCCESS                       *
               *           SCF CONVERGED AFTER  26 CYCLES          *
               *****************************************************


----------------
TOTAL SCF ENERGY
----------------

Total Energy       :        -2123.62928466 Eh          -57786.89066 eV

Components:
Nuclear Repulsion  :         6226.41891208 Eh          169429.47223 eV
Electronic Energy  :        -8350.04819674 Eh         -227216.36289 eV
One Electron Energy:       -15293.88458188 Eh         -416167.75703 eV
Two Electron Energy:         6943.83638514 Eh          188951.39414 eV

Virial components:
Potential Energy   :        -4245.64483719 Eh         -115529.86944 eV
Kinetic Energy     :         2122.01555252 Eh           57742.97878 eV
Virial Ratio       :            2.00076047


---------------
SCF CONVERGENCE
---------------

  Last Energy change         ...   -4.3419e-09  Tolerance :   1.0000e-08
  Last MAX-Density change    ...    9.0599e-06  Tolerance :   1.0000e-07
  Last RMS-Density change    ...    1.4383e-07  Tolerance :   5.0000e-09
  Last Orbital Gradient      ...    1.6060e-06  Tolerance :   1.0000e-05
  Last Orbital Rotation      ...    2.8007e-05  Tolerance :   1.0000e-05

             **** THE GBW FILE WAS UPDATED (/scratch/allen/tmpyp4_amber_gaff2/conf1/conf1/Conf130.orca.gbw) ****
             **** DENSITY /scratch/allen/tmpyp4_amber_gaff2/conf1/conf1/Conf130.orca.scfp WAS UPDATED ****
             **** ENERGY FILE WAS UPDATED (/scratch/allen/tmpyp4_amber_gaff2/conf1/conf1/Conf130.orca.en.tmp) ****
             **** THE GBW FILE WAS UPDATED (/scratch/allen/tmpyp4_amber_gaff2/conf1/conf1/Conf130.orca.gbw) ****
             **** DENSITY /scratch/allen/tmpyp4_amber_gaff2/conf1/conf1/Conf130.orca.scfp WAS UPDATED ****
----------------
ORBITAL ENERGIES
----------------

  NO   OCC          E(Eh)            E(eV) 
   0   2.0000     -15.653448      -425.9520 
   1   2.0000     -15.639358      -425.5686 
   2   2.0000     -15.628479      -425.2725 
   3   2.0000     -15.608185      -424.7203 
   4   2.0000     -15.521779      -422.3691 
   5   2.0000     -15.515637      -422.2020 
   6   2.0000     -15.447245      -420.3409 
   7   2.0000     -15.443755      -420.2460 
   8   2.0000     -11.311601      -307.8043 
   9   2.0000     -11.307983      -307.7059 
  10   2.0000     -11.305455      -307.6371 
  11   2.0000     -11.302600      -307.5594 
  12   2.0000     -11.295991      -307.3795 
  13   2.0000     -11.295851      -307.3757 
  14   2.0000     -11.292922      -307.2960 
  15   2.0000     -11.286672      -307.1260 
  16   2.0000     -11.284649      -307.0709 
  17   2.0000     -11.284221      -307.0593 
  18   2.0000     -11.270302      -306.6805 
  19   2.0000     -11.270045      -306.6735 
  20   2.0000     -11.257167      -306.3231 
  21   2.0000     -11.244686      -305.9835 
  22   2.0000     -11.243789      -305.9590 
  23   2.0000     -11.242801      -305.9322 
  24   2.0000     -11.234822      -305.7150 
  25   2.0000     -11.234225      -305.6988 
  26   2.0000     -11.233013      -305.6658 
  27   2.0000     -11.226756      -305.4956 
  28   2.0000     -11.226573      -305.4906 
  29   2.0000     -11.216997      -305.2300 
  30   2.0000     -11.211852      -305.0900 
  31   2.0000     -11.211278      -305.0744 
  32   2.0000     -11.205062      -304.9052 
  33   2.0000     -11.204172      -304.8810 
  34   2.0000     -11.191875      -304.5464 
  35   2.0000     -11.191431      -304.5343 
  36   2.0000     -11.179131      -304.1996 
  37   2.0000     -11.176621      -304.1313 
  38   2.0000     -11.176293      -304.1224 
  39   2.0000     -11.173585      -304.0487 
  40   2.0000     -11.167285      -303.8773 
  41   2.0000     -11.166762      -303.8630 
  42   2.0000     -11.166055      -303.8438 
  43   2.0000     -11.165550      -303.8301 
  44   2.0000     -11.163523      -303.7749 
  45   2.0000     -11.163183      -303.7657 
  46   2.0000     -11.150417      -303.4183 
  47   2.0000     -11.149101      -303.3825 
  48   2.0000     -11.147313      -303.3338 
  49   2.0000     -11.145909      -303.2956 
  50   2.0000     -11.138841      -303.1033 
  51   2.0000     -11.134667      -302.9897 
  52   2.0000      -1.337912       -36.4064 
  53   2.0000      -1.325807       -36.0771 
  54   2.0000      -1.316505       -35.8239 
  55   2.0000      -1.300185       -35.3798 
  56   2.0000      -1.221338       -33.2343 
  57   2.0000      -1.211421       -32.9644 
  58   2.0000      -1.164450       -31.6863 
  59   2.0000      -1.156107       -31.4593 
  60   2.0000      -1.124583       -30.6015 
  61   2.0000      -1.113851       -30.3094 
  62   2.0000      -1.105888       -30.0927 
  63   2.0000      -1.092678       -29.7333 
  64   2.0000      -1.061159       -28.8756 
  65   2.0000      -1.049687       -28.5634 
  66   2.0000      -1.041173       -28.3317 
  67   2.0000      -1.029958       -28.0266 
  68   2.0000      -1.026582       -27.9347 
  69   2.0000      -1.012422       -27.5494 
  70   2.0000      -1.009303       -27.4645 
  71   2.0000      -0.994702       -27.0672 
  72   2.0000      -0.985726       -26.8230 
  73   2.0000      -0.974299       -26.5120 
  74   2.0000      -0.972791       -26.4710 
  75   2.0000      -0.958729       -26.0884 
  76   2.0000      -0.951473       -25.8909 
  77   2.0000      -0.945956       -25.7408 
  78   2.0000      -0.938225       -25.5304 
  79   2.0000      -0.922591       -25.1050 
  80   2.0000      -0.895655       -24.3720 
  81   2.0000      -0.885832       -24.1047 
  82   2.0000      -0.876468       -23.8499 
  83   2.0000      -0.868923       -23.6446 
  84   2.0000      -0.862566       -23.4716 
  85   2.0000      -0.855121       -23.2690 
  86   2.0000      -0.848282       -23.0829 
  87   2.0000      -0.840798       -22.8793 
  88   2.0000      -0.821802       -22.3624 
  89   2.0000      -0.798757       -21.7353 
  90   2.0000      -0.796510       -21.6741 
  91   2.0000      -0.741165       -20.1681 
  92   2.0000      -0.734193       -19.9784 
  93   2.0000      -0.730629       -19.8814 
  94   2.0000      -0.722340       -19.6559 
  95   2.0000      -0.719448       -19.5772 
  96   2.0000      -0.712782       -19.3958 
  97   2.0000      -0.705860       -19.2074 
  98   2.0000      -0.700232       -19.0543 
  99   2.0000      -0.695015       -18.9123 
 100   2.0000      -0.689852       -18.7718 
 101   2.0000      -0.681375       -18.5412 
 102   2.0000      -0.678811       -18.4714 
 103   2.0000      -0.673560       -18.3285 
 104   2.0000      -0.670147       -18.2356 
 105   2.0000      -0.667059       -18.1516 
 106   2.0000      -0.664394       -18.0791 
 107   2.0000      -0.660110       -17.9625 
 108   2.0000      -0.657613       -17.8946 
 109   2.0000      -0.656764       -17.8714 
 110   2.0000      -0.651339       -17.7238 
 111   2.0000      -0.648813       -17.6551 
 112   2.0000      -0.644593       -17.5403 
 113   2.0000      -0.637718       -17.3532 
 114   2.0000      -0.634371       -17.2621 
 115   2.0000      -0.626897       -17.0587 
 116   2.0000      -0.622792       -16.9470 
 117   2.0000      -0.616440       -16.7742 
 118   2.0000      -0.612279       -16.6610 
 119   2.0000      -0.610713       -16.6184 
 120   2.0000      -0.608414       -16.5558 
 121   2.0000      -0.602711       -16.4006 
 122   2.0000      -0.594542       -16.1783 
 123   2.0000      -0.594399       -16.1744 
 124   2.0000      -0.590954       -16.0807 
 125   2.0000      -0.585041       -15.9198 
 126   2.0000      -0.578264       -15.7354 
 127   2.0000      -0.575083       -15.6488 
 128   2.0000      -0.565896       -15.3988 
 129   2.0000      -0.559015       -15.2116 
 130   2.0000      -0.553880       -15.0718 
 131   2.0000      -0.548691       -14.9306 
 132   2.0000      -0.541989       -14.7483 
 133   2.0000      -0.537107       -14.6154 
 134   2.0000      -0.534078       -14.5330 
 135   2.0000      -0.529452       -14.4071 
 136   2.0000      -0.525562       -14.3013 
 137   2.0000      -0.522786       -14.2257 
 138   2.0000      -0.519034       -14.1236 
 139   2.0000      -0.517412       -14.0795 
 140   2.0000      -0.509583       -13.8664 
 141   2.0000      -0.507429       -13.8078 
 142   2.0000      -0.506824       -13.7914 
 143   2.0000      -0.501228       -13.6391 
 144   2.0000      -0.500169       -13.6103 
 145   2.0000      -0.498066       -13.5531 
 146   2.0000      -0.494099       -13.4451 
 147   2.0000      -0.490508       -13.3474 
 148   2.0000      -0.488725       -13.2989 
 149   2.0000      -0.469363       -12.7720 
 150   2.0000      -0.461962       -12.5706 
 151   2.0000      -0.453610       -12.3433 
 152   2.0000      -0.448316       -12.1993 
 153   2.0000      -0.446455       -12.1486 
 154   2.0000      -0.446223       -12.1423 
 155   2.0000      -0.439339       -11.9550 
 156   2.0000      -0.435009       -11.8372 
 157   2.0000      -0.430413       -11.7121 
 158   2.0000      -0.395405       -10.7595 
 159   2.0000      -0.383955       -10.4480 
 160   2.0000      -0.379352       -10.3227 
 161   2.0000      -0.371445       -10.1075 
 162   2.0000      -0.369769       -10.0619 
 163   2.0000      -0.360066        -9.7979 
 164   2.0000      -0.352974        -9.6049 
 165   2.0000      -0.339730        -9.2445 
 166   2.0000      -0.337212        -9.1760 
 167   2.0000      -0.334694        -9.1075 
 168   2.0000      -0.329028        -8.9533 
 169   2.0000      -0.300138        -8.1672 
 170   2.0000      -0.299341        -8.1455 
 171   2.0000      -0.287851        -7.8328 
 172   2.0000      -0.286138        -7.7862 
 173   2.0000      -0.256993        -6.9931 
 174   2.0000      -0.247137        -6.7249 
 175   2.0000      -0.188810        -5.1378 
 176   2.0000      -0.178838        -4.8664 
 177   2.0000      -0.069104        -1.8804 
 178   2.0000      -0.055971        -1.5230 
 179   0.0000       0.029923         0.8142 
 180   0.0000       0.069482         1.8907 
 181   0.0000       0.092798         2.5252 
 182   0.0000       0.100996         2.7482 
 183   0.0000       0.124087         3.3766 
 184   0.0000       0.133792         3.6407 
 185   0.0000       0.141786         3.8582 
 186   0.0000       0.154718         4.2101 
 187   0.0000       0.155922         4.2429 
 188   0.0000       0.162029         4.4090 
 189   0.0000       0.162604         4.4247 
 190   0.0000       0.167816         4.5665 
 191   0.0000       0.177579         4.8322 
 192   0.0000       0.194385         5.2895 
 193   0.0000       0.197788         5.3821 
 194   0.0000       0.201976         5.4960 
 195   0.0000       0.205568         5.5938 
 196   0.0000       0.207931         5.6581 
 197   0.0000       0.210959         5.7405 
 198   0.0000       0.217373         5.9150 
 199   0.0000       0.221936         6.0392 
 200   0.0000       0.229401         6.2423 
 201   0.0000       0.237013         6.4494 
 202   0.0000       0.241889         6.5821 
 203   0.0000       0.247050         6.7226 
 204   0.0000       0.251277         6.8376 
 205   0.0000       0.253745         6.9048 
 206   0.0000       0.255354         6.9485 
 207   0.0000       0.259824         7.0702 
 208   0.0000       0.262967         7.1557 
 209   0.0000       0.264441         7.1958 
 210   0.0000       0.267200         7.2709 
 211   0.0000       0.269281         7.3275 
 212   0.0000       0.271232         7.3806 
 213   0.0000       0.274662         7.4739 
 214   0.0000       0.277321         7.5463 
 215   0.0000       0.279094         7.5945 
 216   0.0000       0.281712         7.6658 
 217   0.0000       0.282085         7.6759 
 218   0.0000       0.284335         7.7372 
 219   0.0000       0.288549         7.8518 
 220   0.0000       0.290110         7.8943 
 221   0.0000       0.292205         7.9513 
 222   0.0000       0.293590         7.9890 
 223   0.0000       0.295925         8.0525 
 224   0.0000       0.298684         8.1276 
 225   0.0000       0.300595         8.1796 
 226   0.0000       0.305620         8.3163 
 227   0.0000       0.307410         8.3651 
 228   0.0000       0.309087         8.4107 
 229   0.0000       0.313273         8.5246 
 230   0.0000       0.314884         8.5684 
 231   0.0000       0.320846         8.7307 
 232   0.0000       0.324953         8.8424 
 233   0.0000       0.329739         8.9726 
 234   0.0000       0.332788         9.0556 
 235   0.0000       0.339821         9.2470 
 236   0.0000       0.355365         9.6700 
 237   0.0000       0.384523        10.4634 
 238   0.0000       0.395066        10.7503 
 239   0.0000       0.399358        10.8671 
 240   0.0000       0.404682        11.0120 
 241   0.0000       0.414377        11.2758 
 242   0.0000       0.419187        11.4067 
 243   0.0000       0.424454        11.5500 
 244   0.0000       0.428082        11.6487 
 245   0.0000       0.431048        11.7294 
 246   0.0000       0.434021        11.8103 
 247   0.0000       0.438113        11.9217 
 248   0.0000       0.441195        12.0055 
 249   0.0000       0.444066        12.0837 
 250   0.0000       0.449302        12.2261 
 251   0.0000       0.456485        12.4216 
 252   0.0000       0.457924        12.4607 
 253   0.0000       0.463297        12.6070 
 254   0.0000       0.470007        12.7895 
 255   0.0000       0.474818        12.9204 
 256   0.0000       0.482952        13.1418 
 257   0.0000       0.485164        13.2020 
 258   0.0000       0.492933        13.4134 
 259   0.0000       0.496076        13.4989 
 260   0.0000       0.500847        13.6287 
 261   0.0000       0.502806        13.6820 
 262   0.0000       0.507313        13.8047 
 263   0.0000       0.509910        13.8753 
 264   0.0000       0.511057        13.9066 
 265   0.0000       0.515176        14.0186 
 266   0.0000       0.518892        14.1198 
 267   0.0000       0.523139        14.2353 
 268   0.0000       0.535815        14.5803 
 269   0.0000       0.537716        14.6320 
 270   0.0000       0.541805        14.7433 
 271   0.0000       0.545056        14.8317 
 272   0.0000       0.545822        14.8526 
 273   0.0000       0.553919        15.0729 
 274   0.0000       0.559546        15.2260 
 275   0.0000       0.563892        15.3443 
 276   0.0000       0.573604        15.6086 
 277   0.0000       0.577665        15.7191 
 278   0.0000       0.579820        15.7777 
 279   0.0000       0.584168        15.8960 
 280   0.0000       0.586094        15.9484 
 281   0.0000       0.590675        16.0731 
 282   0.0000       0.593389        16.1469 
 283   0.0000       0.597107        16.2481 
 284   0.0000       0.599224        16.3057 
 285   0.0000       0.600195        16.3321 
 286   0.0000       0.608058        16.5461 
 287   0.0000       0.610280        16.6066 
 288   0.0000       0.613068        16.6824 
 289   0.0000       0.615963        16.7612 
 290   0.0000       0.622770        16.9464 
 291   0.0000       0.627660        17.0795 
 292   0.0000       0.636696        17.3254 
 293   0.0000       0.637347        17.3431 
 294   0.0000       0.645328        17.5603 
 295   0.0000       0.650435        17.6992 
 296   0.0000       0.655711        17.8428 
 297   0.0000       0.658715        17.9246 
 298   0.0000       0.662690        18.0327 
 299   0.0000       0.665833        18.1182 
 300   0.0000       0.669584        18.2203 
 301   0.0000       0.672286        18.2938 
 302   0.0000       0.679163        18.4810 
 303   0.0000       0.682044        18.5594 
 304   0.0000       0.683747        18.6057 
 305   0.0000       0.688837        18.7442 
 306   0.0000       0.689480        18.7617 
 307   0.0000       0.690859        18.7992 
 308   0.0000       0.697021        18.9669 
 309   0.0000       0.698096        18.9962 
 310   0.0000       0.702373        19.1125 
 311   0.0000       0.704955        19.1828 
 312   0.0000       0.705948        19.2098 
 313   0.0000       0.709506        19.3066 
 314   0.0000       0.711852        19.3705 
 315   0.0000       0.713784        19.4230 
 316   0.0000       0.716006        19.4835 
 317   0.0000       0.717874        19.5343 
 318   0.0000       0.720018        19.5927 
 319   0.0000       0.724091        19.7035 
 320   0.0000       0.727206        19.7883 
 321   0.0000       0.730569        19.8798 
 322   0.0000       0.733242        19.9525 
 323   0.0000       0.735815        20.0225 
 324   0.0000       0.737532        20.0693 
 325   0.0000       0.741483        20.1768 
 326   0.0000       0.742650        20.2085 
 327   0.0000       0.744690        20.2640 
 328   0.0000       0.746478        20.3127 
 329   0.0000       0.750090        20.4110 
 330   0.0000       0.752829        20.4855 
 331   0.0000       0.753987        20.5170 
 332   0.0000       0.757391        20.6097 
 333   0.0000       0.763266        20.7695 
 334   0.0000       0.768784        20.9197 
 335   0.0000       0.774179        21.0665 
 336   0.0000       0.776310        21.1245 
 337   0.0000       0.780407        21.2360 
 338   0.0000       0.784539        21.3484 
 339   0.0000       0.787515        21.4294 
 340   0.0000       0.791188        21.5293 
 341   0.0000       0.792167        21.5559 
 342   0.0000       0.795059        21.6346 
 343   0.0000       0.800429        21.7808 
 344   0.0000       0.804602        21.8943 
 345   0.0000       0.806862        21.9558 
 346   0.0000       0.807827        21.9821 
 347   0.0000       0.810243        22.0478 
 348   0.0000       0.815656        22.1951 
 349   0.0000       0.816161        22.2089 
 350   0.0000       0.820964        22.3396 
 351   0.0000       0.824708        22.4414 
 352   0.0000       0.826949        22.5024 
 353   0.0000       0.827766        22.5247 
 354   0.0000       0.830306        22.5938 
 355   0.0000       0.830658        22.6034 
 356   0.0000       0.834190        22.6995 
 357   0.0000       0.834618        22.7111 
 358   0.0000       0.836626        22.7658 
 359   0.0000       0.839719        22.8499 
 360   0.0000       0.840195        22.8629 
 361   0.0000       0.841630        22.9019 
 362   0.0000       0.843549        22.9541 
 363   0.0000       0.844351        22.9760 
 364   0.0000       0.847598        23.0643 
 365   0.0000       0.850541        23.1444 
 366   0.0000       0.851726        23.1767 
 367   0.0000       0.854870        23.2622 
 368   0.0000       0.860500        23.4154 
 369   0.0000       0.862599        23.4725 
 370   0.0000       0.864594        23.5268 
 371   0.0000       0.870483        23.6870 
 372   0.0000       0.873277        23.7631 
 373   0.0000       0.875938        23.8355 
 374   0.0000       0.878903        23.9162 
 375   0.0000       0.883219        24.0336 
 376   0.0000       0.885477        24.0951 
 377   0.0000       0.890571        24.2337 
 378   0.0000       0.892430        24.2843 
 379   0.0000       0.893523        24.3140 
 380   0.0000       0.897678        24.4271 
 381   0.0000       0.899409        24.4742 
 382   0.0000       0.901984        24.5442 
 383   0.0000       0.903895        24.5962 
 384   0.0000       0.904461        24.6116 
 385   0.0000       0.905760        24.6470 
 386   0.0000       0.909380        24.7455 
 387   0.0000       0.910749        24.7827 
 388   0.0000       0.911195        24.7949 
 389   0.0000       0.913262        24.8511 
 390   0.0000       0.918907        25.0047 
 391   0.0000       0.921041        25.0628 
 392   0.0000       0.923154        25.1203 
 393   0.0000       0.924643        25.1608 
 394   0.0000       0.926745        25.2180 
 395   0.0000       0.930442        25.3186 
 396   0.0000       0.934030        25.4162 
 397   0.0000       0.935825        25.4651 
 398   0.0000       0.937346        25.5065 
 399   0.0000       0.942052        25.6345 
 400   0.0000       0.943102        25.6631 
 401   0.0000       0.947071        25.7711 
 402   0.0000       0.949692        25.8424 
 403   0.0000       0.954059        25.9613 
 404   0.0000       0.955311        25.9953 
 405   0.0000       0.958716        26.0880 
 406   0.0000       0.960318        26.1316 
 407   0.0000       0.964000        26.2318 
 408   0.0000       0.965214        26.2648 
 409   0.0000       0.972124        26.4528 
 410   0.0000       0.976162        26.5627 
 411   0.0000       0.978007        26.6129 
 412   0.0000       0.981203        26.6999 
 413   0.0000       0.985111        26.8062 
 414   0.0000       0.988215        26.8907 
 415   0.0000       0.991093        26.9690 
 416   0.0000       1.000372        27.2215 
 417   0.0000       1.001396        27.2494 
 418   0.0000       1.006198        27.3800 
 419   0.0000       1.015140        27.6234 
 420   0.0000       1.022436        27.8219 
 421   0.0000       1.026658        27.9368 
 422   0.0000       1.031935        28.0804 
 423   0.0000       1.040277        28.3074 
 424   0.0000       1.045541        28.4506 
 425   0.0000       1.049346        28.5542 
 426   0.0000       1.055854        28.7312 
 427   0.0000       1.062191        28.9037 
 428   0.0000       1.064423        28.9644 
 429   0.0000       1.070530        29.1306 
 430   0.0000       1.076729        29.2993 
 431   0.0000       1.081403        29.4265 
 432   0.0000       1.084874        29.5209 
 433   0.0000       1.089330        29.6422 
 434   0.0000       1.099677        29.9237 
 435   0.0000       1.102554        30.0020 
 436   0.0000       1.107495        30.1365 
 437   0.0000       1.108937        30.1757 
 438   0.0000       1.115697        30.3597 
 439   0.0000       1.116748        30.3882 
 440   0.0000       1.121401        30.5149 
 441   0.0000       1.124345        30.5950 
 442   0.0000       1.128693        30.7133 
 443   0.0000       1.130251        30.7557 
 444   0.0000       1.133334        30.8396 
 445   0.0000       1.133577        30.8462 
 446   0.0000       1.135362        30.8948 
 447   0.0000       1.141441        31.0602 
 448   0.0000       1.144723        31.1495 
 449   0.0000       1.146550        31.1992 
 450   0.0000       1.151334        31.3294 
 451   0.0000       1.153360        31.3845 
 452   0.0000       1.155550        31.4441 
 453   0.0000       1.156694        31.4752 
 454   0.0000       1.159628        31.5551 
 455   0.0000       1.168654        31.8007 
 456   0.0000       1.173259        31.9260 
 457   0.0000       1.177224        32.0339 
 458   0.0000       1.180939        32.1350 
 459   0.0000       1.185799        32.2672 
 460   0.0000       1.188003        32.3272 
 461   0.0000       1.191446        32.4209 
 462   0.0000       1.200860        32.6771 
 463   0.0000       1.203003        32.7354 
 464   0.0000       1.206816        32.8391 
 465   0.0000       1.208594        32.8875 
 466   0.0000       1.214015        33.0350 
 467   0.0000       1.215238        33.0683 
 468   0.0000       1.221564        33.2404 
 469   0.0000       1.229183        33.4478 
 470   0.0000       1.230683        33.4886 
 471   0.0000       1.233344        33.5610 
 472   0.0000       1.235176        33.6109 
 473   0.0000       1.237812        33.6826 
 474   0.0000       1.242070        33.7985 
 475   0.0000       1.247477        33.9456 
 476   0.0000       1.251632        34.0586 
 477   0.0000       1.253110        34.0989 
 478   0.0000       1.253500        34.1095 
 479   0.0000       1.255858        34.1736 
 480   0.0000       1.260586        34.3023 
 481   0.0000       1.265060        34.4240 
 482   0.0000       1.268986        34.5309 
 483   0.0000       1.270861        34.5819 
 484   0.0000       1.274401        34.6782 
 485   0.0000       1.276228        34.7279 
 486   0.0000       1.280569        34.8461 
 487   0.0000       1.283890        34.9364 
 488   0.0000       1.288852        35.0715 
 489   0.0000       1.291234        35.1363 
 490   0.0000       1.293759        35.2050 
 491   0.0000       1.300049        35.3761 
 492   0.0000       1.301603        35.4184 
 493   0.0000       1.309594        35.6359 
 494   0.0000       1.311149        35.6782 
 495   0.0000       1.314823        35.7781 
 496   0.0000       1.316062        35.8119 
 497   0.0000       1.322523        35.9877 
 498   0.0000       1.325074        36.0571 
 499   0.0000       1.329697        36.1829 
 500   0.0000       1.333729        36.2926 
 501   0.0000       1.336889        36.3786 
 502   0.0000       1.341675        36.5088 
 503   0.0000       1.347313        36.6622 
 504   0.0000       1.350679        36.7538 
 505   0.0000       1.351886        36.7867 
 506   0.0000       1.353733        36.8369 
 507   0.0000       1.358025        36.9537 
 508   0.0000       1.361686        37.0534 
 509   0.0000       1.361776        37.0558 
 510   0.0000       1.364379        37.1266 
 511   0.0000       1.366977        37.1973 
 512   0.0000       1.370266        37.2868 
[...]
      pz      :     0.022020  p :     0.079645
      px      :     0.043414
      py      :     0.014212
 77 H s       :     0.887524  s :     0.887524
      pz      :     0.047752  p :     0.079028
      px      :     0.015015
      py      :     0.016261
 78 H s       :     0.887947  s :     0.887947
      pz      :     0.025764  p :     0.078970
      px      :     0.020521
      py      :     0.032686
 79 H s       :     0.909432  s :     0.909432
      pz      :     0.021998  p :     0.086587
      px      :     0.021731
      py      :     0.042858
 80 H s       :     0.868666  s :     0.868666
      pz      :     0.039048  p :     0.084366
      px      :     0.030055
      py      :     0.015263
 81 H s       :     0.887191  s :     0.887191
      pz      :     0.037773  p :     0.083968
      px      :     0.016167
      py      :     0.030028
 82 H s       :     0.915645  s :     0.915645
      pz      :     0.022078  p :     0.086804
      px      :     0.031451
      py      :     0.033275
 83 H s       :     0.873213  s :     0.873213
      pz      :     0.039235  p :     0.084005
      px      :     0.015268
      py      :     0.029502
 84 H s       :     0.887204  s :     0.887204
      pz      :     0.035765  p :     0.083614
      px      :     0.031705
      py      :     0.016144
 85 H s       :     0.893600  s :     0.893600
      pz      :     0.022490  p :     0.079744
      px      :     0.014090
      py      :     0.043164
 86 H s       :     0.890994  s :     0.890994
      pz      :     0.024721  p :     0.078836
      px      :     0.032979
      py      :     0.021136
 87 H s       :     0.890148  s :     0.890148
      pz      :     0.047978  p :     0.078709
      px      :     0.015599
      py      :     0.015132
 88 H s       :     0.912706  s :     0.912706
      pz      :     0.021934  p :     0.086992
      px      :     0.042655
      py      :     0.022403
 89 H s       :     0.871828  s :     0.871828
      pz      :     0.037928  p :     0.083870
      px      :     0.030484
      py      :     0.015458


                      *****************************
                      * MAYER POPULATION ANALYSIS *
                      *****************************

  NA   - Mulliken gross atomic population
  ZA   - Total nuclear charge
  QA   - Mulliken gross atomic charge
  VA   - Mayer's total valence
  BVA  - Mayer's bonded valence
  FA   - Mayer's free valence

  ATOM       NA         ZA         QA         VA         BVA        FA
  0 C      5.7958     6.0000     0.2042     3.8352     3.8352     0.0000
  1 N      7.4485     7.0000    -0.4485     3.3453     3.3453    -0.0000
  2 C      6.0642     6.0000    -0.0642     3.9197     3.9197    -0.0000
  3 N      7.3365     7.0000    -0.3365     3.4522     3.4522     0.0000
  4 C      6.0632     6.0000    -0.0632     3.9847     3.9847     0.0000
  5 N      7.5611     7.0000    -0.5611     3.0904     3.0904    -0.0000
  6 C      6.0866     6.0000    -0.0866     4.0045     4.0045     0.0000
  7 N      7.3391     7.0000    -0.3391     3.4378     3.4378     0.0000
  8 C      5.7971     6.0000     0.2029     3.8353     3.8353     0.0000
  9 N      7.5628     7.0000    -0.5628     3.0818     3.0818    -0.0000
 10 C      5.8832     6.0000     0.1168     3.9022     3.9022     0.0000
 11 N      7.4373     7.0000    -0.4373     3.3845     3.3845     0.0000
 12 C      6.0751     6.0000    -0.0751     3.9176     3.9176    -0.0000
 13 N      7.4356     7.0000    -0.4356     3.3994     3.3994     0.0000
 14 C      5.7653     6.0000     0.2347     3.7848     3.7848     0.0000
 15 N      7.4411     7.0000    -0.4411     3.3704     3.3704     0.0000
 16 C      5.7685     6.0000     0.2315     3.7849     3.7849     0.0000
 17 C      6.0849     6.0000    -0.0849     4.0044     4.0044     0.0000
 18 C      6.1914     6.0000    -0.1914     3.7645     3.7645     0.0000
 19 C      5.7776     6.0000     0.2224     3.8698     3.8698     0.0000
 20 C      5.7884     6.0000     0.2116     3.8265     3.8265    -0.0000
 21 C      6.0829     6.0000    -0.0829     3.9090     3.9090    -0.0000
 22 C      6.0869     6.0000    -0.0869     3.9826     3.9826     0.0000
 23 C      6.0450     6.0000    -0.0450     3.9910     3.9910     0.0000
 24 C      5.7982     6.0000     0.2018     3.8223     3.8223     0.0000
 25 C      5.8862     6.0000     0.1138     3.8896     3.8896     0.0000
 26 C      6.0736     6.0000    -0.0736     3.9046     3.9046    -0.0000
 27 C      5.7830     6.0000     0.2170     3.8745     3.8745    -0.0000
 28 C      6.0559     6.0000    -0.0559     3.9882     3.9882     0.0000
 29 C      6.1824     6.0000    -0.1824     3.7394     3.7394     0.0000
 30 C      5.7603     6.0000     0.2397     3.7951     3.7951     0.0000
 31 C      5.7804     6.0000     0.2196     3.8235     3.8235    -0.0000
 32 C      6.0634     6.0000    -0.0634     3.9204     3.9204     0.0000
 33 C      6.0729     6.0000    -0.0729     3.9801     3.9801     0.0000
 34 C      6.0496     6.0000    -0.0496     3.9888     3.9888     0.0000
 35 C      5.7868     6.0000     0.2132     3.8216     3.8216    -0.0000
 36 C      5.8883     6.0000     0.1117     3.8847     3.8847     0.0000
 37 C      6.0656     6.0000    -0.0656     3.9176     3.9176     0.0000
 38 C      5.7646     6.0000     0.2354     3.8007     3.8007     0.0000
 39 C      6.0606     6.0000    -0.0606     3.9878     3.9878     0.0000
 40 C      6.1853     6.0000    -0.1853     3.7353     3.7353     0.0000
 41 C      5.7782     6.0000     0.2218     3.8830     3.8830     0.0000
 42 C      5.7999     6.0000     0.2001     3.8270     3.8270     0.0000
 43 C      6.0734     6.0000    -0.0734     3.9017     3.9017     0.0000
 44 C      6.0901     6.0000    -0.0901     3.9856     3.9856     0.0000
 45 C      6.0567     6.0000    -0.0567     3.9924     3.9924    -0.0000
 46 C      5.7938     6.0000     0.2062     3.8272     3.8272     0.0000
 47 C      5.8843     6.0000     0.1157     3.8939     3.8939    -0.0000
 48 C      6.0719     6.0000    -0.0719     3.9062     3.9062     0.0000
 49 C      5.7690     6.0000     0.2310     3.8887     3.8887     0.0000
 50 C      6.0500     6.0000    -0.0500     3.9905     3.9905     0.0000
 51 C      6.1914     6.0000    -0.1914     3.7370     3.7370     0.0000
 52 H      0.9530     1.0000     0.0470     0.9857     0.9857    -0.0000
 53 H      1.0152     1.0000    -0.0152     0.9987     0.9987    -0.0000
 54 H      0.9529     1.0000     0.0471     1.0085     1.0085    -0.0000
 55 H      0.9537     1.0000     0.0463     0.9861     0.9861    -0.0000
 56 H      0.9460     1.0000     0.0540     0.9706     0.9706     0.0000
 57 H      0.9478     1.0000     0.0522     0.9827     0.9827     0.0000
 58 H      0.9486     1.0000     0.0514     0.9857     0.9857    -0.0000
 59 H      1.0062     1.0000    -0.0062     1.0013     1.0013    -0.0000
 60 H      0.9552     1.0000     0.0448     1.0115     1.0115     0.0000
 61 H      0.8282     1.0000     0.1718     1.0421     1.0421     0.0000
 62 H      0.8258     1.0000     0.1742     1.0435     1.0435    -0.0000
 63 H      0.9429     1.0000     0.0571     0.9853     0.9853     0.0000
 64 H      1.0135     1.0000    -0.0135     0.9964     0.9964    -0.0000
 65 H      0.9531     1.0000     0.0469     1.0095     1.0095     0.0000
 66 H      0.9425     1.0000     0.0575     0.9851     0.9851    -0.0000
 67 H      0.9365     1.0000     0.0635     0.9720     0.9720     0.0000
 68 H      0.9418     1.0000     0.0582     0.9868     0.9868    -0.0000
 69 H      0.9416     1.0000     0.0584     0.9830     0.9830    -0.0000
 70 H      1.0263     1.0000    -0.0263     0.9932     0.9932    -0.0000
 71 H      0.9524     1.0000     0.0476     1.0063     1.0063     0.0000
 72 H      0.9374     1.0000     0.0626     0.9844     0.9844    -0.0000
 73 H      1.0115     1.0000    -0.0115     0.9995     0.9995    -0.0000
 74 H      0.9476     1.0000     0.0524     1.0101     1.0101     0.0000
 75 H      0.9383     1.0000     0.0617     0.9849     0.9849    -0.0000
 76 H      0.9327     1.0000     0.0673     0.9719     0.9719    -0.0000
 77 H      0.9378     1.0000     0.0622     0.9853     0.9853    -0.0000
 78 H      0.9387     1.0000     0.0613     0.9850     0.9850    -0.0000
 79 H      1.0146     1.0000    -0.0146     0.9988     0.9988    -0.0000
 80 H      0.9472     1.0000     0.0528     1.0071     1.0071    -0.0000
 81 H      0.9464     1.0000     0.0536     0.9856     0.9856     0.0000
 82 H      1.0245     1.0000    -0.0245     0.9937     0.9937     0.0000
 83 H      0.9581     1.0000     0.0419     1.0089     1.0089     0.0000
 84 H      0.9470     1.0000     0.0530     0.9854     0.9854     0.0000
 85 H      0.9407     1.0000     0.0593     0.9716     0.9716     0.0000
 86 H      0.9444     1.0000     0.0556     0.9839     0.9839     0.0000
 87 H      0.9433     1.0000     0.0567     0.9856     0.9856    -0.0000
 88 H      1.0189     1.0000    -0.0189     0.9954     0.9954    -0.0000
 89 H      0.9543     1.0000     0.0457     1.0069     1.0069     0.0000

  Mayer bond orders larger than 0.100000
B(  0-C ,  1-N ) :   1.1000 B(  0-C , 17-C ) :   1.6716 B(  0-C , 52-H ) :   0.9689 
B(  1-N ,  8-C ) :   1.0978 B(  1-N , 10-C ) :   0.9708 B(  2-C , 12-C ) :   1.5260 
B(  2-C , 16-C ) :   1.3361 B(  2-C , 53-H ) :   0.9773 B(  3-N , 14-C ) :   1.2109 
B(  3-N , 16-C ) :   1.1937 B(  3-N , 61-H ) :   0.8990 B(  4-C ,  6-C ) :   1.2341 
B(  4-C , 17-C ) :   1.2358 B(  4-C , 18-C ) :   1.3481 B(  5-N , 19-C ) :   1.4362 
B(  5-N , 27-C ) :   1.3927 B(  6-C ,  8-C ) :   1.6727 B(  6-C , 54-H ) :   0.9691 
B(  7-N , 30-C ) :   1.1932 B(  7-N , 38-C ) :   1.1977 B(  7-N , 62-H ) :   0.8975 
B(  8-C , 55-H ) :   0.9699 B(  9-N , 41-C ) :   1.4000 B(  9-N , 49-C ) :   1.4226 
B( 10-C , 56-H ) :   0.9764 B( 10-C , 57-H ) :   0.9828 B( 10-C , 58-H ) :   0.9832 
B( 11-N , 20-C ) :   1.1294 B( 11-N , 24-C ) :   1.1183 B( 11-N , 25-C ) :   0.9579 
B( 12-C , 14-C ) :   1.3388 B( 12-C , 59-H ) :   0.9757 B( 13-N , 31-C ) :   1.1400 
B( 13-N , 35-C ) :   1.1331 B( 13-N , 36-C ) :   0.9522 B( 14-C , 18-C ) :   1.1677 
B( 15-N , 42-C ) :   1.1110 B( 15-N , 46-C ) :   1.1176 B( 15-N , 47-C ) :   0.9624 
B( 16-C , 51-C ) :   1.1882 B( 17-C , 60-H ) :   0.9690 B( 18-C , 19-C ) :   1.1775 
B( 19-C , 21-C ) :   1.2265 B( 20-C , 28-C ) :   1.6230 B( 20-C , 63-H ) :   0.9702 
B( 21-C , 26-C ) :   1.6314 B( 21-C , 64-H ) :   0.9721 B( 22-C , 23-C ) :   1.2884 
B( 22-C , 28-C ) :   1.2723 B( 22-C , 29-C ) :   1.2223 B( 23-C , 24-C ) :   1.6163 
B( 23-C , 65-H ) :   0.9707 B( 24-C , 66-H ) :   0.9692 B( 25-C , 67-H ) :   0.9761 
B( 25-C , 68-H ) :   0.9828 B( 25-C , 69-H ) :   0.9822 B( 26-C , 27-C ) :   1.2213 
B( 26-C , 70-H ) :   0.9723 B( 27-C , 29-C ) :   1.2233 B( 28-C , 71-H ) :   0.9716 
B( 29-C , 30-C ) :   1.2266 B( 30-C , 32-C ) :   1.2971 B( 31-C , 39-C ) :   1.6132 
B( 31-C , 72-H ) :   0.9690 B( 32-C , 37-C ) :   1.5616 B( 32-C , 73-H ) :   0.9781 
B( 33-C , 34-C ) :   1.2893 B( 33-C , 39-C ) :   1.2820 B( 33-C , 40-C ) :   1.2174 
B( 34-C , 35-C ) :   1.6098 B( 34-C , 74-H ) :   0.9701 B( 35-C , 75-H ) :   0.9691 
B( 36-C , 76-H ) :   0.9765 B( 36-C , 77-H ) :   0.9819 B( 36-C , 78-H ) :   0.9828 
B( 37-C , 38-C ) :   1.2997 B( 37-C , 79-H ) :   0.9773 B( 38-C , 40-C ) :   1.2200 
B( 39-C , 80-H ) :   0.9712 B( 40-C , 41-C ) :   1.2313 B( 41-C , 43-C ) :   1.2038 
B( 42-C , 50-C ) :   1.6348 B( 42-C , 81-H ) :   0.9696 B( 43-C , 48-C ) :   1.6477 
B( 43-C , 82-H ) :   0.9730 B( 44-C , 45-C ) :   1.2662 B( 44-C , 50-C ) :   1.2682 
B( 44-C , 51-C ) :   1.2608 B( 45-C , 46-C ) :   1.6350 B( 45-C , 83-H ) :   0.9715 
B( 46-C , 84-H ) :   0.9702 B( 47-C , 85-H ) :   0.9761 B( 47-C , 86-H ) :   0.9829 
B( 47-C , 87-H ) :   0.9825 B( 48-C , 49-C ) :   1.2055 B( 48-C , 88-H ) :   0.9743 
B( 49-C , 51-C ) :   1.2250 B( 50-C , 89-H ) :   0.9711 

-------
TIMINGS
-------

Total SCF time: 0 days 0 hours 29 min 19 sec 

Total time                  ....    1759.756 sec
Sum of individual times     ....    1755.224 sec  ( 99.7%)

Fock matrix formation       ....    1733.093 sec  ( 98.5%)
Diagonalization             ....       6.901 sec  (  0.4%)
Density matrix formation    ....       0.619 sec  (  0.0%)
Population analysis         ....       0.525 sec  (  0.0%)
Initial guess               ....       2.058 sec  (  0.1%)
Orbital Transformation      ....       0.000 sec  (  0.0%)
Orbital Orthonormalization  ....       0.000 sec  (  0.0%)
DIIS solution               ....       3.495 sec  (  0.2%)
SOSCF solution              ....       7.466 sec  (  0.4%)

Maximum memory used throughout the entire SCF-calculation: 302.6 MB


           ************************************************************
           *        Program running with 16 parallel MPI-processes    *
           *              working on a common directory               *
           ************************************************************

------------------------------------------------------------------------------
                                ORCA  MP2 
------------------------------------------------------------------------------

Freezing NCore=104 chemical core electrons

----------
MP2 ENERGY (disk based algorithm)
----------

Dimension of the basis                    ...  918
Memory devoted to MP2                     ... 2000 MB   
Data format for buffers                   ... DOUBLE
Compression type for matrix containers    ... UNCOMPRESSED

-------------------------------
PARTIAL EXCHANGE TRANSFORMATION
-------------------------------

Transformation type                        ... one-operator
Generation of integrals (i,mue|j,nue)      ... ON
Generation of integrals (mue,kappa|nue,tau)... OFF
Generation of integrals (i,mue|a,nue)      ... OFF
Dimension of the basis                     ...  918
Number of internal MOs                     ...  127 (  52- 178)
Pair cutoff                                ... 2.500e-12 Eh
Number of AO pairs in the trafo            ... 421821
Total Number of distinct AO pairs          ... 421821
Memory devoted for trafo                   ... 2000.0 MB 
Max. Number of MO pairs treated together   ...  311      
Number Format for Storage                  ... Double (8 Byte)
Integral package used                      ... LIBINT

Starting integral evaluation:
    ... done with AO integral generation
Closing buffer AOK     (38.22 GB; CompressionRatio= 1.33)
Collecting buffer AOK 
Number of MO pairs included in the trafo   ... 8128
------------------------
SORTING OF (i,mue|j,nue)
------------------------

IBATCH = 1 of  2
IBATCH = 2 of  2
Closing buffer KAO     (51.03 GB; CompressionRatio= 1.00)
Collecting buffer KAO 
N(AO-Batches) Done                         ...  85534422 
N(AO-Batches) Skipped                      ...  82281241 
N(IJ)-pairs Skipped                        ...         0 
TOTAL TIME for half transformation         ...  3048.078 sec
AO-integral generation                     ...   210.681 sec
Half transformation                        ...   370.369 sec
K-integral sorting                         ...  2291.863 sec
Process 10:   Internal MO 132
Process 13:   Internal MO 156
Process  4:   Internal MO  84

Finished integral transformation - now doing MP2 part

Process  1:   Internal MO  60
OPERATOR COMBINATION   0   0: ij=( 52..178, 52..178)
Process  7:   Internal MO 108
Process  0:   Internal MO  54
Process  2:   Internal MO  69
Process  0:   Internal MO  57
Process  1:   Internal MO  63
Process  5:   Internal MO  93
Process 11:   Internal MO 141
Process  3:   Internal MO  78
Process  8:   Internal MO 117
Process  1:   Internal MO  66
Process  2:   Internal MO  72
Process  6:   Internal MO 102
Process  4:   Internal MO  87
Process 14:   Internal MO 165
Process  5:   Internal MO  96
Process  2:   Internal MO  75
Process  3:   Internal MO  81
Process  9:   Internal MO 126
Process  7:   Internal MO 111
Process 12:   Internal MO 150
Process  4:   Internal MO  90
Process  5:   Internal MO  99
Process 15:   Internal MO 174
Process 10:   Internal MO 135
Process  6:   Internal MO 105
Process  8:   Internal MO 120
Process 11:   Internal MO 144
Process 13:   Internal MO 159
Process  7:   Internal MO 114
Process  9:   Internal MO 129
Process 14:   Internal MO 168
Process  8:   Internal MO 123
Process 12:   Internal MO 153
Process 10:   Internal MO 138
Process 11:   Internal MO 147
Process 15:   Internal MO 177
Process 13:   Internal MO 162
Process 14:   Internal MO 171
-----------------------------------------------
 MP2 CORRELATION ENERGY   :     -7.286571786 Eh
-----------------------------------------------


-------
TIMINGS
-------
Total time                : 3584.589 sec
Integral trafo            : 3050.194 sec ( 85.1%)
K(i,j)                    :    6.946 sec (  0.2%)
T(i,j)                    :    0.098 sec (  0.0%)

---------------------------------------
MP2 TOTAL ENERGY:    -2130.915856451 Eh
---------------------------------------

Maximum memory used throughout the entire MP2-calculation: 2275.2 MB

-------------------------   --------------------
FINAL SINGLE POINT ENERGY     -2130.915856450674
-------------------------   --------------------


                            ***************************************
                            *     ORCA property calculations      *
                            ***************************************


  WARNING: The energy has been calculated at the MP2 level but the densities
           used in the property calculations are still SCF densities
           MP2 response densities have not been calculated 
           use %mp2 Density relaxed end
           or  %mp2 Density unrelaxed end

                                    ---------------------
                                    Active property flags
                                    ---------------------
   (+) Dipole Moment


------------------------------------------------------------------------------
                       ORCA ELECTRIC PROPERTIES CALCULATION
------------------------------------------------------------------------------

Dipole Moment Calculation                       ... on
Quadrupole Moment Calculation                   ... off
Polarizability Calculation                      ... off
GBWName                                         ... /scratch/allen/tmpyp4_amber_gaff2/conf1/conf1/Conf130.orca.gbw
Electron density                                ... /scratch/allen/tmpyp4_amber_gaff2/conf1/conf1/Conf130.orca.scfp
The origin for moment calculation is the CENTER OF MASS  = ( 0.002988, -0.002028  0.002784)

-------------
DIPOLE MOMENT
-------------
                                X             Y             Z
Electronic contribution:      0.86273      -2.40455      -0.21634
Nuclear contribution   :      0.01503       0.19485       0.22797
                        -----------------------------------------
Total Dipole Moment    :      0.87776      -2.20970       0.01163
                        -----------------------------------------
Magnitude (a.u.)       :      2.37768
Magnitude (Debye)      :      6.04358



--------------------
Rotational spectrum 
--------------------
 
Rotational constants in cm-1:     0.001499     0.001476     0.000762 
Rotational constants in MHz :    44.929922    44.236072    22.834417 

 Dipole components along the rotational axes: 
x,y,z [a.u.] :     1.531093    -1.819030     0.015478 
x,y,z [Debye]:     3.891729    -4.623606     0.039342 

 

Timings for individual modules:

Sum of individual times         ...     5372.060 sec (=  89.534 min)
GTO integral calculation        ...        3.290 sec (=   0.055 min)   0.1 %
SCF iterations                  ...     1760.876 sec (=  29.348 min)  32.8 %
MP2 module                      ...     3607.894 sec (=  60.132 min)  67.2 %
                             ****ORCA TERMINATED NORMALLY****
TOTAL RUN TIME: 0 days 1 hours 29 minutes 35 seconds 501 msec
# of primitive gaussian functions

