
                                 *****************
                                 * O   R   C   A *
                                 *****************

                                            #,                                       
                                            ###                                      
                                            ####                                     
                                            #####                                    
                                            ######                                   
                                           ########,                                 
                                     ,,################,,,,,                         
                               ,,#################################,,                 
                          ,,##########################################,,             
                       ,#########################################, ''#####,          
                    ,#############################################,,   '####,        
                  ,##################################################,,,,####,       
                ,###########''''           ''''###############################       
              ,#####''   ,,,,##########,,,,          '''####'''          '####       
            ,##' ,,,,###########################,,,                        '##       
           ' ,,###''''                  '''############,,,                           
         ,,##''                                '''############,,,,        ,,,,,,###''
      ,#''                                            '''#######################'''  
     '                                                          ''''####''''         
             ,#######,   #######,   ,#######,      ##                                
            ,#'     '#,  ##    ##  ,#'     '#,    #''#        ######   ,####,        
            ##       ##  ##   ,#'  ##            #'  '#       #        #'  '#        
            ##       ##  #######   ##           ,######,      #####,   #    #        
            '#,     ,#'  ##    ##  '#,     ,#' ,#      #,         ##   #,  ,#        
             '#######'   ##     ##  '#######'  #'      '#     #####' # '####'        



                  #######################################################
                  #                        -***-                        #
                  #          Department of theory and spectroscopy      #
                  #    Directorship and core code : Frank Neese         #
                  #        Max Planck Institute fuer Kohlenforschung    #
                  #                Kaiser Wilhelm Platz 1               #
                  #                 D-45470 Muelheim/Ruhr               #
                  #                      Germany                        #
                  #                                                     #
                  #                  All rights reserved                #
                  #                        -***-                        #
                  #######################################################


                         Program Version 5.0.4 -  RELEASE  -


 With contributions from (in alphabetic order):
   Daniel Aravena         : Magnetic Suceptibility
   Michael Atanasov       : Ab Initio Ligand Field Theory (pilot matlab implementation)
   Alexander A. Auer      : GIAO ZORA, VPT2 properties, NMR spectrum
   Ute Becker             : Parallelization
   Giovanni Bistoni       : ED, misc. LED, open-shell LED, HFLD
   Martin Brehm           : Molecular dynamics
   Dmytro Bykov           : SCF Hessian
   Vijay G. Chilkuri      : MRCI spin determinant printing, contributions to CSF-ICE
   Dipayan Datta          : RHF DLPNO-CCSD density
   Achintya Kumar Dutta   : EOM-CC, STEOM-CC
   Dmitry Ganyushin       : Spin-Orbit,Spin-Spin,Magnetic field MRCI
   Miquel Garcia          : C-PCM and meta-GGA Hessian, CC/C-PCM, Gaussian charge scheme
   Yang Guo               : DLPNO-NEVPT2, F12-NEVPT2, CIM, IAO-localization
   Andreas Hansen         : Spin unrestricted coupled pair/coupled cluster methods
   Benjamin Helmich-Paris : MC-RPA, TRAH-SCF, COSX integrals
   Lee Huntington         : MR-EOM, pCC
   Robert Izsak           : Overlap fitted RIJCOSX, COSX-SCS-MP3, EOM
   Marcus Kettner         : VPT2
   Christian Kollmar      : KDIIS, OOCD, Brueckner-CCSD(T), CCSD density, CASPT2, CASPT2-K
   Simone Kossmann        : Meta GGA functionals, TD-DFT gradient, OOMP2, MP2 Hessian
   Martin Krupicka        : Initial AUTO-CI
   Lucas Lang             : DCDCAS
   Marvin Lechner         : AUTO-CI (C++ implementation), FIC-MRCC
   Dagmar Lenk            : GEPOL surface, SMD
   Dimitrios Liakos       : Extrapolation schemes; Compound Job, initial MDCI parallelization
   Dimitrios Manganas     : Further ROCIS development; embedding schemes
   Dimitrios Pantazis     : SARC Basis sets
   Anastasios Papadopoulos: AUTO-CI, single reference methods and gradients
   Taras Petrenko         : DFT Hessian,TD-DFT gradient, ASA, ECA, R-Raman, ABS, FL, XAS/XES, NRVS
   Peter Pinski           : DLPNO-MP2, DLPNO-MP2 Gradient
   Christoph Reimann      : Effective Core Potentials
   Marius Retegan         : Local ZFS, SOC
   Christoph Riplinger    : Optimizer, TS searches, QM/MM, DLPNO-CCSD(T), (RO)-DLPNO pert. Triples
   Tobias Risthaus        : Range-separated hybrids, TD-DFT gradient, RPA, STAB
   Michael Roemelt        : Original ROCIS implementation
   Masaaki Saitow         : Open-shell DLPNO-CCSD energy and density
   Barbara Sandhoefer     : DKH picture change effects
   Avijit Sen             : IP-ROCIS
   Kantharuban Sivalingam : CASSCF convergence, NEVPT2, FIC-MRCI
   Bernardo de Souza      : ESD, SOC TD-DFT
   Georgi Stoychev        : AutoAux, RI-MP2 NMR, DLPNO-MP2 response
   Willem Van den Heuvel  : Paramagnetic NMR
   Boris Wezisla          : Elementary symmetry handling
   Frank Wennmohs         : Technical directorship


 We gratefully acknowledge several colleagues who have allowed us to
 interface, adapt or use parts of their codes:
   Stefan Grimme, W. Hujo, H. Kruse, P. Pracht,  : VdW corrections, initial TS optimization,
                  C. Bannwarth, S. Ehlert          DFT functionals, gCP, sTDA/sTD-DF
   Ed Valeev, F. Pavosevic, A. Kumar             : LibInt (2-el integral package), F12 methods
   Garnet Chan, S. Sharma, J. Yang, R. Olivares  : DMRG
   Ulf Ekstrom                                   : XCFun DFT Library
   Mihaly Kallay                                 : mrcc  (arbitrary order and MRCC methods)
   Jiri Pittner, Ondrej Demel                    : Mk-CCSD
   Frank Weinhold                                : gennbo (NPA and NBO analysis)
   Christopher J. Cramer and Donald G. Truhlar   : smd solvation model
   Lars Goerigk                                  : TD-DFT with DH, B97 family of functionals
   V. Asgeirsson, H. Jonsson                     : NEB implementation
   FAccTs GmbH                                   : IRC, NEB, NEB-TS, DLPNO-Multilevel, CI-OPT
                                                   MM, QMMM, 2- and 3-layer-ONIOM, Crystal-QMMM,
                                                   LR-CPCM, SF, NACMEs, symmetry and pop. for TD-DFT,
                                                   nearIR, NL-DFT gradient (VV10), updates on ESD,
                                                   ML-optimized integration grids
   S Lehtola, MJT Oliveira, MAL Marques          : LibXC Library
   Liviu Ungur et al                             : ANISO software


 Your calculation uses the libint2 library for the computation of 2-el integrals
 For citations please refer to: http://libint.valeyev.net

 Your ORCA version has been built with support for libXC version: 5.1.0
 For citations please refer to: https://tddft.org/programs/libxc/

 This ORCA versions uses:
   CBLAS   interface :  Fast vector & matrix operations
   LAPACKE interface :  Fast linear algebra routines
   SCALAPACK package :  Parallel linear algebra routines
   Shared memory     :  Shared parallel matrices
   BLAS/LAPACK       :  OpenBLAS 0.3.15  USE64BITINT DYNAMIC_ARCH NO_AFFINITY Sandybridge SINGLE_THREADED
        Core in use  :  Sandybridge
   Copyright (c) 2011-2014, The OpenBLAS Project


================================================================================

----- Orbital basis set information -----
Your calculation utilizes the basis: cc-pVDZ 
       H, B-Ne : Obtained from the ccRepo (grant-hill.group.shef.ac.uk/ccrepo) Feb. 2017
                 T. H. Dunning, Jr., J. Chem. Phys. 90, 1007 (1989)
            He : Obtained from the ccRepo (grant-hill.group.shef.ac.uk/ccrepo) Feb. 2017
                 D. E. Woon, T. H. Dunning, Jr., J. Chem. Phys. 100, 2975 (1994)
  Li-Be, Na-Mg : Obtained from the ccRepo (grant-hill.group.shef.ac.uk/ccrepo) Feb. 2017
                 B. P. Prascher, D. E. Woon, K. A. Peterson, T. H. Dunning, Jr., A. K. Wilson, Theor. Chem. Acc. 128, 69 (2011)
         Al-Ar : Obtained from the ccRepo (grant-hill.group.shef.ac.uk/ccrepo) Feb. 2017
                 D. E. Woon, T. H. Dunning, Jr., J. Chem. Phys. 98, 1358 (1993)
            Ca : Obtained from the Peterson Research Group Website (tyr0.chem.wsu.edu/~kipeters) Feb. 2017
                 J. Koput, K. A. Peterson, J. Phys. Chem. 106, 9595 (2002)
         Sc-Zn : Obtained from the ccRepo (grant-hill.group.shef.ac.uk/ccrepo) Feb. 2017
                 N. B. Balabanov, K. A. Peterson, J. Chem. Phys. 123, 064107 (2005)
                 N. B. Balabanov, K. A. Peterson, J. Chem. Phys. 125, 074110 (2006)
         Ga-Kr : Obtained from the ccRepo (grant-hill.group.shef.ac.uk/ccrepo) Feb. 2017
                 A. K. Wilson, D. E. Woon, K. A. Peterson, T. H. Dunning, Jr., J. Chem. Phys. 110, 7667 (1999)

================================================================================
                                        WARNINGS
                       Please study these warnings very carefully!
================================================================================


WARNING: No MP2 level density has been requested!
         To caclulate MP2 level properties use
         %mp2 Density relaxed end
         or
         %mp2 Density unrelaxed end

WARNING: Post HF methods need fully converged wavefunctions
  ===> : Setting SCFConvForced true
         You can overwrite this default with %scf ConvForced false 


INFO   : the flag for use of the SHARK integral package has been found!

================================================================================
                                       INPUT FILE
================================================================================
NAME = /scratch/allen/tmpyp4_amber_gaff2/2.Mdgx/conf11/conf11/Conf87.orca
|  1> ! PAL2
|  2> ! mp2 cc-pvdz TightSCF  NoKeepInts
|  3> 
|  4> %scf
|  5>   MaxCore 2000
|  6> end
|  7> %mp2
|  8>   MaxCore 2000
|  9> end
| 10> * xyz 0 1
| 11>    C       -3.90400         5.92400        -1.07300
| 12>    C        1.47400         4.04100         0.05700
| 13>    C       -2.80200         4.09300         0.04900
| 14>    C       -3.28900         4.60900         1.26000
| 15>    C       -4.06200         5.75300         1.26500
| 16>    C       -5.22000         7.59700         0.14700
| 17>    C        0.13200         4.30700         0.06100
| 18>    C       -0.56900         3.05600         0.04700
| 19>    C        1.64900         2.61800         0.02300
| 20>    C       -3.13100         4.78000        -1.13000
| 21>    N       -4.35700         6.39500         0.11100
| 22>    N        0.38800         2.06700         0.02500
| 23>    N       -2.01000         0.39500        -0.07500
| 24>    N       -0.38800        -2.07400        -0.02700
| 25>    N        2.01000        -0.40100         0.06500
| 26>    C       -1.96000         2.86100         0.02400
| 27>    C       -2.62300         1.61500        -0.01800
| 28>    C       -5.57300        -4.32900         1.06600
| 29>    C       -4.07300         1.47100         0.05600
| 30>    C       -4.10600        -2.75600        -0.02600
| 31>    C       -4.99500        -2.75700        -1.11100
| 32>    C       -6.13200        -3.54200        -1.07600
| 33>    C       -7.65100        -5.11300         0.04000
| 34>    C       -4.32400         0.14100         0.03700
| 35>    C       -3.02500        -0.52000        -0.04800
| 36>    C       -4.42200        -3.56600         1.07500
| 37>    N       -6.40700        -4.31300         0.00100
| 38>    C       -2.86700        -1.92200        -0.04000
| 39>    C       -1.65000        -2.62400        -0.02700
| 40>    C        3.56800        -6.14200        -1.04000
| 41>    C       -1.47600        -4.04900        -0.03400
| 42>    C        2.80300        -4.09900        -0.00800
| 43>    C        3.65700        -4.38400         1.06900
| 44>    C        4.42700        -5.53000         1.05900
| 45>    C        5.24500        -7.58800         0.01400
| 46>    C       -0.13400        -4.31500        -0.02200
| 47>    C        0.56800        -3.06400        -0.02700
| 48>    C        2.77500        -5.01200        -1.07400
| 49>    N        4.37600        -6.39100         0.01700
| 50>    C        1.95900        -2.86900        -0.00900
| 51>    C        2.62100        -1.62200         0.00900
| 52>    C        5.54300         4.33900        -1.13000
| 53>    C        4.07000        -1.47900        -0.09400
| 54>    C        4.10400         2.75100        -0.02100
| 55>    C        5.02700         2.72900         1.03600
| 56>    C        6.16600         3.50900         0.97800
| 57>    C        7.61900         5.15300        -0.11500
| 58>    C        4.32100        -0.14800        -0.09200
| 59>    C        3.02500         0.51400         0.01500
| 60>    C        4.38700         3.58200        -1.11500
| 61>    C        2.86600         1.91600         0.01300
| 62>    N        6.41300         4.29600        -0.09500
| 63>    H       -4.17200         6.49200        -1.95500
| 64>    H        2.27400         4.76600         0.08100
| 65>    H       -3.07700         4.11800         2.20200
| 66>    H       -4.46700         6.18300         2.17200
| 67>    H       -6.26600         7.28400         0.11800
| 68>    H       -5.01700         8.14700         1.06600
| 69>    H       -4.99100         8.21800        -0.71900
| 70>    H       -0.33200         5.28200         0.06900
| 71>    H       -2.77400         4.43900        -2.09500
| 72>    H        0.18200         1.07200         0.00500
| 73>    H       -0.18300        -1.08000        -0.02100
| 74>    H       -5.86400        -4.96200         1.89500
| 75>    H       -4.79400         2.27200         0.13900
| 76>    H       -4.80000        -2.16000        -1.99400
| 77>    H       -6.84100        -3.58200        -1.89300
| 78>    H       -8.42800        -4.53600         0.54600
| 79>    H       -7.95600        -5.33700        -0.98100
| 80>    H       -7.45600        -6.03700         0.58400
| 81>    H       -5.28700        -0.34400         0.10000
| 82>    H       -3.78000        -3.60100         1.94700
| 83>    H        3.58700        -6.86800        -1.84300
| 84>    H       -2.27600        -4.77400        -0.05000
| 85>    H        3.71400        -3.72400         1.92600
| 86>    H        5.09200        -5.79500         1.87100
| 87>    H        6.20500        -7.32900        -0.43900
| 88>    H        5.39300        -7.91700         1.04200
| 89>    H        4.75900        -8.37300        -0.56400
| 90>    H        0.32900        -5.29000        -0.00800
| 91>    H        2.14600        -4.84200        -1.94000
| 92>    H        5.80800         4.98600        -1.95600
| 93>    H        4.78800        -2.28100        -0.18500
| 94>    H        4.86000         2.11400         1.91200
| 95>    H        6.90100         3.53100         1.77200
| 96>    H        7.38300         6.10900         0.35600
| 97>    H        8.41400         4.65200         0.43500
| 98>    H        7.92100         5.31000        -1.15000
| 99>    H        5.28300         0.33600        -0.17900
|100>    H        3.72000         3.63200        -1.96700
|101> *
|102> 
|103>                          ****END OF INPUT****
================================================================================

                       ****************************
                       * Single Point Calculation *
                       ****************************

---------------------------------
CARTESIAN COORDINATES (ANGSTROEM)
---------------------------------
  C     -3.904000    5.924000   -1.073000
  C      1.474000    4.041000    0.057000
  C     -2.802000    4.093000    0.049000
  C     -3.289000    4.609000    1.260000
  C     -4.062000    5.753000    1.265000
  C     -5.220000    7.597000    0.147000
  C      0.132000    4.307000    0.061000
  C     -0.569000    3.056000    0.047000
  C      1.649000    2.618000    0.023000
  C     -3.131000    4.780000   -1.130000
  N     -4.357000    6.395000    0.111000
  N      0.388000    2.067000    0.025000
  N     -2.010000    0.395000   -0.075000
  N     -0.388000   -2.074000   -0.027000
  N      2.010000   -0.401000    0.065000
  C     -1.960000    2.861000    0.024000
  C     -2.623000    1.615000   -0.018000
  C     -5.573000   -4.329000    1.066000
  C     -4.073000    1.471000    0.056000
  C     -4.106000   -2.756000   -0.026000
  C     -4.995000   -2.757000   -1.111000
  C     -6.132000   -3.542000   -1.076000
  C     -7.651000   -5.113000    0.040000
  C     -4.324000    0.141000    0.037000
  C     -3.025000   -0.520000   -0.048000
  C     -4.422000   -3.566000    1.075000
  N     -6.407000   -4.313000    0.001000
  C     -2.867000   -1.922000   -0.040000
  C     -1.650000   -2.624000   -0.027000
  C      3.568000   -6.142000   -1.040000
  C     -1.476000   -4.049000   -0.034000
  C      2.803000   -4.099000   -0.008000
  C      3.657000   -4.384000    1.069000
  C      4.427000   -5.530000    1.059000
  C      5.245000   -7.588000    0.014000
  C     -0.134000   -4.315000   -0.022000
  C      0.568000   -3.064000   -0.027000
  C      2.775000   -5.012000   -1.074000
  N      4.376000   -6.391000    0.017000
  C      1.959000   -2.869000   -0.009000
  C      2.621000   -1.622000    0.009000
  C      5.543000    4.339000   -1.130000
  C      4.070000   -1.479000   -0.094000
  C      4.104000    2.751000   -0.021000
  C      5.027000    2.729000    1.036000
  C      6.166000    3.509000    0.978000
  C      7.619000    5.153000   -0.115000
  C      4.321000   -0.148000   -0.092000
  C      3.025000    0.514000    0.015000
  C      4.387000    3.582000   -1.115000
  C      2.866000    1.916000    0.013000
  N      6.413000    4.296000   -0.095000
  H     -4.172000    6.492000   -1.955000
  H      2.274000    4.766000    0.081000
  H     -3.077000    4.118000    2.202000
  H     -4.467000    6.183000    2.172000
  H     -6.266000    7.284000    0.118000
  H     -5.017000    8.147000    1.066000
  H     -4.991000    8.218000   -0.719000
  H     -0.332000    5.282000    0.069000
  H     -2.774000    4.439000   -2.095000
  H      0.182000    1.072000    0.005000
  H     -0.183000   -1.080000   -0.021000
  H     -5.864000   -4.962000    1.895000
  H     -4.794000    2.272000    0.139000
  H     -4.800000   -2.160000   -1.994000
  H     -6.841000   -3.582000   -1.893000
  H     -8.428000   -4.536000    0.546000
  H     -7.956000   -5.337000   -0.981000
  H     -7.456000   -6.037000    0.584000
  H     -5.287000   -0.344000    0.100000
  H     -3.780000   -3.601000    1.947000
  H      3.587000   -6.868000   -1.843000
  H     -2.276000   -4.774000   -0.050000
  H      3.714000   -3.724000    1.926000
  H      5.092000   -5.795000    1.871000
  H      6.205000   -7.329000   -0.439000
  H      5.393000   -7.917000    1.042000
  H      4.759000   -8.373000   -0.564000
  H      0.329000   -5.290000   -0.008000
  H      2.146000   -4.842000   -1.940000
  H      5.808000    4.986000   -1.956000
  H      4.788000   -2.281000   -0.185000
  H      4.860000    2.114000    1.912000
  H      6.901000    3.531000    1.772000
  H      7.383000    6.109000    0.356000
  H      8.414000    4.652000    0.435000
  H      7.921000    5.310000   -1.150000
  H      5.283000    0.336000   -0.179000
  H      3.720000    3.632000   -1.967000

----------------------------
CARTESIAN COORDINATES (A.U.)
----------------------------
  NO LB      ZA    FRAG     MASS         X           Y           Z
   0 C     6.0000    0    12.011   -7.377491   11.194738   -2.027676
   1 C     6.0000    0    12.011    2.785456    7.636383    0.107714
   2 C     6.0000    0    12.011   -5.295013    7.734649    0.092597
   3 C     6.0000    0    12.011   -6.215309    8.709748    2.381055
   4 C     6.0000    0    12.011   -7.676068   10.871594    2.390504
   5 C     6.0000    0    12.011   -9.864370   14.356249    0.277790
   6 C     6.0000    0    12.011    0.249444    8.139050    0.115273
   7 C     6.0000    0    12.011   -1.075254    5.775003    0.088817
   8 C     6.0000    0    12.011    3.116158    4.947303    0.043464
   9 C     6.0000    0    12.011   -5.916733    9.032891   -2.135391
  10 N     7.0000    0    14.007   -8.233537   12.084799    0.209760
  11 N     7.0000    0    14.007    0.733214    3.906064    0.047243
  12 N     7.0000    0    14.007   -3.798350    0.746442   -0.141729
  13 N     7.0000    0    14.007   -0.733214   -3.919292   -0.051023
  14 N     7.0000    0    14.007    3.798350   -0.757780    0.122832
  15 C     6.0000    0    12.011   -3.703863    5.406506    0.045353
  16 C     6.0000    0    12.011   -4.956752    3.051908   -0.034015
  17 C     6.0000    0    12.011  -10.531444   -8.180624    2.014448
  18 C     6.0000    0    12.011   -7.696855    2.779787    0.105825
  19 C     6.0000    0    12.011   -7.759216   -5.208085   -0.049133
  20 C     6.0000    0    12.011   -9.439182   -5.209975   -2.099486
  21 C     6.0000    0    12.011  -11.587801   -6.693410   -2.033345
  22 C     6.0000    0    12.011  -14.458295   -9.662170    0.075589
  23 C     6.0000    0    12.011   -8.171176    0.266451    0.069920
  24 C     6.0000    0    12.011   -5.716422   -0.982658   -0.090707
  25 C     6.0000    0    12.011   -8.356369   -6.738763    2.031456
  26 N     7.0000    0    14.007  -12.107475   -8.150389    0.001890
  27 C     6.0000    0    12.011   -5.417845   -3.632054   -0.075589
  28 C     6.0000    0    12.011   -3.118048   -4.958641   -0.051023
  29 C     6.0000    0    12.011    6.742543  -11.606698   -1.965315
  30 C     6.0000    0    12.011   -2.789236   -7.651501   -0.064251
  31 C     6.0000    0    12.011    5.296902   -7.745987   -0.015118
  32 C     6.0000    0    12.011    6.910728   -8.284559    2.020117
  33 C     6.0000    0    12.011    8.365818  -10.450186    2.001220
  34 C     6.0000    0    12.011    9.911614  -14.339242    0.026456
  35 C     6.0000    0    12.011   -0.253223   -8.154168   -0.041574
  36 C     6.0000    0    12.011    1.073364   -5.790121   -0.051023
  37 C     6.0000    0    12.011    5.243990   -9.471307   -2.029566
  38 N     7.0000    0    14.007    8.269442  -12.077240    0.032125
  39 C     6.0000    0    12.011    3.701973   -5.421624   -0.017008
  40 C     6.0000    0    12.011    4.952972   -3.065136    0.017008
  41 C     6.0000    0    12.011   10.474752    8.199522   -2.135391
  42 C     6.0000    0    12.011    7.691185   -2.794905   -0.177634
  43 C     6.0000    0    12.011    7.755436    5.198637   -0.039684
  44 C     6.0000    0    12.011    9.499653    5.157063    1.957756
  45 C     6.0000    0    12.011   11.652051    6.631049    1.848152
  46 C     6.0000    0    12.011   14.397823    9.737759   -0.217319
  47 C     6.0000    0    12.011    8.165507   -0.279679   -0.173855
  48 C     6.0000    0    12.011    5.716422    0.971319    0.028346
  49 C     6.0000    0    12.011    8.290229    6.768999   -2.107045
  50 C     6.0000    0    12.011    5.415955    3.620715    0.024566
  51 N     7.0000    0    14.007   12.118814    8.118263   -0.179524
  52 H     1.0000    0     1.008   -7.883937   12.268102   -3.694415
  53 H     1.0000    0     1.008    4.297237    9.006435    0.153068
  54 H     1.0000    0     1.008   -5.814687    7.781892    4.161177
  55 H     1.0000    0     1.008   -8.441407   11.684177    4.104485
  56 H     1.0000    0     1.008  -11.841024   13.764765    0.222988
  57 H     1.0000    0     1.008   -9.480756   15.395599    2.014448
  58 H     1.0000    0     1.008   -9.431623   15.529769   -1.358713
  59 H     1.0000    0     1.008   -0.627389    9.981533    0.130391
  60 H     1.0000    0     1.008   -5.242100    8.388494   -3.958976
  61 H     1.0000    0     1.008    0.343930    2.025786    0.009449
  62 H     1.0000    0     1.008   -0.345820   -2.040904   -0.039684
  63 H     1.0000    0     1.008  -11.081354   -9.376821    3.581031
  64 H     1.0000    0     1.008   -9.059347    4.293458    0.262672
  65 H     1.0000    0     1.008   -9.070685   -4.081808   -3.768114
  66 H     1.0000    0     1.008  -12.927616   -6.768999   -3.577252
  67 H     1.0000    0     1.008  -15.926612   -8.571798    1.031790
  68 H     1.0000    0     1.008  -15.034661  -10.085468   -1.853821
  69 H     1.0000    0     1.008  -14.089798  -11.408277    1.103600
  70 H     1.0000    0     1.008   -9.990982   -0.650066    0.188973
  71 H     1.0000    0     1.008   -7.143165   -6.804904    3.679297
  72 H     1.0000    0     1.008    6.778448  -12.978639   -3.482765
  73 H     1.0000    0     1.008   -4.301017   -9.021553   -0.094486
  74 H     1.0000    0     1.008    7.018443   -7.037340    3.639613
  75 H     1.0000    0     1.008    9.622485  -10.950963    3.535678
  76 H     1.0000    0     1.008   11.725751  -13.849803   -0.829590
  77 H     1.0000    0     1.008   10.191293  -14.960962    1.969095
  78 H     1.0000    0     1.008    8.993207  -15.822677   -1.065806
  79 H     1.0000    0     1.008    0.621720   -9.996651   -0.015118
  80 H     1.0000    0     1.008    4.055352   -9.150054   -3.666069
  81 H     1.0000    0     1.008   10.975529    9.422175   -3.696304
  82 H     1.0000    0     1.008    9.048009   -4.310465   -0.349599
  83 H     1.0000    0     1.008    9.184069    3.994881    3.613156
  84 H     1.0000    0     1.008   13.041000    6.672623    3.348595
  85 H     1.0000    0     1.008   13.951848   11.544337    0.672743
  86 H     1.0000    0     1.008   15.900156    8.791006    0.822031
  87 H     1.0000    0     1.008   14.968521   10.034446   -2.173185
  88 H     1.0000    0     1.008    9.983423    0.634948   -0.338261
  89 H     1.0000    0     1.008    7.029781    6.863485   -3.717091

--------------------------------
INTERNAL COORDINATES (ANGSTROEM)
--------------------------------
 C      0   0   0     0.000000000000     0.00000000     0.00000000
 C      1   0   0     5.809085384120     0.00000000     0.00000000
 C      1   2   0     2.413679556196    40.62360091     0.00000000
 C      3   1   2     1.403547647926    87.92386993   112.12575707
 C      4   3   1     1.380684612792   120.13261135     0.11520255
 C      5   4   3     2.447697693752   152.55248445     1.71339895
 C      2   1   3     1.368114030335    13.93377263   335.51895659
 C      7   2   3     1.434084376876   108.05010202     0.84668783
 C      2   1   3     1.434123425651   115.46704568    36.74337199
 C      1   2   3     1.381851656293    38.90285011   311.99674726
 N      1   2   3     1.352370511361   104.63724219    73.24150404
 N      9   2   1     1.376127174356   106.58526707   346.39886621
 N     12   9   2     2.925062050624   168.53581413   171.12065651
 N     13  12   9     2.954513327098    91.55032014    11.12112580
 N     14  13  12     2.925371258490    88.43092389   359.84326247
 C      8   7   2     1.404790019896   127.24786865   181.11170171
 C     13  12   9     1.366535034311    81.72106996   188.00453233
 C     14  13  12     5.758810554272    80.56209567   166.76250791
 C     17  13  12     1.459010623676   111.08861209   183.82872609
 C     18  14  13     2.412235892279    27.27532823    36.33507194
 C     20  18  14     1.402692767501    87.95206320   148.94598259
 C     21  20  18     1.382106725257   120.14573887   359.70382047
 C     18  14  13     2.446510985056   144.15733107    82.80075377
 C     19  17  13     1.353610726908   106.29293361   359.75308708
 C     13  12   9     1.366813447402   172.21332906    33.46711076
 C     18  14  13     1.380960173213    15.08449437   309.23336894
 N     22  21  20     1.352773077792   120.73759875     0.27865223
 C     25  13  17     1.410897586645   125.60330303   182.37774668
 C     14  13  12     1.376642291955    80.24689249   177.85461986
 C     14  13  12     5.764089607215   164.51507311   312.20821879
 C     29  14  13     1.435600919476   106.58649366   178.76395472
 C     30  14  13     2.413316804732    27.10625047    82.12560436
 C     32  30  14     1.403734305344    87.90059683   149.76154742
 C     33  32  30     1.380694028378   120.14881443   359.74174632
 C     34  33  32     2.448777858443   152.49203239     2.45173620
 C     31  29  14     1.368160809262   108.16950133     0.70383075
 C     14  13  12     1.376239804685   169.26375223   353.09862627
 C     30  14  13     1.380907310430    14.68948582   353.70041132
 N     34  33  32     1.352658863128   120.85575621     0.19603406
 C     37  14  29     1.404717053360   126.01551127   180.90772073
 C     15  14  13     1.366491126938    81.61824056   183.09049352
 C      2   1   3     4.249062720177   144.04558030   160.45187746
 C     41  15  14     1.459677704153   111.05201287   175.08990246
 C     42   2   1     2.412953791518    41.78584867   205.13127832
 C     44  42   2     1.403446472082    87.95153797   233.97558675
 C     45  44  42     1.381696421071   120.11137308     0.19721020
 C     42   2   1     2.450019795838   135.97209175   115.44612743
 C     43  41  15     1.354461516618   106.26758155     0.30894352
 C     15  14  13     1.367461151185   171.87382904   332.35056460
 C     42   2   1     1.381886391857    32.59078432   253.98655752
 C      9   2   1     1.404988612053   126.98745415   167.40320374
 N     42   2   1     1.352765315936   113.57249190   143.18271662
 H      1   2   3     1.082761284864   123.89312334   210.35615306
 H      2   1   3     1.079907866440   118.19899635   205.15658596
 H      4   3   1     1.083230815662   121.04905972   179.51858678
 H      5   4   3     1.082392719857   122.79853916   179.43575776
 H      6   5   4     1.092211517976   104.43694523    99.98325967
 H      6   5   4     1.090077978862    84.66000425   209.49942081
 H      6   5   4     1.089971559262   133.84604185   322.34290680
 H      7   2  54     1.079807853278   126.66122480     1.30600390
 H     10   1   2     1.083953412283   118.77682755   255.16605817
 H     12   9   2     1.016297692608   125.29023241   180.00180175
 H     14  13  12     1.014936943854    44.97226959   359.42596618
 H     18  14  13     1.082871645210   128.03556573   234.20482432
 H     19  17  13     1.080893611786   126.41830519   178.11313280
 H     21  20  18     1.083569563987   121.05669627   180.67006309
 H     22  21  20     1.082483256222   122.73097286   180.59748951
 H     23  18  14     1.092105306278   103.92715769   234.93429879
 H     23  18  14     1.088871893291   134.19244188    12.25587044
 H     23  18  14     1.089833473518    84.85857450   125.45241208
 H     24  19  17     1.080075460327   127.28078426   178.44613241
 H     26  18  14     1.083408048706   118.76995697   244.94906660
 H     30  14  13     1.082703098730   127.99711412   279.66882698
 H     31  29  14     1.079759695488   125.22293469   180.92530585
 H     33  32  30     1.083188810873   121.01964473   180.74284758
 H     34  33  32     1.082494341787   122.70821597   180.59516895
 H     35  34  33     1.092652735319   105.73575241    97.19771933
 H     35  34  33     1.089462711615    84.05943581   206.43036958
 H     35  34  33     1.089268102902   133.08365142   318.50306270
 H     36  31  29     1.079439669458   126.61599965   178.98859863
 H     38  30  73     1.083742127999   118.77264435   359.90091293
 H     42   2   1     1.082178358682   119.31790784   359.81424707
 H     43  41  15     1.080281907652   126.36969097   182.06329380
 H     45  44  42     1.083277434455   121.10105945   179.58025624
 H     46  45  44     1.082194529648   122.72144639   179.46906377
 H     47  42   2     1.091546151109   106.65128841   315.16475048
 H     47  42   2     1.088818625851   132.46019523    94.52397119
 H     47  42   2     1.089531091801    83.63838232   206.04504406
 H     48  43  41     1.080402239909   127.23657387   181.62955349
 H     50  42   2     1.083186502870   118.77001737    94.71359229

---------------------------
INTERNAL COORDINATES (A.U.)
---------------------------
 C      0   0   0     0.000000000000     0.00000000     0.00000000
 C      1   0   0    10.977580464552     0.00000000     0.00000000
 C      1   2   0     4.561193336256    40.62360091     0.00000000
 C      3   1   2     2.652320670490    87.92386993   112.12575707
 C      4   3   1     2.609115795496   120.13261135     0.11520255
 C      5   4   3     4.625478299822   152.55248445     1.71339895
 C      2   1   3     2.585360837309    13.93377263   335.51895659
 C      7   2   3     2.710026725231   108.05010202     0.84668783
 C      2   1   3     2.710100516721   115.46704568    36.74337199
 C      1   2   3     2.611321188099    38.90285011   311.99674726
 N      1   2   3     2.555609898064   104.63724219    73.24150404
 N      9   2   1     2.600503484979   106.58526707   346.39886621
 N     12   9   2     5.527566200405   168.53581413   171.12065651
 N     13  12   9     5.583221047236    91.55032014    11.12112580
 N     14  13  12     5.528150518591    88.43092389   359.84326247
 C      8   7   2     2.654668413270   127.24786865   181.11170171
 C     13  12   9     2.582376967257    81.72106996   188.00453233
 C     14  13  12    10.882574804710    80.56209567   166.76250791
 C     17  13  12     2.757130505230   111.08861209   183.82872609
 C     18  14  13     4.558465206823    27.27532823    36.33507194
 C     20  18  14     2.650705180609    87.95206320   148.94598259
 C     21  20  18     2.611803198586   120.14573887   359.70382047
 C     18  14  13     4.623235745386   144.15733107    82.80075377
 C     19  17  13     2.557953565794   106.29293361   359.75308708
 C     13  12   9     2.582903091751   172.21332906    33.46711076
 C     18  14  13     2.609636529225    15.08449437   309.23336894
 N     22  21  20     2.556370638369   120.73759875     0.27865223
 C     25  13  17     2.666210041769   125.60330303   182.37774668
 C     14  13  12     2.601476916169    80.24689249   177.85461986
 C     14  13  12    10.892550769017   164.51507311   312.20821879
 C     29  14  13     2.712892575415   106.58649366   178.76395472
 C     30  14  13     4.560507835333    27.10625047    82.12560436
 C     32  30  14     2.652673401891    87.90059683   149.76154742
 C     33  32  30     2.609133588376   120.14881443   359.74174632
 C     34  33  32     4.627519515267   152.49203239     2.45173620
 C     31  29  14     2.585449236669   108.16950133     0.70383075
 C     14  13  12     2.600716325456   169.26375223   353.09862627
 C     30  14  13     2.609536633043    14.68948582   353.70041132
 N     34  33  32     2.556154803934   120.85575621     0.19603406
 C     37  14  29     2.654530526499   126.01551127   180.90772073
 C     15  14  13     2.582293994346    81.61824056   183.09049352
 C      2   1   3     8.029564866989   144.04558030   160.45187746
 C     41  15  14     2.758391104639   111.05201287   175.08990246
 C     42   2   1     4.559821839776    41.78584867   205.13127832
 C     44  42   2     2.652129475853    87.95153797   233.97558675
 C     45  44  42     2.611027836043   120.11137308     0.19721020
 C     42   2   1     4.629866436820   135.97209175   115.44612743
 C     43  41  15     2.559561325344   106.26758155     0.30894352
 C     15  14  13     2.584127074516   171.87382904   332.35056460
 C     42   2   1     2.611386828803    32.59078432   253.98655752
 C      9   2   1     2.655043698059   126.98745415   167.40320374
 N     42   2   1     2.556355970587   113.57249190   143.18271662
 H      1   2   3     2.046122296805   123.89312334   210.35615306
 H      2   1   3     2.040730117440   118.19899635   205.15658596
 H      4   3   1     2.047009581426   121.04905972   179.51858678
 H      5   4   3     2.045425809880   122.79853916   179.43575776
 H      6   5   4     2.063980649290   104.43694523    99.98325967
 H      6   5   4     2.059948844668    84.66000425   209.49942081
 H      6   5   4     2.059747740768   133.84604185   322.34290680
 H      7   2  54     2.040541119952   126.66122480     1.30600390
 H     10   1   2     2.048375091144   118.77682755   255.16605817
 H     12   9   2     1.920524309565   125.29023241   180.00180175
 H     14  13  12     1.917952867083    44.97226959   359.42596618
 H     18  14  13     2.046330847636   128.03556573   234.20482432
 H     19  17  13     2.042592906181   126.41830519   178.11313280
 H     21  20  18     2.047649722989   121.05669627   180.67006309
 H     22  21  20     2.045596898814   122.73097286   180.59748951
 H     23  18  14     2.063779938267   103.92715769   234.93429879
 H     23  18  14     2.057669673245   134.19244188    12.25587044
 H     23  18  14     2.059486796529    84.85857450   125.45241208
 H     24  19  17     2.041046823986   127.28078426   178.44613241
 H     26  18  14     2.047344503340   118.76995697   244.94906660
 H     30  14  13     2.046012340948   127.99711412   279.66882698
 H     31  29  14     2.040450114918   125.22293469   180.92530585
 H     33  32  30     2.046930203877   121.01964473   180.74284758
 H     34  33  32     2.045617847496   122.70821597   180.59516895
 H     35  34  33     2.064814429233   105.73575241    97.19771933
 H     35  34  33     2.058786158072    84.05943581   206.43036958
 H     35  34  33     2.058418400901   133.08365142   318.50306270
 H     36  31  29     2.039845353366   126.61599965   178.98859863
 H     38  30  73     2.047975821711   118.77264435   359.90091293
 H     42   2   1     2.045020725966   119.31790784   359.81424707
 H     43  41  15     2.041436952892   126.36969097   182.06329380
 H     45  44  42     2.047097678177   121.10105945   179.58025624
 H     46  45  44     2.045051284662   122.72144639   179.46906377
 H     47  42   2     2.062723288131   106.65128841   315.16475048
 H     47  42   2     2.057569012371   132.46019523    94.52397119
 H     47  42   2     2.058915377895    83.63838232   206.04504406
 H     48  43  41     2.041664347903   127.23657387   181.62955349
 H     50  42   2     2.046925842384   118.77001737    94.71359229

---------------------
BASIS SET INFORMATION
---------------------
There are 3 groups of distinct atoms

 Group   1 Type C   : 17s4p1d contracted to 3s2p1d pattern {881/31/1}
 Group   2 Type N   : 17s4p1d contracted to 3s2p1d pattern {881/31/1}
 Group   3 Type H   : 4s1p contracted to 2s1p pattern {31/1}

Atom   0C    basis set group =>   1
Atom   1N    basis set group =>   2
Atom   2C    basis set group =>   1
Atom   3N    basis set group =>   2
Atom   4C    basis set group =>   1
Atom   5N    basis set group =>   2
Atom   6C    basis set group =>   1
Atom   7N    basis set group =>   2
Atom   8C    basis set group =>   1
Atom   9N    basis set group =>   2
Atom  10C    basis set group =>   1
Atom  11N    basis set group =>   2
Atom  12C    basis set group =>   1
Atom  13N    basis set group =>   2
Atom  14C    basis set group =>   1
Atom  15N    basis set group =>   2
Atom  16C    basis set group =>   1
Atom  17C    basis set group =>   1
Atom  18C    basis set group =>   1
Atom  19C    basis set group =>   1
Atom  20C    basis set group =>   1
Atom  21C    basis set group =>   1
Atom  22C    basis set group =>   1
Atom  23C    basis set group =>   1
Atom  24C    basis set group =>   1
Atom  25C    basis set group =>   1
Atom  26C    basis set group =>   1
Atom  27C    basis set group =>   1
Atom  28C    basis set group =>   1
Atom  29C    basis set group =>   1
Atom  30C    basis set group =>   1
Atom  31C    basis set group =>   1
Atom  32C    basis set group =>   1
Atom  33C    basis set group =>   1
Atom  34C    basis set group =>   1
Atom  35C    basis set group =>   1
Atom  36C    basis set group =>   1
Atom  37C    basis set group =>   1
Atom  38C    basis set group =>   1
Atom  39C    basis set group =>   1
Atom  40C    basis set group =>   1
Atom  41C    basis set group =>   1
Atom  42C    basis set group =>   1
Atom  43C    basis set group =>   1
Atom  44C    basis set group =>   1
Atom  45C    basis set group =>   1
Atom  46C    basis set group =>   1
Atom  47C    basis set group =>   1
Atom  48C    basis set group =>   1
Atom  49C    basis set group =>   1
Atom  50C    basis set group =>   1
Atom  51C    basis set group =>   1
Atom  52H    basis set group =>   3
Atom  53H    basis set group =>   3
Atom  54H    basis set group =>   3
Atom  55H    basis set group =>   3
Atom  56H    basis set group =>   3
Atom  57H    basis set group =>   3
Atom  58H    basis set group =>   3
Atom  59H    basis set group =>   3
Atom  60H    basis set group =>   3
Atom  61H    basis set group =>   3
Atom  62H    basis set group =>   3
Atom  63H    basis set group =>   3
Atom  64H    basis set group =>   3
Atom  65H    basis set group =>   3
Atom  66H    basis set group =>   3
Atom  67H    basis set group =>   3
Atom  68H    basis set group =>   3
Atom  69H    basis set group =>   3
Atom  70H    basis set group =>   3
Atom  71H    basis set group =>   3
Atom  72H    basis set group =>   3
Atom  73H    basis set group =>   3
Atom  74H    basis set group =>   3
Atom  75H    basis set group =>   3
Atom  76H    basis set group =>   3
Atom  77H    basis set group =>   3
Atom  78H    basis set group =>   3
Atom  79H    basis set group =>   3
Atom  80H    basis set group =>   3
Atom  81H    basis set group =>   3
Atom  82H    basis set group =>   3
Atom  83H    basis set group =>   3
Atom  84H    basis set group =>   3
Atom  85H    basis set group =>   3
Atom  86H    basis set group =>   3
Atom  87H    basis set group =>   3
Atom  88H    basis set group =>   3
Atom  89H    basis set group =>   3


           ************************************************************
           *        Program running with 16 parallel MPI-processes    *
           *              working on a common directory               *
           ************************************************************
------------------------------------------------------------------------------
                           ORCA GTO INTEGRAL CALCULATION
------------------------------------------------------------------------------
------------------------------------------------------------------------------
                   ___                                                        
                  /   \      - P O W E R E D   B Y -                         
                 /     \                                                     
                 |  |  |   _    _      __       _____    __    __             
                 |  |  |  | |  | |    /  \     |  _  \  |  |  /  |          
                  \  \/   | |  | |   /    \    | | | |  |  | /  /          
                 / \  \   | |__| |  /  /\  \   | |_| |  |  |/  /          
                |  |  |   |  __  | /  /__\  \  |    /   |      \           
                |  |  |   | |  | | |   __   |  |    \   |  |\   \          
                \     /   | |  | | |  |  |  |  | |\  \  |  | \   \       
                 \___/    |_|  |_| |__|  |__|  |_| \__\ |__|  \__/        
                                                                              
                      - O R C A' S   B I G   F R I E N D -                    
                                      &                                       
                       - I N T E G R A L  F E E D E R -                       
                                                                              
 v1 FN, 2020, v2 2021                                                         
------------------------------------------------------------------------------


Reading SHARK input file /scratch/allen/tmpyp4_amber_gaff2/conf1/conf1/Conf87.orca.SHARKINP.tmp ... ok
----------------------
SHARK INTEGRAL PACKAGE
----------------------

Number of atoms                             ...     90
Number of basis functions                   ...   1230
Number of shells                            ...    738
Maximum angular momentum                    ...      2
Integral batch strategy                     ... SHARK/LIBINT Hybrid
RI-J (if used) integral strategy            ... SPLIT-RIJ (Revised 2003 algorithm where possible)
Printlevel                                  ...      1
Contraction scheme used                     ... PARTIAL GENERAL contraction
Coulomb Range Separation                    ... NOT USED
Exchange Range Separation                   ... NOT USED
Finite Nucleus Model                        ... NOT USED
Auxiliary Coulomb fitting basis             ... NOT available
Auxiliary J/K fitting basis                 ... NOT available
Auxiliary Correlation fitting basis         ... NOT available
Auxiliary 'external' fitting basis          ... NOT available
Integral threshold                          ...     2.500000e-11
Primitive cut-off                           ...     2.500000e-12
Primitive pair pre-selection threshold      ...     2.500000e-12

Calculating pre-screening integrals         ... done (  0.1 sec) Dimension = 738
Calculating pre-screening integrals (ORCA)  ... done (  0.3 sec) Dimension = 426
Organizing shell pair data                  ... done (  0.8 sec)
Shell pair information
Total number of shell pairs                 ...    272691
Shell pairs after pre-screening             ...     71606
Total number of primitive shell pairs       ...    422091
Primitive shell pairs kept                  ...     92346
          la=0 lb=0:  29423 shell pairs
          la=1 lb=0:  25957 shell pairs
          la=1 lb=1:   4686 shell pairs
          la=2 lb=0:   7897 shell pairs
          la=2 lb=1:   3113 shell pairs
          la=2 lb=2:    530 shell pairs

Calculating one electron integrals          ... done (  0.3 sec)
Calculating Nuclear repulsion               ... done (  0.0 sec) ENN=   6221.914584845272 Eh

SHARK setup successfully completed in   2.2 seconds

Maximum memory used throughout the entire GTOINT-calculation: 98.9 MB


           ************************************************************
           *        Program running with 16 parallel MPI-processes    *
           *              working on a common directory               *
           ************************************************************
-------------------------------------------------------------------------------
                                 ORCA SCF
-------------------------------------------------------------------------------

------------
SCF SETTINGS
------------
Hamiltonian:
 Ab initio Hamiltonian  Method          .... Hartree-Fock(GTOs)


General Settings:
 Integral files         IntName         .... /scratch/allen/tmpyp4_amber_gaff2/conf1/conf1/Conf87.orca
 Hartree-Fock type      HFTyp           .... RHF
 Total Charge           Charge          ....    0
 Multiplicity           Mult            ....    1
 Number of Electrons    NEL             ....  358
 Basis Dimension        Dim             ....  918
 Nuclear Repulsion      ENuc            ....   6221.9145848453 Eh

Convergence Acceleration:
 DIIS                   CNVDIIS         .... on
   Start iteration      DIISMaxIt       ....    12
   Startup error        DIISStart       ....  0.200000
   # of expansion vecs  DIISMaxEq       ....     5
   Bias factor          DIISBfac        ....   1.050
   Max. coefficient     DIISMaxC        ....  10.000
 Trust-Rad. Augm. Hess. CNVTRAH         .... auto
   Auto Start mean grad. ratio tolernc. ....  1.125000
   Auto Start start iteration           ....    20
   Auto Start num. interpolation iter.  ....    10
   Max. Number of Micro iterations      ....    16
   Max. Number of Macro iterations      .... Maxiter - #DIIS iter
   Number of Davidson start vectors     ....     2
   Converg. threshold I  (grad. norm)   ....   1.000e-05
   Converg. threshold II (energy diff.) ....   1.000e-08
   Grad. Scal. Fac. for Micro threshold ....   0.100
   Minimum threshold for Micro iter.    ....   0.010
   NR start threshold (gradient norm)   ....   0.001
   Initial trust radius                 ....   0.400
   Minimum AH scaling param. (alpha)    ....   1.000
   Maximum AH scaling param. (alpha)    .... 1000.000
   Orbital update algorithm             .... Taylor
   White noise on init. David. guess    .... on
   Maximum white noise                  ....   0.010
   Quad. conv. algorithm                .... NR
 SOSCF                  CNVSOSCF        .... on
   Start iteration      SOSCFMaxIt      ....   150
   Startup grad/error   SOSCFStart      ....  0.003300
 Level Shifting         CNVShift        .... on
   Level shift para.    LevelShift      ....    0.2500
   Turn off err/grad.   ShiftErr        ....    0.0010
 Zerner damping         CNVZerner       .... off
 Static damping         CNVDamp         .... on
   Fraction old density DampFac         ....    0.7000
   Max. Damping (<1)    DampMax         ....    0.9800
   Min. Damping (>=0)   DampMin         ....    0.0000
   Turn off err/grad.   DampErr         ....    0.1000
 Fernandez-Rico         CNVRico         .... off

SCF Procedure:
 Maximum # iterations   MaxIter         ....   125
 SCF integral mode      SCFMode         .... Direct
   Integral package                     .... SHARK and LIBINT hybrid scheme
 Reset frequency        DirectResetFreq ....    20
 Integral Threshold     Thresh          ....  2.500e-11 Eh
 Primitive CutOff       TCut            ....  2.500e-12 Eh

Convergence Tolerance:
 Convergence Check Mode ConvCheckMode   .... Total+1el-Energy
 Convergence forced     ConvForced      .... 1
 Energy Change          TolE            ....  1.000e-08 Eh
 1-El. energy change                    ....  1.000e-05 Eh
 Orbital Gradient       TolG            ....  1.000e-05
 Orbital Rotation angle TolX            ....  1.000e-05
 DIIS Error             TolErr          ....  5.000e-07


Diagonalization of the overlap matrix:
Smallest eigenvalue                        ... 2.263e-04
Time for diagonalization                   ...    0.398 sec
Threshold for overlap eigenvalues          ... 1.000e-08
Number of eigenvalues below threshold      ... 0
Time for construction of square roots      ...    0.253 sec
Total time needed                          ...    0.657 sec

Time for model grid setup =    1.053 sec

------------------------------
INITIAL GUESS: MODEL POTENTIAL
------------------------------
Loading Hartree-Fock densities                     ... done
Calculating cut-offs                               ... done
Initializing the effective Hamiltonian             ... done
Setting up the integral package (SHARK)            ... done
Starting the Coulomb interaction                   ... done (   1.1 sec)
Reading the grid                                   ... done
Mapping shells                                     ... done
Starting the XC term evaluation                    ... done (   0.2 sec)
Transforming the Hamiltonian                       ... done (   0.2 sec)
Diagonalizing the Hamiltonian                      ... done (   0.3 sec)
Back transforming the eigenvectors                 ... done (   0.1 sec)
Now organizing SCF variables                       ... done
                      ------------------
                      INITIAL GUESS DONE (   3.1 sec)
                      ------------------
--------------
SCF ITERATIONS
--------------
ITER       Energy         Delta-E        Max-DP      RMS-DP      [F,P]     Damp
               ***  Starting incremental Fock matrix formation  ***
  0  -2121.6411380945   0.000000000000 0.06934133  0.00121215  0.2351171 0.7000
  1  -2122.3101027209  -0.668964626404 0.05271652  0.00098219  0.1454462 0.7000
                               ***Turning on DIIS***
  2  -2122.7262663118  -0.416163590900 0.11744225  0.00221969  0.0807462 0.0000
  3  -2117.7700697191   4.956196592664 0.03411262  0.00068564  0.0442545 0.0000
  4  -2123.4141456118  -5.644075892676 0.00934181  0.00023061  0.0073976 0.0000
  5  -2123.5808710009  -0.166725389139 0.00553808  0.00013899  0.0051629 0.0000
  6  -2123.5594360690   0.021434931959 0.00469438  0.00009543  0.0024814 0.0000
  7  -2123.6638751808  -0.104439111819 0.00421608  0.00008076  0.0019569 0.0000
  8  -2123.6921404075  -0.028265226705 0.00411171  0.00008252  0.0018436 0.0000
  9  -2123.6507031367   0.041437270760 0.00298063  0.00006099  0.0014933 0.0000
 10  -2123.6741489815  -0.023445844734 0.00305791  0.00005976  0.0011413 0.0000
 11  -2123.6699418655   0.004207115953 0.00907521  0.00014010  0.0009795 0.0000
                      *** Initiating the SOSCF procedure ***
                           *** Shutting down DIIS ***
                      *** Re-Reading the Fockian *** 
                      *** Removing any level shift *** 
ITER      Energy       Delta-E        Grad      Rot      Max-DP    RMS-DP
 12  -2123.51190969   0.1580321797  0.000400  0.000400  0.000458  0.000010
               *** Restarting incremental Fock matrix formation ***
 13  -2123.60888501  -0.0969753219  0.001436  0.014064  0.002403  0.000058
 14  -2123.60916940  -0.0002843882  0.001857  0.074553  0.015578  0.000257
 15  -2123.60991394  -0.0007445480  0.000754  0.031927  0.008423  0.000114
 16  -2123.61007760  -0.0001636570  0.000630  0.010792  0.003932  0.000042
 17  -2123.61013877  -0.0000611699  0.000371  0.003992  0.001435  0.000029
 18  -2123.61017019  -0.0000314151  0.000219  0.002604  0.001007  0.000018
 19  -2123.61018088  -0.0000106911  0.000110  0.001913  0.000692  0.000012
 20  -2123.61018561  -0.0000047340  0.000102  0.001026  0.000273  0.000005
 21  -2123.61018717  -0.0000015557  0.000054  0.001317  0.000286  0.000005
 22  -2123.61018782  -0.0000006541  0.000037  0.000879  0.000150  0.000003
 23  -2123.61018814  -0.0000003156  0.000025  0.000879  0.000149  0.000003
 24  -2123.61018833  -0.0000001983  0.000016  0.000728  0.000123  0.000002
 25  -2123.61018843  -0.0000000928  0.000012  0.000481  0.000081  0.000002
 26  -2123.61018847  -0.0000000464  0.000009  0.000366  0.000074  0.000001
 27  -2123.61018850  -0.0000000245  0.000008  0.000234  0.000062  0.000001
 28  -2123.61018851  -0.0000000073  0.000007  0.000242  0.000073  0.000001
 29  -2123.61018851  -0.0000000058  0.000006  0.000282  0.000084  0.000001
 30  -2123.61018852  -0.0000000057  0.000004  0.000150  0.000045  0.000001
                  ***Gradient check signals convergence***
              ***Rediagonalizing the Fockian in SOSCF/NRSCF***

               *****************************************************
               *                     SUCCESS                       *
               *           SCF CONVERGED AFTER  31 CYCLES          *
               *****************************************************


----------------
TOTAL SCF ENERGY
----------------

Total Energy       :        -2123.61018852 Eh          -57786.37103 eV

Components:
Nuclear Repulsion  :         6221.91458485 Eh          169306.90325 eV
Electronic Energy  :        -8345.52477336 Eh         -227093.27428 eV
One Electron Energy:       -15285.31584534 Eh         -415934.58986 eV
Two Electron Energy:         6939.79107198 Eh          188841.31558 eV

Virial components:
Potential Energy   :        -4245.59274908 Eh         -115528.45206 eV
Kinetic Energy     :         2121.98256057 Eh           57742.08102 eV
Virial Ratio       :            2.00076703


---------------
SCF CONVERGENCE
---------------

  Last Energy change         ...    6.5302e-10  Tolerance :   1.0000e-08
  Last MAX-Density change    ...    1.4160e-05  Tolerance :   1.0000e-07
  Last RMS-Density change    ...    2.2371e-07  Tolerance :   5.0000e-09
  Last Orbital Gradient      ...    2.0550e-06  Tolerance :   1.0000e-05
  Last Orbital Rotation      ...    5.1877e-05  Tolerance :   1.0000e-05

             **** THE GBW FILE WAS UPDATED (/scratch/allen/tmpyp4_amber_gaff2/conf1/conf1/Conf87.orca.gbw) ****
             **** DENSITY /scratch/allen/tmpyp4_amber_gaff2/conf1/conf1/Conf87.orca.scfp WAS UPDATED ****
             **** ENERGY FILE WAS UPDATED (/scratch/allen/tmpyp4_amber_gaff2/conf1/conf1/Conf87.orca.en.tmp) ****
             **** THE GBW FILE WAS UPDATED (/scratch/allen/tmpyp4_amber_gaff2/conf1/conf1/Conf87.orca.gbw) ****
             **** DENSITY /scratch/allen/tmpyp4_amber_gaff2/conf1/conf1/Conf87.orca.scfp WAS UPDATED ****
----------------
ORBITAL ENERGIES
----------------

  NO   OCC          E(Eh)            E(eV) 
   0   2.0000     -15.719303      -427.7440 
   1   2.0000     -15.628295      -425.2675 
   2   2.0000     -15.618650      -425.0051 
   3   2.0000     -15.576731      -423.8644 
   4   2.0000     -15.520895      -422.3450 
   5   2.0000     -15.504124      -421.8887 
   6   2.0000     -15.451193      -420.4483 
   7   2.0000     -15.426945      -419.7885 
   8   2.0000     -11.357608      -309.0562 
   9   2.0000     -11.355699      -309.0043 
  10   2.0000     -11.349995      -308.8491 
  11   2.0000     -11.313211      -307.8481 
  12   2.0000     -11.296270      -307.3871 
  13   2.0000     -11.290449      -307.2287 
  14   2.0000     -11.289662      -307.2073 
  15   2.0000     -11.286486      -307.1209 
  16   2.0000     -11.286058      -307.1093 
  17   2.0000     -11.281562      -306.9869 
  18   2.0000     -11.280315      -306.9530 
  19   2.0000     -11.271352      -306.7091 
  20   2.0000     -11.263275      -306.4893 
  21   2.0000     -11.243205      -305.9432 
  22   2.0000     -11.239630      -305.8459 
  23   2.0000     -11.232059      -305.6399 
  24   2.0000     -11.226616      -305.4918 
  25   2.0000     -11.225711      -305.4671 
  26   2.0000     -11.222963      -305.3923 
  27   2.0000     -11.219041      -305.2856 
  28   2.0000     -11.218726      -305.2771 
  29   2.0000     -11.211305      -305.0751 
  30   2.0000     -11.209415      -305.0237 
  31   2.0000     -11.195284      -304.6392 
  32   2.0000     -11.194217      -304.6101 
  33   2.0000     -11.192897      -304.5742 
  34   2.0000     -11.188354      -304.4506 
  35   2.0000     -11.187597      -304.4300 
  36   2.0000     -11.183315      -304.3135 
  37   2.0000     -11.179711      -304.2154 
  38   2.0000     -11.179667      -304.2142 
  39   2.0000     -11.177781      -304.1629 
  40   2.0000     -11.170013      -303.9515 
  41   2.0000     -11.165329      -303.8240 
  42   2.0000     -11.164363      -303.7978 
  43   2.0000     -11.161704      -303.7254 
  44   2.0000     -11.160869      -303.7027 
  45   2.0000     -11.144846      -303.2667 
  46   2.0000     -11.144328      -303.2526 
  47   2.0000     -11.140439      -303.1468 
  48   2.0000     -11.137403      -303.0641 
  49   2.0000     -11.130720      -302.8823 
  50   2.0000     -11.116998      -302.5089 
  51   2.0000     -11.111253      -302.3526 
  52   2.0000      -1.391165       -37.8555 
  53   2.0000      -1.316568       -35.8257 
  54   2.0000      -1.307654       -35.5831 
  55   2.0000      -1.271996       -34.6128 
  56   2.0000      -1.224546       -33.3216 
  57   2.0000      -1.200112       -32.6567 
  58   2.0000      -1.178036       -32.0560 
  59   2.0000      -1.164710       -31.6934 
  60   2.0000      -1.137074       -30.9414 
  61   2.0000      -1.109002       -30.1775 
  62   2.0000      -1.105873       -30.0923 
  63   2.0000      -1.097441       -29.8629 
  64   2.0000      -1.066168       -29.0119 
  65   2.0000      -1.057205       -28.7680 
  66   2.0000      -1.041025       -28.3277 
  67   2.0000      -1.032608       -28.0987 
  68   2.0000      -1.015113       -27.6226 
  69   2.0000      -1.003942       -27.3186 
  70   2.0000      -0.999207       -27.1898 
  71   2.0000      -0.995017       -27.0758 
  72   2.0000      -0.985519       -26.8173 
  73   2.0000      -0.976114       -26.5614 
  74   2.0000      -0.964263       -26.2389 
  75   2.0000      -0.961273       -26.1576 
  76   2.0000      -0.950745       -25.8711 
  77   2.0000      -0.940488       -25.5920 
  78   2.0000      -0.934947       -25.4412 
  79   2.0000      -0.919900       -25.0318 
  80   2.0000      -0.912350       -24.8263 
  81   2.0000      -0.891112       -24.2484 
  82   2.0000      -0.886570       -24.1248 
  83   2.0000      -0.868143       -23.6234 
  84   2.0000      -0.860116       -23.4050 
  85   2.0000      -0.846358       -23.0306 
  86   2.0000      -0.829028       -22.5590 
  87   2.0000      -0.826586       -22.4926 
  88   2.0000      -0.820256       -22.3203 
  89   2.0000      -0.794309       -21.6142 
  90   2.0000      -0.785810       -21.3830 
  91   2.0000      -0.771990       -21.0069 
  92   2.0000      -0.739890       -20.1334 
  93   2.0000      -0.733586       -19.9619 
  94   2.0000      -0.728884       -19.8339 
  95   2.0000      -0.723916       -19.6988 
  96   2.0000      -0.716192       -19.4886 
  97   2.0000      -0.709488       -19.3062 
  98   2.0000      -0.707355       -19.2481 
  99   2.0000      -0.704488       -19.1701 
 100   2.0000      -0.695762       -18.9326 
 101   2.0000      -0.688244       -18.7281 
 102   2.0000      -0.684154       -18.6168 
 103   2.0000      -0.675438       -18.3796 
 104   2.0000      -0.672294       -18.2941 
 105   2.0000      -0.670868       -18.2553 
 106   2.0000      -0.666874       -18.1466 
 107   2.0000      -0.661777       -18.0079 
 108   2.0000      -0.651960       -17.7407 
 109   2.0000      -0.649034       -17.6611 
 110   2.0000      -0.648332       -17.6420 
 111   2.0000      -0.642095       -17.4723 
 112   2.0000      -0.640490       -17.4286 
 113   2.0000      -0.634363       -17.2619 
 114   2.0000      -0.633960       -17.2509 
 115   2.0000      -0.629317       -17.1246 
 116   2.0000      -0.626989       -17.0612 
 117   2.0000      -0.614964       -16.7340 
 118   2.0000      -0.610937       -16.6244 
 119   2.0000      -0.608938       -16.5701 
 120   2.0000      -0.608249       -16.5513 
 121   2.0000      -0.600773       -16.3479 
 122   2.0000      -0.592275       -16.1166 
 123   2.0000      -0.589337       -16.0367 
 124   2.0000      -0.584423       -15.9030 
 125   2.0000      -0.578074       -15.7302 
 126   2.0000      -0.574751       -15.6398 
 127   2.0000      -0.570905       -15.5351 
 128   2.0000      -0.570519       -15.5246 
 129   2.0000      -0.569946       -15.5090 
 130   2.0000      -0.556302       -15.1378 
 131   2.0000      -0.543143       -14.7797 
 132   2.0000      -0.542055       -14.7501 
 133   2.0000      -0.538393       -14.6504 
 134   2.0000      -0.533466       -14.5163 
 135   2.0000      -0.529295       -14.4029 
 136   2.0000      -0.519410       -14.1339 
 137   2.0000      -0.515753       -14.0344 
 138   2.0000      -0.513674       -13.9778 
 139   2.0000      -0.511994       -13.9321 
 140   2.0000      -0.509657       -13.8685 
 141   2.0000      -0.503238       -13.6938 
 142   2.0000      -0.501117       -13.6361 
 143   2.0000      -0.497779       -13.5453 
 144   2.0000      -0.495300       -13.4778 
 145   2.0000      -0.492822       -13.4104 
 146   2.0000      -0.488377       -13.2894 
 147   2.0000      -0.473279       -12.8786 
 148   2.0000      -0.470187       -12.7945 
 149   2.0000      -0.466030       -12.6813 
 150   2.0000      -0.462496       -12.5852 
 151   2.0000      -0.460123       -12.5206 
 152   2.0000      -0.451847       -12.2954 
 153   2.0000      -0.440712       -11.9924 
 154   2.0000      -0.432977       -11.7819 
 155   2.0000      -0.431239       -11.7346 
 156   2.0000      -0.418217       -11.3803 
 157   2.0000      -0.416811       -11.3420 
 158   2.0000      -0.411396       -11.1947 
 159   2.0000      -0.409586       -11.1454 
 160   2.0000      -0.381295       -10.3756 
 161   2.0000      -0.369497       -10.0545 
 162   2.0000      -0.353186        -9.6107 
 163   2.0000      -0.351763        -9.5720 
 164   2.0000      -0.345706        -9.4071 
 165   2.0000      -0.341455        -9.2915 
 166   2.0000      -0.338021        -9.1980 
 167   2.0000      -0.317085        -8.6283 
 168   2.0000      -0.312074        -8.4920 
 169   2.0000      -0.304967        -8.2986 
 170   2.0000      -0.298030        -8.1098 
 171   2.0000      -0.282555        -7.6887 
 172   2.0000      -0.275342        -7.4924 
 173   2.0000      -0.266437        -7.2501 
 174   2.0000      -0.229189        -6.2365 
 175   2.0000      -0.182993        -4.9795 
 176   2.0000      -0.173215        -4.7134 
 177   2.0000      -0.062683        -1.7057 
 178   2.0000      -0.050722        -1.3802 
 179   0.0000       0.036127         0.9831 
 180   0.0000       0.054387         1.4799 
 181   0.0000       0.073960         2.0126 
 182   0.0000       0.098662         2.6847 
 183   0.0000       0.102160         2.7799 
 184   0.0000       0.123385         3.3575 
 185   0.0000       0.141606         3.8533 
 186   0.0000       0.149015         4.0549 
 187   0.0000       0.160899         4.3783 
 188   0.0000       0.165533         4.5044 
 189   0.0000       0.166952         4.5430 
 190   0.0000       0.167433         4.5561 
 191   0.0000       0.173136         4.7113 
 192   0.0000       0.180214         4.9039 
 193   0.0000       0.195703         5.3253 
 194   0.0000       0.200216         5.4481 
 195   0.0000       0.206123         5.6089 
 196   0.0000       0.212278         5.7764 
 197   0.0000       0.212402         5.7798 
 198   0.0000       0.217303         5.9131 
 199   0.0000       0.217921         5.9299 
 200   0.0000       0.230040         6.2597 
 201   0.0000       0.236790         6.4434 
 202   0.0000       0.238072         6.4783 
 203   0.0000       0.239842         6.5264 
 204   0.0000       0.241557         6.5731 
 205   0.0000       0.245350         6.6763 
 206   0.0000       0.247483         6.7344 
 207   0.0000       0.249011         6.7759 
 208   0.0000       0.251893         6.8543 
 209   0.0000       0.258463         7.0331 
 210   0.0000       0.263584         7.1725 
 211   0.0000       0.267130         7.2690 
 212   0.0000       0.268298         7.3008 
 213   0.0000       0.274156         7.4602 
 214   0.0000       0.279248         7.5987 
 215   0.0000       0.280356         7.6289 
 216   0.0000       0.283911         7.7256 
 217   0.0000       0.284745         7.7483 
 218   0.0000       0.287880         7.8336 
 219   0.0000       0.289552         7.8791 
 220   0.0000       0.290355         7.9010 
 221   0.0000       0.294540         8.0148 
 222   0.0000       0.298988         8.1359 
 223   0.0000       0.300003         8.1635 
 224   0.0000       0.300460         8.1759 
 225   0.0000       0.305374         8.3097 
 226   0.0000       0.306713         8.3461 
 227   0.0000       0.307127         8.3573 
 228   0.0000       0.317898         8.6505 
 229   0.0000       0.320553         8.7227 
 230   0.0000       0.327650         8.9158 
 231   0.0000       0.330289         8.9876 
 232   0.0000       0.333079         9.0635 
 233   0.0000       0.336499         9.1566 
 234   0.0000       0.340291         9.2598 
 235   0.0000       0.356821         9.7096 
 236   0.0000       0.358225         9.7478 
 237   0.0000       0.361606         9.8398 
 238   0.0000       0.374001        10.1771 
 239   0.0000       0.387526        10.5451 
 240   0.0000       0.394766        10.7421 
 241   0.0000       0.398835        10.8529 
 242   0.0000       0.408351        11.1118 
 243   0.0000       0.417326        11.3560 
 244   0.0000       0.423683        11.5290 
 245   0.0000       0.430649        11.7186 
 246   0.0000       0.436408        11.8753 
 247   0.0000       0.438774        11.9396 
 248   0.0000       0.443630        12.0718 
 249   0.0000       0.444751        12.1023 
 250   0.0000       0.451776        12.2935 
 251   0.0000       0.455935        12.4066 
 252   0.0000       0.457903        12.4602 
 253   0.0000       0.469024        12.7628 
 254   0.0000       0.471355        12.8262 
 255   0.0000       0.476559        12.9678 
 256   0.0000       0.479617        13.0510 
 257   0.0000       0.483196        13.1484 
 258   0.0000       0.485572        13.2131 
 259   0.0000       0.493374        13.4254 
 260   0.0000       0.501741        13.6531 
 261   0.0000       0.503820        13.7096 
 262   0.0000       0.506853        13.7922 
 263   0.0000       0.509758        13.8712 
 264   0.0000       0.511992        13.9320 
 265   0.0000       0.517033        14.0692 
 266   0.0000       0.520579        14.1657 
 267   0.0000       0.525417        14.2973 
 268   0.0000       0.532059        14.4781 
 269   0.0000       0.538638        14.6571 
 270   0.0000       0.543434        14.7876 
 271   0.0000       0.545263        14.8374 
 272   0.0000       0.546244        14.8640 
 273   0.0000       0.548427        14.9234 
 274   0.0000       0.552981        15.0474 
 275   0.0000       0.560519        15.2525 
 276   0.0000       0.568398        15.4669 
 277   0.0000       0.571691        15.5565 
 278   0.0000       0.578190        15.7333 
 279   0.0000       0.586098        15.9485 
 280   0.0000       0.588871        16.0240 
 281   0.0000       0.594211        16.1693 
 282   0.0000       0.597206        16.2508 
 283   0.0000       0.598363        16.2823 
 284   0.0000       0.599517        16.3137 
 285   0.0000       0.602826        16.4037 
 286   0.0000       0.604969        16.4620 
 287   0.0000       0.609133        16.5753 
 288   0.0000       0.613428        16.6922 
 289   0.0000       0.618393        16.8273 
 290   0.0000       0.625465        17.0198 
 291   0.0000       0.630646        17.1607 
 292   0.0000       0.632864        17.2211 
 293   0.0000       0.637845        17.3567 
 294   0.0000       0.641352        17.4521 
 295   0.0000       0.646530        17.5930 
 296   0.0000       0.649160        17.6646 
 297   0.0000       0.654925        17.8214 
 298   0.0000       0.660555        17.9746 
 299   0.0000       0.662343        18.0233 
 300   0.0000       0.663741        18.0613 
 301   0.0000       0.668998        18.2044 
 302   0.0000       0.669547        18.2193 
 303   0.0000       0.674405        18.3515 
 304   0.0000       0.678034        18.4502 
 305   0.0000       0.679665        18.4946 
 306   0.0000       0.683380        18.5957 
 307   0.0000       0.687457        18.7067 
 308   0.0000       0.689222        18.7547 
 309   0.0000       0.694591        18.9008 
 310   0.0000       0.699055        19.0223 
 311   0.0000       0.702253        19.1093 
 312   0.0000       0.704764        19.1776 
 313   0.0000       0.707540        19.2531 
 314   0.0000       0.712768        19.3954 
 315   0.0000       0.714854        19.4522 
 316   0.0000       0.715695        19.4751 
 317   0.0000       0.717671        19.5288 
 318   0.0000       0.719730        19.5848 
 319   0.0000       0.723102        19.6766 
 320   0.0000       0.726151        19.7596 
 321   0.0000       0.728637        19.8272 
 322   0.0000       0.731822        19.9139 
 323   0.0000       0.738236        20.0884 
 324   0.0000       0.738777        20.1031 
 325   0.0000       0.743036        20.2190 
 326   0.0000       0.744489        20.2586 
 327   0.0000       0.749264        20.3885 
 328   0.0000       0.753076        20.4922 
 329   0.0000       0.755677        20.5630 
 330   0.0000       0.757718        20.6186 
 331   0.0000       0.762111        20.7381 
 332   0.0000       0.762582        20.7509 
 333   0.0000       0.765208        20.8224 
 334   0.0000       0.766546        20.8588 
 335   0.0000       0.768382        20.9087 
 336   0.0000       0.769483        20.9387 
 337   0.0000       0.775197        21.0942 
 338   0.0000       0.782872        21.3030 
 339   0.0000       0.785472        21.3738 
 340   0.0000       0.789605        21.4862 
 341   0.0000       0.790669        21.5152 
 342   0.0000       0.793846        21.6016 
 343   0.0000       0.794632        21.6230 
 344   0.0000       0.797032        21.6884 
 345   0.0000       0.798309        21.7231 
 346   0.0000       0.804522        21.8921 
 347   0.0000       0.806447        21.9445 
 348   0.0000       0.813443        22.1349 
 349   0.0000       0.814302        22.1583 
 350   0.0000       0.817516        22.2457 
 351   0.0000       0.819766        22.3070 
 352   0.0000       0.824618        22.4390 
 353   0.0000       0.826060        22.4782 
 354   0.0000       0.827683        22.5224 
 355   0.0000       0.830565        22.6008 
 356   0.0000       0.832392        22.6505 
 357   0.0000       0.837098        22.7786 
 358   0.0000       0.840212        22.8633 
 359   0.0000       0.840431        22.8693 
 360   0.0000       0.845149        22.9977 
 361   0.0000       0.845963        23.0198 
 362   0.0000       0.848679        23.0937 
 363   0.0000       0.850734        23.1496 
 364   0.0000       0.852546        23.1989 
 365   0.0000       0.856780        23.3142 
 366   0.0000       0.858491        23.3607 
 367   0.0000       0.859261        23.3817 
 368   0.0000       0.860489        23.4151 
 369   0.0000       0.864687        23.5293 
 370   0.0000       0.866643        23.5826 
 371   0.0000       0.867920        23.6173 
 372   0.0000       0.870423        23.6854 
 373   0.0000       0.871559        23.7163 
 374   0.0000       0.875763        23.8307 
 375   0.0000       0.877231        23.8707 
 376   0.0000       0.878026        23.8923 
 377   0.0000       0.880241        23.9526 
 378   0.0000       0.883734        24.0476 
 379   0.0000       0.887754        24.1570 
 380   0.0000       0.890859        24.2415 
 381   0.0000       0.891080        24.2475 
 382   0.0000       0.902608        24.5612 
 383   0.0000       0.903165        24.5764 
 384   0.0000       0.904073        24.6011 
 385   0.0000       0.908191        24.7131 
 386   0.0000       0.909794        24.7567 
 387   0.0000       0.915883        24.9224 
 388   0.0000       0.917833        24.9755 
 389   0.0000       0.919168        25.0118 
 390   0.0000       0.921432        25.0734 
 391   0.0000       0.924168        25.1479 
 392   0.0000       0.928666        25.2703 
 393   0.0000       0.933326        25.3971 
 394   0.0000       0.934091        25.4179 
 395   0.0000       0.934900        25.4399 
 396   0.0000       0.936984        25.4966 
 397   0.0000       0.939859        25.5749 
 398   0.0000       0.941228        25.6121 
 399   0.0000       0.942998        25.6603 
 400   0.0000       0.945335        25.7239 
 401   0.0000       0.948848        25.8195 
 402   0.0000       0.952199        25.9107 
 403   0.0000       0.956575        26.0297 
 404   0.0000       0.957787        26.0627 
 405   0.0000       0.960402        26.1339 
 406   0.0000       0.962920        26.2024 
 407   0.0000       0.968040        26.3417 
 408   0.0000       0.969208        26.3735 
 409   0.0000       0.975614        26.5478 
 410   0.0000       0.980429        26.6788 
 411   0.0000       0.983976        26.7754 
 412   0.0000       0.988470        26.8976 
 413   0.0000       0.995773        27.0964 
 414   0.0000       0.996692        27.1214 
 415   0.0000       1.000253        27.2183 
 416   0.0000       1.003365        27.3030 
 417   0.0000       1.005625        27.3645 
 418   0.0000       1.008667        27.4472 
 419   0.0000       1.015850        27.6427 
 420   0.0000       1.021859        27.8062 
 421   0.0000       1.024631        27.8816 
 422   0.0000       1.032816        28.1044 
 423   0.0000       1.037525        28.2325 
 424   0.0000       1.039450        28.2849 
 425   0.0000       1.045534        28.4504 
 426   0.0000       1.056971        28.7616 
 427   0.0000       1.063736        28.9457 
 428   0.0000       1.065785        29.0015 
 429   0.0000       1.071709        29.1627 
 430   0.0000       1.073891        29.2221 
 431   0.0000       1.082200        29.4482 
 432   0.0000       1.084591        29.5132 
 433   0.0000       1.088389        29.6166 
 434   0.0000       1.093598        29.7583 
 435   0.0000       1.097653        29.8687 
 436   0.0000       1.104774        30.0624 
 437   0.0000       1.106738        30.1159 
 438   0.0000       1.113603        30.3027 
 439   0.0000       1.115098        30.3434 
 440   0.0000       1.117585        30.4110 
 441   0.0000       1.120421        30.4882 
 442   0.0000       1.124321        30.5943 
 443   0.0000       1.129264        30.7288 
 444   0.0000       1.132204        30.8088 
 445   0.0000       1.133890        30.8547 
 446   0.0000       1.141892        31.0725 
 447   0.0000       1.143411        31.1138 
 448   0.0000       1.145527        31.1714 
 449   0.0000       1.149019        31.2664 
 450   0.0000       1.154627        31.4190 
 451   0.0000       1.156608        31.4729 
 452   0.0000       1.158964        31.5370 
 453   0.0000       1.160936        31.5907 
 454   0.0000       1.165568        31.7167 
 455   0.0000       1.167734        31.7757 
 456   0.0000       1.175824        31.9958 
 457   0.0000       1.177727        32.0476 
 458   0.0000       1.183208        32.1967 
 459   0.0000       1.187024        32.3006 
 460   0.0000       1.189356        32.3640 
 461   0.0000       1.190824        32.4040 
 462   0.0000       1.199837        32.6492 
 463   0.0000       1.202911        32.7329 
 464   0.0000       1.205623        32.8067 
 465   0.0000       1.207372        32.8543 
 466   0.0000       1.210308        32.9341 
 467   0.0000       1.212946        33.0059 
 468   0.0000       1.218304        33.1517 
 469   0.0000       1.219558        33.1859 
 470   0.0000       1.227415        33.3997 
 471   0.0000       1.228765        33.4364 
 472   0.0000       1.233447        33.5638 
 473   0.0000       1.236803        33.6551 
 474   0.0000       1.238438        33.6996 
 475   0.0000       1.243091        33.8262 
 476   0.0000       1.246933        33.9308 
 477   0.0000       1.249994        34.0141 
 478   0.0000       1.256100        34.1802 
 479   0.0000       1.257558        34.2199 
 480   0.0000       1.259019        34.2597 
 481   0.0000       1.264987        34.4221 
 482   0.0000       1.266335        34.4587 
 483   0.0000       1.270107        34.5614 
 484   0.0000       1.273242        34.6467 
 485   0.0000       1.281477        34.8708 
 486   0.0000       1.284879        34.9633 
 487   0.0000       1.287643        35.0385 
 488   0.0000       1.289916        35.1004 
 489   0.0000       1.290952        35.1286 
 490   0.0000       1.295128        35.2422 
 491   0.0000       1.300239        35.3813 
 492   0.0000       1.302917        35.4542 
 493   0.0000       1.306685        35.5567 
 494   0.0000       1.308816        35.6147 
 495   0.0000       1.315371        35.7931 
 496   0.0000       1.320499        35.9326 
 497   0.0000       1.323074        36.0027 
 498   0.0000       1.326243        36.0889 
 499   0.0000       1.329958        36.1900 
 500   0.0000       1.332237        36.2520 
 501   0.0000       1.336954        36.3804 
 502   0.0000       1.340552        36.4783 
 503   0.0000       1.343171        36.5495 
 504   0.0000       1.345968        36.6257 
[...]
      pz      :     0.021742  p :     0.079236
      px      :     0.042799
      py      :     0.014695
 77 H s       :     0.896310  s :     0.896310
      pz      :     0.047063  p :     0.078278
      px      :     0.015002
      py      :     0.016213
 78 H s       :     0.896697  s :     0.896697
      pz      :     0.025416  p :     0.078189
      px      :     0.020724
      py      :     0.032049
 79 H s       :     0.907045  s :     0.907045
      pz      :     0.022669  p :     0.087332
      px      :     0.021912
      py      :     0.042751
 80 H s       :     0.880751  s :     0.880751
      pz      :     0.038075  p :     0.083083
      px      :     0.029433
      py      :     0.015574
 81 H s       :     0.889001  s :     0.889001
      pz      :     0.037521  p :     0.083235
      px      :     0.016071
      py      :     0.029643
 82 H s       :     0.914071  s :     0.914071
      pz      :     0.022539  p :     0.087189
      px      :     0.030868
      py      :     0.033782
 83 H s       :     0.872318  s :     0.872318
      pz      :     0.039157  p :     0.083590
      px      :     0.015247
      py      :     0.029186
 84 H s       :     0.889039  s :     0.889039
      pz      :     0.035807  p :     0.084532
      px      :     0.031815
      py      :     0.016910
 85 H s       :     0.896445  s :     0.896445
      pz      :     0.022508  p :     0.079586
      px      :     0.014166
      py      :     0.042912
 86 H s       :     0.890832  s :     0.890832
      pz      :     0.024693  p :     0.078888
      px      :     0.032987
      py      :     0.021208
 87 H s       :     0.891526  s :     0.891526
      pz      :     0.047779  p :     0.078565
      px      :     0.015664
      py      :     0.015122
 88 H s       :     0.918701  s :     0.918701
      pz      :     0.022567  p :     0.086813
      px      :     0.041925
      py      :     0.022322
 89 H s       :     0.875876  s :     0.875876
      pz      :     0.037782  p :     0.084040
      px      :     0.030450
      py      :     0.015808


                      *****************************
                      * MAYER POPULATION ANALYSIS *
                      *****************************

  NA   - Mulliken gross atomic population
  ZA   - Total nuclear charge
  QA   - Mulliken gross atomic charge
  VA   - Mayer's total valence
  BVA  - Mayer's bonded valence
  FA   - Mayer's free valence

  ATOM       NA         ZA         QA         VA         BVA        FA
  0 C      5.7608     6.0000     0.2392     3.7992     3.7992    -0.0000
  1 N      7.4105     7.0000    -0.4105     3.4849     3.4849    -0.0000
  2 C      6.0661     6.0000    -0.0661     3.9212     3.9212     0.0000
  3 N      7.3440     7.0000    -0.3440     3.4195     3.4195     0.0000
  4 C      6.0654     6.0000    -0.0654     3.9521     3.9521     0.0000
  5 N      7.5663     7.0000    -0.5663     3.0655     3.0655     0.0000
  6 C      6.0256     6.0000    -0.0256     3.9574     3.9574     0.0000
  7 N      7.3367     7.0000    -0.3367     3.4460     3.4460     0.0000
  8 C      5.7654     6.0000     0.2346     3.7988     3.7988     0.0000
  9 N      7.5665     7.0000    -0.5665     3.0925     3.0925    -0.0000
 10 C      5.8973     6.0000     0.1027     3.8570     3.8570     0.0000
 11 N      7.4402     7.0000    -0.4402     3.3706     3.3706     0.0000
 12 C      6.0585     6.0000    -0.0585     3.9082     3.9082     0.0000
 13 N      7.4519     7.0000    -0.4519     3.3126     3.3126    -0.0000
 14 C      5.7799     6.0000     0.2201     3.8109     3.8109     0.0000
 15 N      7.4418     7.0000    -0.4418     3.3619     3.3619    -0.0000
 16 C      5.7424     6.0000     0.2576     3.8067     3.8067    -0.0000
 17 C      6.0331     6.0000    -0.0331     3.9605     3.9605    -0.0000
 18 C      6.1771     6.0000    -0.1771     3.6716     3.6716     0.0000
 19 C      5.7685     6.0000     0.2315     3.9024     3.9024     0.0000
 20 C      5.8140     6.0000     0.1860     3.8207     3.8207    -0.0000
 21 C      6.0682     6.0000    -0.0682     3.8900     3.8900     0.0000
 22 C      6.0923     6.0000    -0.0923     3.9851     3.9851     0.0000
 23 C      6.0691     6.0000    -0.0691     3.9884     3.9884     0.0000
 24 C      5.7825     6.0000     0.2175     3.8311     3.8311    -0.0000
 25 C      5.8848     6.0000     0.1152     3.8945     3.8945     0.0000
 26 C      6.0648     6.0000    -0.0648     3.9103     3.9103     0.0000
 27 C      5.7501     6.0000     0.2499     3.9039     3.9039    -0.0000
 28 C      6.0389     6.0000    -0.0389     3.9910     3.9910    -0.0000
 29 C      6.1980     6.0000    -0.1980     3.7276     3.7276     0.0000
 30 C      5.7804     6.0000     0.2196     3.7773     3.7773    -0.0000
 31 C      5.8141     6.0000     0.1859     3.8340     3.8340     0.0000
 32 C      6.0646     6.0000    -0.0646     3.9126     3.9126    -0.0000
 33 C      6.1042     6.0000    -0.1042     3.9839     3.9839     0.0000
 34 C      6.0507     6.0000    -0.0507     4.0001     4.0001     0.0000
 35 C      5.8235     6.0000     0.1765     3.8302     3.8302     0.0000
 36 C      5.8784     6.0000     0.1216     3.9120     3.9120     0.0000
 37 C      6.0710     6.0000    -0.0710     3.9131     3.9131     0.0000
 38 C      5.7551     6.0000     0.2449     3.7936     3.7936     0.0000
 39 C      6.0655     6.0000    -0.0655     3.9996     3.9996     0.0000
 40 C      6.2058     6.0000    -0.2058     3.7535     3.7535    -0.0000
 41 C      5.7838     6.0000     0.2162     3.8734     3.8734     0.0000
 42 C      5.7873     6.0000     0.2127     3.8334     3.8334     0.0000
 43 C      6.0777     6.0000    -0.0777     3.9050     3.9050     0.0000
 44 C      6.0929     6.0000    -0.0929     3.9826     3.9826     0.0000
 45 C      6.0370     6.0000    -0.0370     3.9968     3.9968     0.0000
 46 C      5.8180     6.0000     0.1820     3.8195     3.8195     0.0000
 47 C      5.8831     6.0000     0.1169     3.8976     3.8976    -0.0000
 48 C      6.0824     6.0000    -0.0824     3.8972     3.8972     0.0000
 49 C      5.7938     6.0000     0.2062     3.8603     3.8603    -0.0000
 50 C      6.0690     6.0000    -0.0690     3.9904     3.9904    -0.0000
 51 C      6.1883     6.0000    -0.1883     3.7436     3.7436     0.0000
 52 H      0.9160     1.0000     0.0840     0.9817     0.9817    -0.0000
 53 H      1.0061     1.0000    -0.0061     1.0028     1.0028    -0.0000
 54 H      0.9305     1.0000     0.0695     1.0050     1.0050     0.0000
 55 H      0.9174     1.0000     0.0826     0.9827     0.9827     0.0000
 56 H      0.9128     1.0000     0.0872     0.9727     0.9727    -0.0000
 57 H      0.9219     1.0000     0.0781     0.9849     0.9849     0.0000
 58 H      0.9240     1.0000     0.0760     0.9869     0.9869    -0.0000
 59 H      1.0298     1.0000    -0.0298     0.9958     0.9958     0.0000
 60 H      0.9314     1.0000     0.0686     1.0046     1.0046    -0.0000
 61 H      0.8224     1.0000     0.1776     1.0439     1.0439     0.0000
 62 H      0.8327     1.0000     0.1673     1.0433     1.0433     0.0000
 63 H      0.9482     1.0000     0.0518     0.9864     0.9864     0.0000
 64 H      1.0356     1.0000    -0.0356     0.9930     0.9930     0.0000
 65 H      0.9603     1.0000     0.0397     1.0076     1.0076     0.0000
 66 H      0.9459     1.0000     0.0541     0.9847     0.9847    -0.0000
 67 H      0.9428     1.0000     0.0572     0.9715     0.9715    -0.0000
 68 H      0.9446     1.0000     0.0554     0.9863     0.9863    -0.0000
 69 H      0.9414     1.0000     0.0586     0.9830     0.9830     0.0000
 70 H      1.0123     1.0000    -0.0123     0.9986     0.9986    -0.0000
 71 H      0.9541     1.0000     0.0459     1.0077     1.0077    -0.0000
 72 H      0.9642     1.0000     0.0358     0.9861     0.9861    -0.0000
 73 H      1.0197     1.0000    -0.0197     0.9960     0.9960    -0.0000
 74 H      0.9722     1.0000     0.0278     1.0089     1.0089    -0.0000
 75 H      0.9656     1.0000     0.0344     0.9868     0.9868    -0.0000
 76 H      0.9552     1.0000     0.0448     0.9700     0.9700     0.0000
 77 H      0.9550     1.0000     0.0450     0.9841     0.9841    -0.0000
 78 H      0.9557     1.0000     0.0443     0.9834     0.9834    -0.0000
 79 H      1.0116     1.0000    -0.0116     1.0021     1.0021     0.0000
 80 H      0.9724     1.0000     0.0276     1.0061     1.0061     0.0000
 81 H      0.9502     1.0000     0.0498     0.9852     0.9852    -0.0000
 82 H      1.0229     1.0000    -0.0229     0.9953     0.9953     0.0000
 83 H      0.9575     1.0000     0.0425     1.0109     1.0109    -0.0000
 84 H      0.9513     1.0000     0.0487     0.9865     0.9865     0.0000
 85 H      0.9464     1.0000     0.0536     0.9713     0.9713     0.0000
 86 H      0.9437     1.0000     0.0563     0.9841     0.9841    -0.0000
 87 H      0.9459     1.0000     0.0541     0.9852     0.9852    -0.0000
 88 H      1.0310     1.0000    -0.0310     0.9908     0.9908    -0.0000
 89 H      0.9620     1.0000     0.0380     1.0058     1.0058     0.0000

  Mayer bond orders larger than 0.100000
B(  0-C ,  1-N ) :   1.2138 B(  0-C , 17-C ) :   1.5104 B(  0-C , 52-H ) :   0.9666 
B(  1-N ,  8-C ) :   1.2067 B(  1-N , 10-C ) :   0.9235 B(  2-C , 12-C ) :   1.5827 
B(  2-C , 16-C ) :   1.2708 B(  2-C , 53-H ) :   0.9793 B(  3-N , 14-C ) :   1.1745 
B(  3-N , 16-C ) :   1.2020 B(  3-N , 61-H ) :   0.8950 B(  4-C ,  6-C ) :   1.3637 
B(  4-C , 17-C ) :   1.3628 B(  4-C , 18-C ) :   1.0479 B(  5-N , 19-C ) :   1.3629 
B(  5-N , 27-C ) :   1.4496 B(  6-C ,  8-C ) :   1.5102 B(  6-C , 54-H ) :   0.9704 
B(  7-N , 30-C ) :   1.1840 B(  7-N , 38-C ) :   1.2159 B(  7-N , 62-H ) :   0.9016 
B(  8-C , 55-H ) :   0.9674 B(  9-N , 41-C ) :   1.4365 B(  9-N , 49-C ) :   1.3912 
B( 10-C , 56-H ) :   0.9767 B( 10-C , 57-H ) :   0.9805 B( 10-C , 58-H ) :   0.9816 
B( 11-N , 20-C ) :   1.0952 B( 11-N , 24-C ) :   1.1341 B( 11-N , 25-C ) :   0.9628 
B( 12-C , 14-C ) :   1.2709 B( 12-C , 59-H ) :   0.9767 B( 13-N , 31-C ) :   1.0805 
B( 13-N , 35-C ) :   1.0705 B( 13-N , 36-C ) :   0.9832 B( 14-C , 18-C ) :   1.2636 
B( 15-N , 42-C ) :   1.1265 B( 15-N , 46-C ) :   1.0879 B( 15-N , 47-C ) :   0.9667 
B( 16-C , 51-C ) :   1.2497 B( 17-C , 60-H ) :   0.9709 B( 18-C , 19-C ) :   1.3152 
B( 19-C , 21-C ) :   1.1599 B( 20-C , 28-C ) :   1.6301 B( 20-C , 63-H ) :   0.9710 
B( 21-C , 26-C ) :   1.6848 B( 21-C , 64-H ) :   0.9714 B( 22-C , 23-C ) :   1.2540 
B( 22-C , 28-C ) :   1.2793 B( 22-C , 29-C ) :   1.2587 B( 23-C , 24-C ) :   1.6362 
B( 23-C , 65-H ) :   0.9723 B( 24-C , 66-H ) :   0.9691 B( 25-C , 67-H ) :   0.9762 
B( 25-C , 68-H ) :   0.9834 B( 25-C , 69-H ) :   0.9819 B( 26-C , 27-C ) :   1.1701 
B( 26-C , 70-H ) :   0.9758 B( 27-C , 29-C ) :   1.2440 B( 28-C , 71-H ) :   0.9709 
B( 29-C , 30-C ) :   1.1724 B( 30-C , 32-C ) :   1.3535 B( 31-C , 39-C ) :   1.6869 
B( 31-C , 72-H ) :   0.9709 B( 32-C , 37-C ) :   1.5065 B( 32-C , 73-H ) :   0.9771 
B( 33-C , 34-C ) :   1.2307 B( 33-C , 39-C ) :   1.2233 B( 33-C , 40-C ) :   1.3628 
B( 34-C , 35-C ) :   1.6856 B( 34-C , 74-H ) :   0.9710 B( 35-C , 75-H ) :   0.9709 
B( 36-C , 76-H ) :   0.9755 B( 36-C , 77-H ) :   0.9826 B( 36-C , 78-H ) :   0.9838 
B( 37-C , 38-C ) :   1.3469 B( 37-C , 79-H ) :   0.9793 B( 38-C , 40-C ) :   1.1765 
B( 39-C , 80-H ) :   0.9721 B( 40-C , 41-C ) :   1.1668 B( 41-C , 43-C ) :   1.2572 
B( 42-C , 50-C ) :   1.6426 B( 42-C , 81-H ) :   0.9696 B( 43-C , 48-C ) :   1.5939 
B( 43-C , 82-H ) :   0.9757 B( 44-C , 45-C ) :   1.2814 B( 44-C , 50-C ) :   1.2480 
B( 44-C , 51-C ) :   1.2460 B( 45-C , 46-C ) :   1.6331 B( 45-C , 83-H ) :   0.9702 
B( 46-C , 84-H ) :   0.9709 B( 47-C , 85-H ) :   0.9759 B( 47-C , 86-H ) :   0.9825 
B( 47-C , 87-H ) :   0.9830 B( 48-C , 49-C ) :   1.2514 B( 48-C , 88-H ) :   0.9726 
B( 49-C , 51-C ) :   1.1895 B( 50-C , 89-H ) :   0.9723 

-------
TIMINGS
-------

Total SCF time: 0 days 0 hours 33 min 47 sec 

Total time                  ....    2027.342 sec
Sum of individual times     ....    2022.493 sec  ( 99.8%)

Fock matrix formation       ....    1997.336 sec  ( 98.5%)
Diagonalization             ....       7.511 sec  (  0.4%)
Density matrix formation    ....       0.786 sec  (  0.0%)
Population analysis         ....       0.520 sec  (  0.0%)
Initial guess               ....       2.055 sec  (  0.1%)
Orbital Transformation      ....       0.000 sec  (  0.0%)
Orbital Orthonormalization  ....       0.000 sec  (  0.0%)
DIIS solution               ....       3.855 sec  (  0.2%)
SOSCF solution              ....       9.377 sec  (  0.5%)

Maximum memory used throughout the entire SCF-calculation: 302.6 MB


           ************************************************************
           *        Program running with 16 parallel MPI-processes    *
           *              working on a common directory               *
           ************************************************************

------------------------------------------------------------------------------
                                ORCA  MP2 
------------------------------------------------------------------------------

Freezing NCore=104 chemical core electrons

----------
MP2 ENERGY (disk based algorithm)
----------

Dimension of the basis                    ...  918
Memory devoted to MP2                     ... 2000 MB   
Data format for buffers                   ... DOUBLE
Compression type for matrix containers    ... UNCOMPRESSED

-------------------------------
PARTIAL EXCHANGE TRANSFORMATION
-------------------------------

Transformation type                        ... one-operator
Generation of integrals (i,mue|j,nue)      ... ON
Generation of integrals (mue,kappa|nue,tau)... OFF
Generation of integrals (i,mue|a,nue)      ... OFF
Dimension of the basis                     ...  918
Number of internal MOs                     ...  127 (  52- 178)
Pair cutoff                                ... 2.500e-12 Eh
Number of AO pairs in the trafo            ... 421821
Total Number of distinct AO pairs          ... 421821
Memory devoted for trafo                   ... 2000.0 MB 
Max. Number of MO pairs treated together   ...  311      
Number Format for Storage                  ... Double (8 Byte)
Integral package used                      ... LIBINT

Starting integral evaluation:
    ... done with AO integral generation
Closing buffer AOK     (37.73 GB; CompressionRatio= 1.34)
Collecting buffer AOK 
Number of MO pairs included in the trafo   ... 8128
------------------------
SORTING OF (i,mue|j,nue)
------------------------

IBATCH = 1 of  2
IBATCH = 2 of  2
Closing buffer KAO     (51.03 GB; CompressionRatio= 1.00)
Collecting buffer KAO 
N(AO-Batches) Done                         ...  85511113 
N(AO-Batches) Skipped                      ...  82050250 
N(IJ)-pairs Skipped                        ...         0 
TOTAL TIME for half transformation         ...  3172.972 sec
AO-integral generation                     ...   221.255 sec
Half transformation                        ...   371.773 sec
K-integral sorting                         ...  2406.372 sec
Process 10:   Internal MO 132
Process 13:   Internal MO 156
Process  4:   Internal MO  84

Finished integral transformation - now doing MP2 part

OPERATOR COMBINATION   0   0: ij=( 52..178, 52..178)
Process  1:   Internal MO  60
Process  7:   Internal MO 108
Process  0:   Internal MO  54
Process  0:   Internal MO  57
Process  2:   Internal MO  69
Process  1:   Internal MO  63
Process  5:   Internal MO  93
Process  3:   Internal MO  78
Process  8:   Internal MO 117
Process  1:   Internal MO  66
Process  2:   Internal MO  72
Process 11:   Internal MO 141
Process  6:   Internal MO 102
Process  4:   Internal MO  87
Process 14:   Internal MO 165
Process  3:   Internal MO  81
Process  2:   Internal MO  75
Process  9:   Internal MO 126
Process  7:   Internal MO 111
Process  5:   Internal MO  96
Process 12:   Internal MO 150
Process  4:   Internal MO  90
Process 15:   Internal MO 174
Process 10:   Internal MO 135
Process  6:   Internal MO 105
Process  8:   Internal MO 120
Process 11:   Internal MO 144
Process  5:   Internal MO  99
Process 13:   Internal MO 159
Process  7:   Internal MO 114
Process  9:   Internal MO 129
Process 12:   Internal MO 153
Process 14:   Internal MO 168
Process  8:   Internal MO 123
Process 10:   Internal MO 138
Process 11:   Internal MO 147
Process 15:   Internal MO 177
Process 13:   Internal MO 162
Process 14:   Internal MO 171
-----------------------------------------------
 MP2 CORRELATION ENERGY   :     -7.259873166 Eh
-----------------------------------------------


-------
TIMINGS
-------
Total time                : 3726.103 sec
Integral trafo            : 3175.197 sec ( 85.2%)
K(i,j)                    :    6.370 sec (  0.2%)
T(i,j)                    :    0.128 sec (  0.0%)

---------------------------------------
MP2 TOTAL ENERGY:    -2130.870061682 Eh
---------------------------------------

Maximum memory used throughout the entire MP2-calculation: 2275.2 MB

-------------------------   --------------------
FINAL SINGLE POINT ENERGY     -2130.870061682291
-------------------------   --------------------


                            ***************************************
                            *     ORCA property calculations      *
                            ***************************************


  WARNING: The energy has been calculated at the MP2 level but the densities
           used in the property calculations are still SCF densities
           MP2 response densities have not been calculated 
           use %mp2 Density relaxed end
           or  %mp2 Density unrelaxed end

                                    ---------------------
                                    Active property flags
                                    ---------------------
   (+) Dipole Moment


------------------------------------------------------------------------------
                       ORCA ELECTRIC PROPERTIES CALCULATION
------------------------------------------------------------------------------

Dipole Moment Calculation                       ... on
Quadrupole Moment Calculation                   ... off
Polarizability Calculation                      ... off
GBWName                                         ... /scratch/allen/tmpyp4_amber_gaff2/conf1/conf1/Conf87.orca.gbw
Electron density                                ... /scratch/allen/tmpyp4_amber_gaff2/conf1/conf1/Conf87.orca.scfp
The origin for moment calculation is the CENTER OF MASS  = ( 0.001571, -0.003076  0.004037)

-------------
DIPOLE MOMENT
-------------
                                X             Y             Z
Electronic contribution:     -4.64458       5.53441      -0.14849
Nuclear contribution   :     -0.03141       0.16210       0.20438
                        -----------------------------------------
Total Dipole Moment    :     -4.67599       5.69651       0.05589
                        -----------------------------------------
Magnitude (a.u.)       :      7.37009
Magnitude (Debye)      :     18.73329



--------------------
Rotational spectrum 
--------------------
 
Rotational constants in cm-1:     0.001498     0.001472     0.000763 
Rotational constants in MHz :    44.903177    44.137773    22.868007 

 Dipole components along the rotational axes: 
x,y,z [a.u.] :     6.508119     3.458386     0.047076 
x,y,z [Debye]:    16.542323     8.790518     0.119658 

 

Timings for individual modules:

Sum of individual times         ...     5782.451 sec (=  96.374 min)
GTO integral calculation        ...        3.314 sec (=   0.055 min)   0.1 %
SCF iterations                  ...     2028.436 sec (=  33.807 min)  35.1 %
MP2 module                      ...     3750.700 sec (=  62.512 min)  64.9 %
                             ****ORCA TERMINATED NORMALLY****
TOTAL RUN TIME: 0 days 1 hours 36 minutes 25 seconds 781 msec
# of primitive gaussian functions

