
                                 *****************
                                 * O   R   C   A *
                                 *****************

                                            #,                                       
                                            ###                                      
                                            ####                                     
                                            #####                                    
                                            ######                                   
                                           ########,                                 
                                     ,,################,,,,,                         
                               ,,#################################,,                 
                          ,,##########################################,,             
                       ,#########################################, ''#####,          
                    ,#############################################,,   '####,        
                  ,##################################################,,,,####,       
                ,###########''''           ''''###############################       
              ,#####''   ,,,,##########,,,,          '''####'''          '####       
            ,##' ,,,,###########################,,,                        '##       
           ' ,,###''''                  '''############,,,                           
         ,,##''                                '''############,,,,        ,,,,,,###''
      ,#''                                            '''#######################'''  
     '                                                          ''''####''''         
             ,#######,   #######,   ,#######,      ##                                
            ,#'     '#,  ##    ##  ,#'     '#,    #''#        ######   ,####,        
            ##       ##  ##   ,#'  ##            #'  '#       #        #'  '#        
            ##       ##  #######   ##           ,######,      #####,   #    #        
            '#,     ,#'  ##    ##  '#,     ,#' ,#      #,         ##   #,  ,#        
             '#######'   ##     ##  '#######'  #'      '#     #####' # '####'        



                  #######################################################
                  #                        -***-                        #
                  #          Department of theory and spectroscopy      #
                  #    Directorship and core code : Frank Neese         #
                  #        Max Planck Institute fuer Kohlenforschung    #
                  #                Kaiser Wilhelm Platz 1               #
                  #                 D-45470 Muelheim/Ruhr               #
                  #                      Germany                        #
                  #                                                     #
                  #                  All rights reserved                #
                  #                        -***-                        #
                  #######################################################


                         Program Version 5.0.4 -  RELEASE  -


 With contributions from (in alphabetic order):
   Daniel Aravena         : Magnetic Suceptibility
   Michael Atanasov       : Ab Initio Ligand Field Theory (pilot matlab implementation)
   Alexander A. Auer      : GIAO ZORA, VPT2 properties, NMR spectrum
   Ute Becker             : Parallelization
   Giovanni Bistoni       : ED, misc. LED, open-shell LED, HFLD
   Martin Brehm           : Molecular dynamics
   Dmytro Bykov           : SCF Hessian
   Vijay G. Chilkuri      : MRCI spin determinant printing, contributions to CSF-ICE
   Dipayan Datta          : RHF DLPNO-CCSD density
   Achintya Kumar Dutta   : EOM-CC, STEOM-CC
   Dmitry Ganyushin       : Spin-Orbit,Spin-Spin,Magnetic field MRCI
   Miquel Garcia          : C-PCM and meta-GGA Hessian, CC/C-PCM, Gaussian charge scheme
   Yang Guo               : DLPNO-NEVPT2, F12-NEVPT2, CIM, IAO-localization
   Andreas Hansen         : Spin unrestricted coupled pair/coupled cluster methods
   Benjamin Helmich-Paris : MC-RPA, TRAH-SCF, COSX integrals
   Lee Huntington         : MR-EOM, pCC
   Robert Izsak           : Overlap fitted RIJCOSX, COSX-SCS-MP3, EOM
   Marcus Kettner         : VPT2
   Christian Kollmar      : KDIIS, OOCD, Brueckner-CCSD(T), CCSD density, CASPT2, CASPT2-K
   Simone Kossmann        : Meta GGA functionals, TD-DFT gradient, OOMP2, MP2 Hessian
   Martin Krupicka        : Initial AUTO-CI
   Lucas Lang             : DCDCAS
   Marvin Lechner         : AUTO-CI (C++ implementation), FIC-MRCC
   Dagmar Lenk            : GEPOL surface, SMD
   Dimitrios Liakos       : Extrapolation schemes; Compound Job, initial MDCI parallelization
   Dimitrios Manganas     : Further ROCIS development; embedding schemes
   Dimitrios Pantazis     : SARC Basis sets
   Anastasios Papadopoulos: AUTO-CI, single reference methods and gradients
   Taras Petrenko         : DFT Hessian,TD-DFT gradient, ASA, ECA, R-Raman, ABS, FL, XAS/XES, NRVS
   Peter Pinski           : DLPNO-MP2, DLPNO-MP2 Gradient
   Christoph Reimann      : Effective Core Potentials
   Marius Retegan         : Local ZFS, SOC
   Christoph Riplinger    : Optimizer, TS searches, QM/MM, DLPNO-CCSD(T), (RO)-DLPNO pert. Triples
   Tobias Risthaus        : Range-separated hybrids, TD-DFT gradient, RPA, STAB
   Michael Roemelt        : Original ROCIS implementation
   Masaaki Saitow         : Open-shell DLPNO-CCSD energy and density
   Barbara Sandhoefer     : DKH picture change effects
   Avijit Sen             : IP-ROCIS
   Kantharuban Sivalingam : CASSCF convergence, NEVPT2, FIC-MRCI
   Bernardo de Souza      : ESD, SOC TD-DFT
   Georgi Stoychev        : AutoAux, RI-MP2 NMR, DLPNO-MP2 response
   Willem Van den Heuvel  : Paramagnetic NMR
   Boris Wezisla          : Elementary symmetry handling
   Frank Wennmohs         : Technical directorship


 We gratefully acknowledge several colleagues who have allowed us to
 interface, adapt or use parts of their codes:
   Stefan Grimme, W. Hujo, H. Kruse, P. Pracht,  : VdW corrections, initial TS optimization,
                  C. Bannwarth, S. Ehlert          DFT functionals, gCP, sTDA/sTD-DF
   Ed Valeev, F. Pavosevic, A. Kumar             : LibInt (2-el integral package), F12 methods
   Garnet Chan, S. Sharma, J. Yang, R. Olivares  : DMRG
   Ulf Ekstrom                                   : XCFun DFT Library
   Mihaly Kallay                                 : mrcc  (arbitrary order and MRCC methods)
   Jiri Pittner, Ondrej Demel                    : Mk-CCSD
   Frank Weinhold                                : gennbo (NPA and NBO analysis)
   Christopher J. Cramer and Donald G. Truhlar   : smd solvation model
   Lars Goerigk                                  : TD-DFT with DH, B97 family of functionals
   V. Asgeirsson, H. Jonsson                     : NEB implementation
   FAccTs GmbH                                   : IRC, NEB, NEB-TS, DLPNO-Multilevel, CI-OPT
                                                   MM, QMMM, 2- and 3-layer-ONIOM, Crystal-QMMM,
                                                   LR-CPCM, SF, NACMEs, symmetry and pop. for TD-DFT,
                                                   nearIR, NL-DFT gradient (VV10), updates on ESD,
                                                   ML-optimized integration grids
   S Lehtola, MJT Oliveira, MAL Marques          : LibXC Library
   Liviu Ungur et al                             : ANISO software


 Your calculation uses the libint2 library for the computation of 2-el integrals
 For citations please refer to: http://libint.valeyev.net

 Your ORCA version has been built with support for libXC version: 5.1.0
 For citations please refer to: https://tddft.org/programs/libxc/

 This ORCA versions uses:
   CBLAS   interface :  Fast vector & matrix operations
   LAPACKE interface :  Fast linear algebra routines
   SCALAPACK package :  Parallel linear algebra routines
   Shared memory     :  Shared parallel matrices
   BLAS/LAPACK       :  OpenBLAS 0.3.15  USE64BITINT DYNAMIC_ARCH NO_AFFINITY Sandybridge SINGLE_THREADED
        Core in use  :  Sandybridge
   Copyright (c) 2011-2014, The OpenBLAS Project


================================================================================

----- Orbital basis set information -----
Your calculation utilizes the basis: cc-pVDZ 
       H, B-Ne : Obtained from the ccRepo (grant-hill.group.shef.ac.uk/ccrepo) Feb. 2017
                 T. H. Dunning, Jr., J. Chem. Phys. 90, 1007 (1989)
            He : Obtained from the ccRepo (grant-hill.group.shef.ac.uk/ccrepo) Feb. 2017
                 D. E. Woon, T. H. Dunning, Jr., J. Chem. Phys. 100, 2975 (1994)
  Li-Be, Na-Mg : Obtained from the ccRepo (grant-hill.group.shef.ac.uk/ccrepo) Feb. 2017
                 B. P. Prascher, D. E. Woon, K. A. Peterson, T. H. Dunning, Jr., A. K. Wilson, Theor. Chem. Acc. 128, 69 (2011)
         Al-Ar : Obtained from the ccRepo (grant-hill.group.shef.ac.uk/ccrepo) Feb. 2017
                 D. E. Woon, T. H. Dunning, Jr., J. Chem. Phys. 98, 1358 (1993)
            Ca : Obtained from the Peterson Research Group Website (tyr0.chem.wsu.edu/~kipeters) Feb. 2017
                 J. Koput, K. A. Peterson, J. Phys. Chem. 106, 9595 (2002)
         Sc-Zn : Obtained from the ccRepo (grant-hill.group.shef.ac.uk/ccrepo) Feb. 2017
                 N. B. Balabanov, K. A. Peterson, J. Chem. Phys. 123, 064107 (2005)
                 N. B. Balabanov, K. A. Peterson, J. Chem. Phys. 125, 074110 (2006)
         Ga-Kr : Obtained from the ccRepo (grant-hill.group.shef.ac.uk/ccrepo) Feb. 2017
                 A. K. Wilson, D. E. Woon, K. A. Peterson, T. H. Dunning, Jr., J. Chem. Phys. 110, 7667 (1999)

================================================================================
                                        WARNINGS
                       Please study these warnings very carefully!
================================================================================


WARNING: No MP2 level density has been requested!
         To caclulate MP2 level properties use
         %mp2 Density relaxed end
         or
         %mp2 Density unrelaxed end

WARNING: Post HF methods need fully converged wavefunctions
  ===> : Setting SCFConvForced true
         You can overwrite this default with %scf ConvForced false 


INFO   : the flag for use of the SHARK integral package has been found!

================================================================================
                                       INPUT FILE
================================================================================
NAME = /scratch/allen/tmpyp4_amber_gaff2/2.Mdgx/conf11/conf11/Conf286.orca
|  1> ! PAL2
|  2> ! mp2 cc-pvdz TightSCF  NoKeepInts
|  3> 
|  4> %scf
|  5>   MaxCore 2000
|  6> end
|  7> %mp2
|  8>   MaxCore 2000
|  9> end
| 10> * xyz 0 1
| 11>    C       -3.75700         5.97700         1.21500
| 12>    C        1.47400         4.04100         0.05700
| 13>    C       -2.80200         4.09300         0.04900
| 14>    C       -3.46800         4.53500        -1.10500
| 15>    C       -4.24700         5.67400        -1.06300
| 16>    C       -5.19700         7.61300         0.08900
| 17>    C        0.13200         4.30700         0.06100
| 18>    C       -0.56900         3.05600         0.04700
| 19>    C        1.64900         2.61800         0.02300
| 20>    C       -2.96300         4.84800         1.22100
| 21>    N       -4.38600         6.37600         0.08600
| 22>    N        0.38800         2.06700         0.02500
| 23>    N       -2.01000         0.39500        -0.07500
| 24>    N       -0.38800        -2.07400        -0.02700
| 25>    N        2.01000        -0.40100         0.06500
| 26>    C       -1.96000         2.86100         0.02400
| 27>    C       -2.62300         1.61500        -0.01800
| 28>    C       -5.57300        -4.32900         1.06600
| 29>    C       -4.07300         1.47100         0.05600
| 30>    C       -4.10600        -2.75600        -0.02600
| 31>    C       -4.99500        -2.75700        -1.11100
| 32>    C       -6.13200        -3.54200        -1.07600
| 33>    C       -7.65100        -5.11300         0.04000
| 34>    C       -4.32400         0.14100         0.03700
| 35>    C       -3.02500        -0.52000        -0.04800
| 36>    C       -4.42200        -3.56600         1.07500
| 37>    N       -6.40700        -4.31300         0.00100
| 38>    C       -2.86700        -1.92200        -0.04000
| 39>    C       -1.65000        -2.62400        -0.02700
| 40>    C        3.56800        -6.14200        -1.04000
| 41>    C       -1.47600        -4.04900        -0.03400
| 42>    C        2.80300        -4.09900        -0.00800
| 43>    C        3.65700        -4.38400         1.06900
| 44>    C        4.42700        -5.53000         1.05900
| 45>    C        5.24500        -7.58800         0.01400
| 46>    C       -0.13400        -4.31500        -0.02200
| 47>    C        0.56800        -3.06400        -0.02700
| 48>    C        2.77500        -5.01200        -1.07400
| 49>    N        4.37600        -6.39100         0.01700
| 50>    C        1.95900        -2.86900        -0.00900
| 51>    C        2.62100        -1.62200         0.00900
| 52>    C        5.54300         4.33900        -1.13000
| 53>    C        4.07000        -1.47900        -0.09400
| 54>    C        4.10400         2.75100        -0.02100
| 55>    C        5.02700         2.72900         1.03600
| 56>    C        6.16600         3.50900         0.97800
| 57>    C        7.61900         5.15300        -0.11500
| 58>    C        4.32100        -0.14800        -0.09200
| 59>    C        3.02500         0.51400         0.01500
| 60>    C        4.38700         3.58200        -1.11500
| 61>    C        2.86600         1.91600         0.01300
| 62>    N        6.41300         4.29600        -0.09500
| 63>    H       -3.92000         6.58200         2.09900
| 64>    H        2.27400         4.76600         0.08100
| 65>    H       -3.37500         4.00100        -2.04300
| 66>    H       -4.77100         6.05800        -1.92800
| 67>    H       -4.57000         8.45100        -0.22400
| 68>    H       -6.03000         7.48900        -0.60300
| 69>    H       -5.57300         7.78400         1.09800
| 70>    H       -0.33200         5.28200         0.06900
| 71>    H       -2.48600         4.55000         2.14800
| 72>    H        0.18200         1.07200         0.00500
| 73>    H       -0.18300        -1.08000        -0.02100
| 74>    H       -5.86400        -4.96200         1.89500
| 75>    H       -4.79400         2.27200         0.13900
| 76>    H       -4.80000        -2.16000        -1.99400
| 77>    H       -6.84100        -3.58200        -1.89300
| 78>    H       -8.42800        -4.53600         0.54600
| 79>    H       -7.95600        -5.33700        -0.98100
| 80>    H       -7.45600        -6.03700         0.58400
| 81>    H       -5.28700        -0.34400         0.10000
| 82>    H       -3.78000        -3.60100         1.94700
| 83>    H        3.58700        -6.86800        -1.84300
| 84>    H       -2.27600        -4.77400        -0.05000
| 85>    H        3.71400        -3.72400         1.92600
| 86>    H        5.09200        -5.79500         1.87100
| 87>    H        6.20500        -7.32900        -0.43900
| 88>    H        5.39300        -7.91700         1.04200
| 89>    H        4.75900        -8.37300        -0.56400
| 90>    H        0.32900        -5.29000        -0.00800
| 91>    H        2.14600        -4.84200        -1.94000
| 92>    H        5.80800         4.98600        -1.95600
| 93>    H        4.78800        -2.28100        -0.18500
| 94>    H        4.86000         2.11400         1.91200
| 95>    H        6.90100         3.53100         1.77200
| 96>    H        7.38300         6.10900         0.35600
| 97>    H        8.41400         4.65200         0.43500
| 98>    H        7.92100         5.31000        -1.15000
| 99>    H        5.28300         0.33600        -0.17900
|100>    H        3.72000         3.63200        -1.96700
|101> *
|102> 
|103>                          ****END OF INPUT****
================================================================================

                       ****************************
                       * Single Point Calculation *
                       ****************************

---------------------------------
CARTESIAN COORDINATES (ANGSTROEM)
---------------------------------
  C     -3.757000    5.977000    1.215000
  C      1.474000    4.041000    0.057000
  C     -2.802000    4.093000    0.049000
  C     -3.468000    4.535000   -1.105000
  C     -4.247000    5.674000   -1.063000
  C     -5.197000    7.613000    0.089000
  C      0.132000    4.307000    0.061000
  C     -0.569000    3.056000    0.047000
  C      1.649000    2.618000    0.023000
  C     -2.963000    4.848000    1.221000
  N     -4.386000    6.376000    0.086000
  N      0.388000    2.067000    0.025000
  N     -2.010000    0.395000   -0.075000
  N     -0.388000   -2.074000   -0.027000
  N      2.010000   -0.401000    0.065000
  C     -1.960000    2.861000    0.024000
  C     -2.623000    1.615000   -0.018000
  C     -5.573000   -4.329000    1.066000
  C     -4.073000    1.471000    0.056000
  C     -4.106000   -2.756000   -0.026000
  C     -4.995000   -2.757000   -1.111000
  C     -6.132000   -3.542000   -1.076000
  C     -7.651000   -5.113000    0.040000
  C     -4.324000    0.141000    0.037000
  C     -3.025000   -0.520000   -0.048000
  C     -4.422000   -3.566000    1.075000
  N     -6.407000   -4.313000    0.001000
  C     -2.867000   -1.922000   -0.040000
  C     -1.650000   -2.624000   -0.027000
  C      3.568000   -6.142000   -1.040000
  C     -1.476000   -4.049000   -0.034000
  C      2.803000   -4.099000   -0.008000
  C      3.657000   -4.384000    1.069000
  C      4.427000   -5.530000    1.059000
  C      5.245000   -7.588000    0.014000
  C     -0.134000   -4.315000   -0.022000
  C      0.568000   -3.064000   -0.027000
  C      2.775000   -5.012000   -1.074000
  N      4.376000   -6.391000    0.017000
  C      1.959000   -2.869000   -0.009000
  C      2.621000   -1.622000    0.009000
  C      5.543000    4.339000   -1.130000
  C      4.070000   -1.479000   -0.094000
  C      4.104000    2.751000   -0.021000
  C      5.027000    2.729000    1.036000
  C      6.166000    3.509000    0.978000
  C      7.619000    5.153000   -0.115000
  C      4.321000   -0.148000   -0.092000
  C      3.025000    0.514000    0.015000
  C      4.387000    3.582000   -1.115000
  C      2.866000    1.916000    0.013000
  N      6.413000    4.296000   -0.095000
  H     -3.920000    6.582000    2.099000
  H      2.274000    4.766000    0.081000
  H     -3.375000    4.001000   -2.043000
  H     -4.771000    6.058000   -1.928000
  H     -4.570000    8.451000   -0.224000
  H     -6.030000    7.489000   -0.603000
  H     -5.573000    7.784000    1.098000
  H     -0.332000    5.282000    0.069000
  H     -2.486000    4.550000    2.148000
  H      0.182000    1.072000    0.005000
  H     -0.183000   -1.080000   -0.021000
  H     -5.864000   -4.962000    1.895000
  H     -4.794000    2.272000    0.139000
  H     -4.800000   -2.160000   -1.994000
  H     -6.841000   -3.582000   -1.893000
  H     -8.428000   -4.536000    0.546000
  H     -7.956000   -5.337000   -0.981000
  H     -7.456000   -6.037000    0.584000
  H     -5.287000   -0.344000    0.100000
  H     -3.780000   -3.601000    1.947000
  H      3.587000   -6.868000   -1.843000
  H     -2.276000   -4.774000   -0.050000
  H      3.714000   -3.724000    1.926000
  H      5.092000   -5.795000    1.871000
  H      6.205000   -7.329000   -0.439000
  H      5.393000   -7.917000    1.042000
  H      4.759000   -8.373000   -0.564000
  H      0.329000   -5.290000   -0.008000
  H      2.146000   -4.842000   -1.940000
  H      5.808000    4.986000   -1.956000
  H      4.788000   -2.281000   -0.185000
  H      4.860000    2.114000    1.912000
  H      6.901000    3.531000    1.772000
  H      7.383000    6.109000    0.356000
  H      8.414000    4.652000    0.435000
  H      7.921000    5.310000   -1.150000
  H      5.283000    0.336000   -0.179000
  H      3.720000    3.632000   -1.967000

----------------------------
CARTESIAN COORDINATES (A.U.)
----------------------------
  NO LB      ZA    FRAG     MASS         X           Y           Z
   0 C     6.0000    0    12.011   -7.099701   11.294893    2.296017
   1 C     6.0000    0    12.011    2.785456    7.636383    0.107714
   2 C     6.0000    0    12.011   -5.295013    7.734649    0.092597
   3 C     6.0000    0    12.011   -6.553570    8.569908   -2.088147
   4 C     6.0000    0    12.011   -8.025667   10.722306   -2.008779
   5 C     6.0000    0    12.011   -9.820907   14.386485    0.168186
   6 C     6.0000    0    12.011    0.249444    8.139050    0.115273
   7 C     6.0000    0    12.011   -1.075254    5.775003    0.088817
   8 C     6.0000    0    12.011    3.116158    4.947303    0.043464
   9 C     6.0000    0    12.011   -5.599259    9.161392    2.307356
  10 N     7.0000    0    14.007   -8.288339   12.048894    0.162516
  11 N     7.0000    0    14.007    0.733214    3.906064    0.047243
  12 N     7.0000    0    14.007   -3.798350    0.746442   -0.141729
  13 N     7.0000    0    14.007   -0.733214   -3.919292   -0.051023
  14 N     7.0000    0    14.007    3.798350   -0.757780    0.122832
  15 C     6.0000    0    12.011   -3.703863    5.406506    0.045353
  16 C     6.0000    0    12.011   -4.956752    3.051908   -0.034015
  17 C     6.0000    0    12.011  -10.531444   -8.180624    2.014448
  18 C     6.0000    0    12.011   -7.696855    2.779787    0.105825
  19 C     6.0000    0    12.011   -7.759216   -5.208085   -0.049133
  20 C     6.0000    0    12.011   -9.439182   -5.209975   -2.099486
  21 C     6.0000    0    12.011  -11.587801   -6.693410   -2.033345
  22 C     6.0000    0    12.011  -14.458295   -9.662170    0.075589
  23 C     6.0000    0    12.011   -8.171176    0.266451    0.069920
  24 C     6.0000    0    12.011   -5.716422   -0.982658   -0.090707
  25 C     6.0000    0    12.011   -8.356369   -6.738763    2.031456
  26 N     7.0000    0    14.007  -12.107475   -8.150389    0.001890
  27 C     6.0000    0    12.011   -5.417845   -3.632054   -0.075589
  28 C     6.0000    0    12.011   -3.118048   -4.958641   -0.051023
  29 C     6.0000    0    12.011    6.742543  -11.606698   -1.965315
  30 C     6.0000    0    12.011   -2.789236   -7.651501   -0.064251
  31 C     6.0000    0    12.011    5.296902   -7.745987   -0.015118
  32 C     6.0000    0    12.011    6.910728   -8.284559    2.020117
  33 C     6.0000    0    12.011    8.365818  -10.450186    2.001220
  34 C     6.0000    0    12.011    9.911614  -14.339242    0.026456
  35 C     6.0000    0    12.011   -0.253223   -8.154168   -0.041574
  36 C     6.0000    0    12.011    1.073364   -5.790121   -0.051023
  37 C     6.0000    0    12.011    5.243990   -9.471307   -2.029566
  38 N     7.0000    0    14.007    8.269442  -12.077240    0.032125
  39 C     6.0000    0    12.011    3.701973   -5.421624   -0.017008
  40 C     6.0000    0    12.011    4.952972   -3.065136    0.017008
  41 C     6.0000    0    12.011   10.474752    8.199522   -2.135391
  42 C     6.0000    0    12.011    7.691185   -2.794905   -0.177634
  43 C     6.0000    0    12.011    7.755436    5.198637   -0.039684
  44 C     6.0000    0    12.011    9.499653    5.157063    1.957756
  45 C     6.0000    0    12.011   11.652051    6.631049    1.848152
  46 C     6.0000    0    12.011   14.397823    9.737759   -0.217319
  47 C     6.0000    0    12.011    8.165507   -0.279679   -0.173855
  48 C     6.0000    0    12.011    5.716422    0.971319    0.028346
  49 C     6.0000    0    12.011    8.290229    6.768999   -2.107045
  50 C     6.0000    0    12.011    5.415955    3.620715    0.024566
  51 N     7.0000    0    14.007   12.118814    8.118263   -0.179524
  52 H     1.0000    0     1.008   -7.407726   12.438177    3.966535
  53 H     1.0000    0     1.008    4.297237    9.006435    0.153068
  54 H     1.0000    0     1.008   -6.377826    7.560794   -3.860710
  55 H     1.0000    0     1.008   -9.015883   11.447961   -3.643392
  56 H     1.0000    0     1.008   -8.636048   15.970076   -0.423299
  57 H     1.0000    0     1.008  -11.395049   14.152159   -1.139505
  58 H     1.0000    0     1.008  -10.531444   14.709628    2.074919
  59 H     1.0000    0     1.008   -0.627389    9.981533    0.130391
  60 H     1.0000    0     1.008   -4.697859    8.598254    4.059132
  61 H     1.0000    0     1.008    0.343930    2.025786    0.009449
  62 H     1.0000    0     1.008   -0.345820   -2.040904   -0.039684
  63 H     1.0000    0     1.008  -11.081354   -9.376821    3.581031
  64 H     1.0000    0     1.008   -9.059347    4.293458    0.262672
  65 H     1.0000    0     1.008   -9.070685   -4.081808   -3.768114
  66 H     1.0000    0     1.008  -12.927616   -6.768999   -3.577252
  67 H     1.0000    0     1.008  -15.926612   -8.571798    1.031790
  68 H     1.0000    0     1.008  -15.034661  -10.085468   -1.853821
  69 H     1.0000    0     1.008  -14.089798  -11.408277    1.103600
  70 H     1.0000    0     1.008   -9.990982   -0.650066    0.188973
  71 H     1.0000    0     1.008   -7.143165   -6.804904    3.679297
  72 H     1.0000    0     1.008    6.778448  -12.978639   -3.482765
  73 H     1.0000    0     1.008   -4.301017   -9.021553   -0.094486
  74 H     1.0000    0     1.008    7.018443   -7.037340    3.639613
  75 H     1.0000    0     1.008    9.622485  -10.950963    3.535678
  76 H     1.0000    0     1.008   11.725751  -13.849803   -0.829590
  77 H     1.0000    0     1.008   10.191293  -14.960962    1.969095
  78 H     1.0000    0     1.008    8.993207  -15.822677   -1.065806
  79 H     1.0000    0     1.008    0.621720   -9.996651   -0.015118
  80 H     1.0000    0     1.008    4.055352   -9.150054   -3.666069
  81 H     1.0000    0     1.008   10.975529    9.422175   -3.696304
  82 H     1.0000    0     1.008    9.048009   -4.310465   -0.349599
  83 H     1.0000    0     1.008    9.184069    3.994881    3.613156
  84 H     1.0000    0     1.008   13.041000    6.672623    3.348595
  85 H     1.0000    0     1.008   13.951848   11.544337    0.672743
  86 H     1.0000    0     1.008   15.900156    8.791006    0.822031
  87 H     1.0000    0     1.008   14.968521   10.034446   -2.173185
  88 H     1.0000    0     1.008    9.983423    0.634948   -0.338261
  89 H     1.0000    0     1.008    7.029781    6.863485   -3.717091

--------------------------------
INTERNAL COORDINATES (ANGSTROEM)
--------------------------------
 C      0   0   0     0.000000000000     0.00000000     0.00000000
 C      1   0   0     5.696702642757     0.00000000     0.00000000
 C      1   2   0     2.412682531955    43.35768703     0.00000000
 C      3   1   2     1.403793432097    87.91548697   239.41491141
 C      4   3   1     1.380552787835   120.16326318     0.13696575
 C      5   4   3     2.447309747457   152.50236736     1.62794362
 C      2   1   3     1.368114030335    14.67164660    21.42960937
 C      7   2   3     1.434084376876   108.05010202     0.84668783
 C      2   1   3     1.434123425651   117.00570583   325.55173218
 C      1   2   3     1.380258309158    36.35830888    46.76718464
 N      1   2   3     1.352583823650   110.95269538   292.84991115
 N      9   2   1     1.376127174356   106.58526707    11.99029474
 N     12   9   2     2.925062050624   168.53581413   171.12065651
 N     13  12   9     2.954513327098    91.55032014    11.12112580
 N     14  13  12     2.925371258490    88.43092389   359.84326247
 C      8   7   2     1.404790019896   127.24786865   181.11170171
 C     13  12   9     1.366535034311    81.72106996   188.00453233
 C     14  13  12     5.758810554272    80.56209567   166.76250791
 C     17  13  12     1.459010623676   111.08861209   183.82872609
 C     18  14  13     2.412235892279    27.27532823    36.33507194
 C     20  18  14     1.402692767501    87.95206320   148.94598259
 C     21  20  18     1.382106725257   120.14573887   359.70382047
 C     18  14  13     2.446510985056   144.15733107    82.80075377
 C     19  17  13     1.353610726908   106.29293361   359.75308708
 C     13  12   9     1.366813447402   172.21332906    33.46711076
 C     18  14  13     1.380960173213    15.08449437   309.23336894
 N     22  21  20     1.352773077792   120.73759875     0.27865223
 C     25  13  17     1.410897586645   125.60330303   182.37774668
 C     14  13  12     1.376642291955    80.24689249   177.85461986
 C     14  13  12     5.764089607215   164.51507311   312.20821879
 C     29  14  13     1.435600919476   106.58649366   178.76395472
 C     30  14  13     2.413316804732    27.10625047    82.12560436
 C     32  30  14     1.403734305344    87.90059683   149.76154742
 C     33  32  30     1.380694028378   120.14881443   359.74174632
 C     34  33  32     2.448777858443   152.49203239     2.45173620
 C     31  29  14     1.368160809262   108.16950133     0.70383075
 C     14  13  12     1.376239804685   169.26375223   353.09862627
 C     30  14  13     1.380907310430    14.68948582   353.70041132
 N     34  33  32     1.352658863128   120.85575621     0.19603406
 C     37  14  29     1.404717053360   126.01551127   180.90772073
 C     15  14  13     1.366491126938    81.61824056   183.09049352
 C      2   1   3     4.249062720177   155.82368347   136.51770451
 C     41  15  14     1.459677704153   111.05201287   175.08990246
 C     42   2   1     2.412953791518    41.78584867   164.40953245
 C     44  42   2     1.403446472082    87.95153797   233.97558675
 C     45  44  42     1.381696421071   120.11137308     0.19721020
 C     42   2   1     2.450019795838   135.97209175    74.72438156
 C     43  41  15     1.354461516618   106.26758155     0.30894352
 C     15  14  13     1.367461151185   171.87382904   332.35056460
 C     42   2   1     1.381886391857    32.59078432   213.26481165
 C      9   2   1     1.404988612053   126.98745415   192.99463227
 N     42   2   1     1.352765315936   113.57249190   102.46097075
 H      1   2   3     1.083535878501   119.58621322   152.76603715
 H      2   1   3     1.079907866440   116.58784104   157.49025957
 H      4   3   1     1.083350820372   121.05344822   179.49022058
 H      5   4   3     1.081784174408   122.81014984   179.40579472
 H      6   5   4     1.092401940679   104.48403129   100.10771197
 H      6   5   4     1.090013302671    84.70297233   209.55025431
 H      6   5   4     1.090274277418   133.92907192   322.33950849
 H      7   2  54     1.079807853278   126.66122480     1.30600390
 H     10   1   2     1.084279484266   118.78935405    97.10519690
 H     12   9   2     1.016297692608   125.29023241   180.00180175
 H     14  13  12     1.014936943854    44.97226959   359.42596618
 H     18  14  13     1.082871645210   128.03556573   234.20482432
 H     19  17  13     1.080893611786   126.41830519   178.11313280
 H     21  20  18     1.083569563987   121.05669627   180.67006309
 H     22  21  20     1.082483256222   122.73097286   180.59748951
 H     23  18  14     1.092105306278   103.92715769   234.93429879
 H     23  18  14     1.088871893291   134.19244188    12.25587044
 H     23  18  14     1.089833473518    84.85857450   125.45241208
 H     24  19  17     1.080075460327   127.28078426   178.44613241
 H     26  18  14     1.083408048706   118.76995697   244.94906660
 H     30  14  13     1.082703098730   127.99711412   279.66882698
 H     31  29  14     1.079759695488   125.22293469   180.92530585
 H     33  32  30     1.083188810873   121.01964473   180.74284758
 H     34  33  32     1.082494341787   122.70821597   180.59516895
 H     35  34  33     1.092652735319   105.73575241    97.19771933
 H     35  34  33     1.089462711615    84.05943581   206.43036958
 H     35  34  33     1.089268102902   133.08365142   318.50306270
 H     36  31  29     1.079439669458   126.61599965   178.98859863
 H     38  30  73     1.083742127999   118.77264435   359.90091293
 H     42   2   1     1.082178358682   119.31790784   319.09250120
 H     43  41  15     1.080281907652   126.36969097   182.06329380
 H     45  44  42     1.083277434455   121.10105945   179.58025624
 H     46  45  44     1.082194529648   122.72144639   179.46906377
 H     47  42   2     1.091546151109   106.65128841   315.16475048
 H     47  42   2     1.088818625851   132.46019523    94.52397119
 H     47  42   2     1.089531091801    83.63838232   206.04504406
 H     48  43  41     1.080402239909   127.23657387   181.62955349
 H     50  42   2     1.083186502870   118.77001737    94.71359229

---------------------------
INTERNAL COORDINATES (A.U.)
---------------------------
 C      0   0   0     0.000000000000     0.00000000     0.00000000
 C      1   0   0    10.765207861197     0.00000000     0.00000000
 C      1   2   0     4.559309233490    43.35768703     0.00000000
 C      3   1   2     2.652785135262    87.91548697   239.41491141
 C      4   3   1     2.608866682430   120.16326318     0.13696575
 C      5   4   3     4.624745187570   152.50236736     1.62794362
 C      2   1   3     2.585360837309    14.67164660    21.42960937
 C      7   2   3     2.710026725231   108.05010202     0.84668783
 C      2   1   3     2.710100516721   117.00570583   325.55173218
 C      1   2   3     2.608310198378    36.35830888    46.76718464
 N      1   2   3     2.556012999871   110.95269538   292.84991115
 N      9   2   1     2.600503484979   106.58526707    11.99029474
 N     12   9   2     5.527566200405   168.53581413   171.12065651
 N     13  12   9     5.583221047236    91.55032014    11.12112580
 N     14  13  12     5.528150518591    88.43092389   359.84326247
 C      8   7   2     2.654668413270   127.24786865   181.11170171
 C     13  12   9     2.582376967257    81.72106996   188.00453233
 C     14  13  12    10.882574804710    80.56209567   166.76250791
 C     17  13  12     2.757130505230   111.08861209   183.82872609
 C     18  14  13     4.558465206823    27.27532823    36.33507194
 C     20  18  14     2.650705180609    87.95206320   148.94598259
 C     21  20  18     2.611803198586   120.14573887   359.70382047
 C     18  14  13     4.623235745386   144.15733107    82.80075377
 C     19  17  13     2.557953565794   106.29293361   359.75308708
 C     13  12   9     2.582903091751   172.21332906    33.46711076
 C     18  14  13     2.609636529225    15.08449437   309.23336894
 N     22  21  20     2.556370638369   120.73759875     0.27865223
 C     25  13  17     2.666210041769   125.60330303   182.37774668
 C     14  13  12     2.601476916169    80.24689249   177.85461986
 C     14  13  12    10.892550769017   164.51507311   312.20821879
 C     29  14  13     2.712892575415   106.58649366   178.76395472
 C     30  14  13     4.560507835333    27.10625047    82.12560436
 C     32  30  14     2.652673401891    87.90059683   149.76154742
 C     33  32  30     2.609133588376   120.14881443   359.74174632
 C     34  33  32     4.627519515267   152.49203239     2.45173620
 C     31  29  14     2.585449236669   108.16950133     0.70383075
 C     14  13  12     2.600716325456   169.26375223   353.09862627
 C     30  14  13     2.609536633043    14.68948582   353.70041132
 N     34  33  32     2.556154803934   120.85575621     0.19603406
 C     37  14  29     2.654530526499   126.01551127   180.90772073
 C     15  14  13     2.582293994346    81.61824056   183.09049352
 C      2   1   3     8.029564866989   155.82368347   136.51770451
 C     41  15  14     2.758391104639   111.05201287   175.08990246
 C     42   2   1     4.559821839776    41.78584867   164.40953245
 C     44  42   2     2.652129475853    87.95153797   233.97558675
 C     45  44  42     2.611027836043   120.11137308     0.19721020
 C     42   2   1     4.629866436820   135.97209175    74.72438156
 C     43  41  15     2.559561325344   106.26758155     0.30894352
 C     15  14  13     2.584127074516   171.87382904   332.35056460
 C     42   2   1     2.611386828803    32.59078432   213.26481165
 C      9   2   1     2.655043698059   126.98745415   192.99463227
 N     42   2   1     2.556355970587   113.57249190   102.46097075
 H      1   2   3     2.047586066646   119.58621322   152.76603715
 H      2   1   3     2.040730117440   116.58784104   157.49025957
 H      4   3   1     2.047236357461   121.05344822   179.49022058
 H      5   4   3     2.044275825642   122.81014984   179.40579472
 H      6   5   4     2.064340496048   104.48403129   100.10771197
 H      6   5   4     2.059826624379    84.70297233   209.55025431
 H      6   5   4     2.060319795179   133.92907192   322.33950849
 H      7   2  54     2.040541119952   126.66122480     1.30600390
 H     10   1   2     2.048991277892   118.78935405    97.10519690
 H     12   9   2     1.920524309565   125.29023241   180.00180175
 H     14  13  12     1.917952867083    44.97226959   359.42596618
 H     18  14  13     2.046330847636   128.03556573   234.20482432
 H     19  17  13     2.042592906181   126.41830519   178.11313280
 H     21  20  18     2.047649722989   121.05669627   180.67006309
 H     22  21  20     2.045596898814   122.73097286   180.59748951
 H     23  18  14     2.063779938267   103.92715769   234.93429879
 H     23  18  14     2.057669673245   134.19244188    12.25587044
 H     23  18  14     2.059486796529    84.85857450   125.45241208
 H     24  19  17     2.041046823986   127.28078426   178.44613241
 H     26  18  14     2.047344503340   118.76995697   244.94906660
 H     30  14  13     2.046012340948   127.99711412   279.66882698
 H     31  29  14     2.040450114918   125.22293469   180.92530585
 H     33  32  30     2.046930203877   121.01964473   180.74284758
 H     34  33  32     2.045617847496   122.70821597   180.59516895
 H     35  34  33     2.064814429233   105.73575241    97.19771933
 H     35  34  33     2.058786158072    84.05943581   206.43036958
 H     35  34  33     2.058418400901   133.08365142   318.50306270
 H     36  31  29     2.039845353366   126.61599965   178.98859863
 H     38  30  73     2.047975821711   118.77264435   359.90091293
 H     42   2   1     2.045020725966   119.31790784   319.09250120
 H     43  41  15     2.041436952892   126.36969097   182.06329380
 H     45  44  42     2.047097678177   121.10105945   179.58025624
 H     46  45  44     2.045051284662   122.72144639   179.46906377
 H     47  42   2     2.062723288131   106.65128841   315.16475048
 H     47  42   2     2.057569012371   132.46019523    94.52397119
 H     47  42   2     2.058915377895    83.63838232   206.04504406
 H     48  43  41     2.041664347903   127.23657387   181.62955349
 H     50  42   2     2.046925842384   118.77001737    94.71359229

---------------------
BASIS SET INFORMATION
---------------------
There are 3 groups of distinct atoms

 Group   1 Type C   : 17s4p1d contracted to 3s2p1d pattern {881/31/1}
 Group   2 Type N   : 17s4p1d contracted to 3s2p1d pattern {881/31/1}
 Group   3 Type H   : 4s1p contracted to 2s1p pattern {31/1}

Atom   0C    basis set group =>   1
Atom   1N    basis set group =>   2
Atom   2C    basis set group =>   1
Atom   3N    basis set group =>   2
Atom   4C    basis set group =>   1
Atom   5N    basis set group =>   2
Atom   6C    basis set group =>   1
Atom   7N    basis set group =>   2
Atom   8C    basis set group =>   1
Atom   9N    basis set group =>   2
Atom  10C    basis set group =>   1
Atom  11N    basis set group =>   2
Atom  12C    basis set group =>   1
Atom  13N    basis set group =>   2
Atom  14C    basis set group =>   1
Atom  15N    basis set group =>   2
Atom  16C    basis set group =>   1
Atom  17C    basis set group =>   1
Atom  18C    basis set group =>   1
Atom  19C    basis set group =>   1
Atom  20C    basis set group =>   1
Atom  21C    basis set group =>   1
Atom  22C    basis set group =>   1
Atom  23C    basis set group =>   1
Atom  24C    basis set group =>   1
Atom  25C    basis set group =>   1
Atom  26C    basis set group =>   1
Atom  27C    basis set group =>   1
Atom  28C    basis set group =>   1
Atom  29C    basis set group =>   1
Atom  30C    basis set group =>   1
Atom  31C    basis set group =>   1
Atom  32C    basis set group =>   1
Atom  33C    basis set group =>   1
Atom  34C    basis set group =>   1
Atom  35C    basis set group =>   1
Atom  36C    basis set group =>   1
Atom  37C    basis set group =>   1
Atom  38C    basis set group =>   1
Atom  39C    basis set group =>   1
Atom  40C    basis set group =>   1
Atom  41C    basis set group =>   1
Atom  42C    basis set group =>   1
Atom  43C    basis set group =>   1
Atom  44C    basis set group =>   1
Atom  45C    basis set group =>   1
Atom  46C    basis set group =>   1
Atom  47C    basis set group =>   1
Atom  48C    basis set group =>   1
Atom  49C    basis set group =>   1
Atom  50C    basis set group =>   1
Atom  51C    basis set group =>   1
Atom  52H    basis set group =>   3
Atom  53H    basis set group =>   3
Atom  54H    basis set group =>   3
Atom  55H    basis set group =>   3
Atom  56H    basis set group =>   3
Atom  57H    basis set group =>   3
Atom  58H    basis set group =>   3
Atom  59H    basis set group =>   3
Atom  60H    basis set group =>   3
Atom  61H    basis set group =>   3
Atom  62H    basis set group =>   3
Atom  63H    basis set group =>   3
Atom  64H    basis set group =>   3
Atom  65H    basis set group =>   3
Atom  66H    basis set group =>   3
Atom  67H    basis set group =>   3
Atom  68H    basis set group =>   3
Atom  69H    basis set group =>   3
Atom  70H    basis set group =>   3
Atom  71H    basis set group =>   3
Atom  72H    basis set group =>   3
Atom  73H    basis set group =>   3
Atom  74H    basis set group =>   3
Atom  75H    basis set group =>   3
Atom  76H    basis set group =>   3
Atom  77H    basis set group =>   3
Atom  78H    basis set group =>   3
Atom  79H    basis set group =>   3
Atom  80H    basis set group =>   3
Atom  81H    basis set group =>   3
Atom  82H    basis set group =>   3
Atom  83H    basis set group =>   3
Atom  84H    basis set group =>   3
Atom  85H    basis set group =>   3
Atom  86H    basis set group =>   3
Atom  87H    basis set group =>   3
Atom  88H    basis set group =>   3
Atom  89H    basis set group =>   3


           ************************************************************
           *        Program running with 8 parallel MPI-processes     *
           *              working on a common directory               *
           ************************************************************
------------------------------------------------------------------------------
                           ORCA GTO INTEGRAL CALCULATION
------------------------------------------------------------------------------
------------------------------------------------------------------------------
                   ___                                                        
                  /   \      - P O W E R E D   B Y -                         
                 /     \                                                     
                 |  |  |   _    _      __       _____    __    __             
                 |  |  |  | |  | |    /  \     |  _  \  |  |  /  |          
                  \  \/   | |  | |   /    \    | | | |  |  | /  /          
                 / \  \   | |__| |  /  /\  \   | |_| |  |  |/  /          
                |  |  |   |  __  | /  /__\  \  |    /   |      \           
                |  |  |   | |  | | |   __   |  |    \   |  |\   \          
                \     /   | |  | | |  |  |  |  | |\  \  |  | \   \       
                 \___/    |_|  |_| |__|  |__|  |_| \__\ |__|  \__/        
                                                                              
                      - O R C A' S   B I G   F R I E N D -                    
                                      &                                       
                       - I N T E G R A L  F E E D E R -                       
                                                                              
 v1 FN, 2020, v2 2021                                                         
------------------------------------------------------------------------------


Reading SHARK input file /scratch/chu_02/allen/tmpyp4_amber_gaff2/conf1/conf1/Conf286.orca.SHARKINP.tmp ... ok
----------------------
SHARK INTEGRAL PACKAGE
----------------------

Number of atoms                             ...     90
Number of basis functions                   ...   1230
Number of shells                            ...    738
Maximum angular momentum                    ...      2
Integral batch strategy                     ... SHARK/LIBINT Hybrid
RI-J (if used) integral strategy            ... SPLIT-RIJ (Revised 2003 algorithm where possible)
Printlevel                                  ...      1
Contraction scheme used                     ... PARTIAL GENERAL contraction
Coulomb Range Separation                    ... NOT USED
Exchange Range Separation                   ... NOT USED
Finite Nucleus Model                        ... NOT USED
Auxiliary Coulomb fitting basis             ... NOT available
Auxiliary J/K fitting basis                 ... NOT available
Auxiliary Correlation fitting basis         ... NOT available
Auxiliary 'external' fitting basis          ... NOT available
Integral threshold                          ...     2.500000e-11
Primitive cut-off                           ...     2.500000e-12
Primitive pair pre-selection threshold      ...     2.500000e-12

Calculating pre-screening integrals         ... done (  0.1 sec) Dimension = 738
Calculating pre-screening integrals (ORCA)  ... done (  0.3 sec) Dimension = 426
Organizing shell pair data                  ... done (  0.6 sec)
Shell pair information
Total number of shell pairs                 ...    272691
Shell pairs after pre-screening             ...     71590
Total number of primitive shell pairs       ...    422091
Primitive shell pairs kept                  ...     92345
          la=0 lb=0:  29410 shell pairs
          la=1 lb=0:  25959 shell pairs
          la=1 lb=1:   4683 shell pairs
          la=2 lb=0:   7881 shell pairs
          la=2 lb=1:   3126 shell pairs
          la=2 lb=2:    531 shell pairs

Calculating one electron integrals          ... done (  0.3 sec)
Calculating Nuclear repulsion               ... done (  0.0 sec) ENN=   6222.537465581233 Eh

SHARK setup successfully completed in   1.8 seconds

Maximum memory used throughout the entire GTOINT-calculation: 99.0 MB


           ************************************************************
           *        Program running with 8 parallel MPI-processes     *
           *              working on a common directory               *
           ************************************************************
-------------------------------------------------------------------------------
                                 ORCA SCF
-------------------------------------------------------------------------------

------------
SCF SETTINGS
------------
Hamiltonian:
 Ab initio Hamiltonian  Method          .... Hartree-Fock(GTOs)


General Settings:
 Integral files         IntName         .... /scratch/chu_02/allen/tmpyp4_amber_gaff2/conf1/conf1/Conf286.orca
 Hartree-Fock type      HFTyp           .... RHF
 Total Charge           Charge          ....    0
 Multiplicity           Mult            ....    1
 Number of Electrons    NEL             ....  358
 Basis Dimension        Dim             ....  918
 Nuclear Repulsion      ENuc            ....   6222.5374655812 Eh

Convergence Acceleration:
 DIIS                   CNVDIIS         .... on
   Start iteration      DIISMaxIt       ....    12
   Startup error        DIISStart       ....  0.200000
   # of expansion vecs  DIISMaxEq       ....     5
   Bias factor          DIISBfac        ....   1.050
   Max. coefficient     DIISMaxC        ....  10.000
 Trust-Rad. Augm. Hess. CNVTRAH         .... auto
   Auto Start mean grad. ratio tolernc. ....  1.125000
   Auto Start start iteration           ....    20
   Auto Start num. interpolation iter.  ....    10
   Max. Number of Micro iterations      ....    16
   Max. Number of Macro iterations      .... Maxiter - #DIIS iter
   Number of Davidson start vectors     ....     2
   Converg. threshold I  (grad. norm)   ....   1.000e-05
   Converg. threshold II (energy diff.) ....   1.000e-08
   Grad. Scal. Fac. for Micro threshold ....   0.100
   Minimum threshold for Micro iter.    ....   0.010
   NR start threshold (gradient norm)   ....   0.001
   Initial trust radius                 ....   0.400
   Minimum AH scaling param. (alpha)    ....   1.000
   Maximum AH scaling param. (alpha)    .... 1000.000
   Orbital update algorithm             .... Taylor
   White noise on init. David. guess    .... on
   Maximum white noise                  ....   0.010
   Quad. conv. algorithm                .... NR
 SOSCF                  CNVSOSCF        .... on
   Start iteration      SOSCFMaxIt      ....   150
   Startup grad/error   SOSCFStart      ....  0.003300
 Level Shifting         CNVShift        .... on
   Level shift para.    LevelShift      ....    0.2500
   Turn off err/grad.   ShiftErr        ....    0.0010
 Zerner damping         CNVZerner       .... off
 Static damping         CNVDamp         .... on
   Fraction old density DampFac         ....    0.7000
   Max. Damping (<1)    DampMax         ....    0.9800
   Min. Damping (>=0)   DampMin         ....    0.0000
   Turn off err/grad.   DampErr         ....    0.1000
 Fernandez-Rico         CNVRico         .... off

SCF Procedure:
 Maximum # iterations   MaxIter         ....   125
 SCF integral mode      SCFMode         .... Direct
   Integral package                     .... SHARK and LIBINT hybrid scheme
 Reset frequency        DirectResetFreq ....    20
 Integral Threshold     Thresh          ....  2.500e-11 Eh
 Primitive CutOff       TCut            ....  2.500e-12 Eh

Convergence Tolerance:
 Convergence Check Mode ConvCheckMode   .... Total+1el-Energy
 Convergence forced     ConvForced      .... 1
 Energy Change          TolE            ....  1.000e-08 Eh
 1-El. energy change                    ....  1.000e-05 Eh
 Orbital Gradient       TolG            ....  1.000e-05
 Orbital Rotation angle TolX            ....  1.000e-05
 DIIS Error             TolErr          ....  5.000e-07


Diagonalization of the overlap matrix:
Smallest eigenvalue                        ... 2.262e-04
Time for diagonalization                   ...    0.216 sec
Threshold for overlap eigenvalues          ... 1.000e-08
Number of eigenvalues below threshold      ... 0
Time for construction of square roots      ...    0.132 sec
Total time needed                          ...    0.352 sec

Time for model grid setup =    1.331 sec

------------------------------
INITIAL GUESS: MODEL POTENTIAL
------------------------------
Loading Hartree-Fock densities                     ... done
Calculating cut-offs                               ... done
Initializing the effective Hamiltonian             ... done
Setting up the integral package (SHARK)            ... done
Starting the Coulomb interaction                   ... done (   1.6 sec)
Reading the grid                                   ... done
Mapping shells                                     ... done
Starting the XC term evaluation                    ... done (   0.3 sec)
Transforming the Hamiltonian                       ... done (   0.1 sec)
Diagonalizing the Hamiltonian                      ... done (   0.2 sec)
Back transforming the eigenvectors                 ... done (   0.0 sec)
Now organizing SCF variables                       ... done
                      ------------------
                      INITIAL GUESS DONE (   3.7 sec)
                      ------------------
--------------
SCF ITERATIONS
--------------
ITER       Energy         Delta-E        Max-DP      RMS-DP      [F,P]     Damp
               ***  Starting incremental Fock matrix formation  ***
  0  -2121.6516828770   0.000000000000 0.06926150  0.00121116  0.2344216 0.7000
  1  -2122.3203990167  -0.668716139768 0.05261726  0.00098161  0.1449696 0.7000
                               ***Turning on DIIS***
  2  -2122.7361137333  -0.415714716519 0.11684601  0.00222072  0.0805045 0.0000
  3  -2117.6964577194   5.039656013900 0.03277908  0.00068684  0.0444342 0.0000
  4  -2123.4019672458  -5.705509526448 0.00893306  0.00022990  0.0071151 0.0000
  5  -2123.5832432386  -0.181275992814 0.00518014  0.00013730  0.0050363 0.0000
  6  -2123.5650876269   0.018155611715 0.00371066  0.00009154  0.0021611 0.0000
  7  -2123.6707651895  -0.105677562646 0.00322711  0.00007486  0.0016580 0.0000
  8  -2123.6971906206  -0.026425431015 0.00301322  0.00007375  0.0015450 0.0000
  9  -2123.6573992374   0.039791383180 0.00260038  0.00005245  0.0012171 0.0000
 10  -2123.6784117711  -0.021012533709 0.00643091  0.00011594  0.0009184 0.0000
                      *** Initiating the SOSCF procedure ***
                           *** Shutting down DIIS ***
                      *** Re-Reading the Fockian *** 
                      *** Removing any level shift *** 
ITER      Energy       Delta-E        Grad      Rot      Max-DP    RMS-DP
 11  -2123.52387121   0.1545405629  0.000235  0.000235  0.000266  0.000006
               *** Restarting incremental Fock matrix formation ***
 12  -2123.61506805  -0.0911968467  0.000906  0.006504  0.001565  0.000039
 13  -2123.61520117  -0.0001331165  0.001180  0.029784  0.008150  0.000142
 14  -2123.61542587  -0.0002246965  0.000380  0.003678  0.001107  0.000020
 15  -2123.61545583  -0.0000299648  0.000405  0.013903  0.002814  0.000052
 16  -2123.61549434  -0.0000385089  0.000250  0.007418  0.001361  0.000030
 17  -2123.61551128  -0.0000169398  0.000353  0.010861  0.001514  0.000035
 18  -2123.61552839  -0.0000171045  0.000250  0.007596  0.001318  0.000025
 19  -2123.61553699  -0.0000085991  0.000148  0.002841  0.000575  0.000009
 20  -2123.61553928  -0.0000022904  0.000101  0.001923  0.000364  0.000007
 21  -2123.61554103  -0.0000017542  0.000066  0.002071  0.000328  0.000008
 22  -2123.61554225  -0.0000012251  0.000050  0.001782  0.000313  0.000006
 23  -2123.61554290  -0.0000006432  0.000041  0.001235  0.000228  0.000004
 24  -2123.61554322  -0.0000003222  0.000020  0.000579  0.000129  0.000002
 25  -2123.61554337  -0.0000001529  0.000018  0.000485  0.000098  0.000002
 26  -2123.61554346  -0.0000000876  0.000016  0.000607  0.000115  0.000002
 27  -2123.61554353  -0.0000000662  0.000014  0.000459  0.000087  0.000002
 28  -2123.61554356  -0.0000000375  0.000009  0.000284  0.000050  0.000001
 29  -2123.61554359  -0.0000000234  0.000005  0.000097  0.000020  0.000000
 30  -2123.61554360  -0.0000000082  0.000003  0.000034  0.000010  0.000000
                  ***Gradient check signals convergence***
              ***Rediagonalizing the Fockian in SOSCF/NRSCF***

               *****************************************************
               *                     SUCCESS                       *
               *           SCF CONVERGED AFTER  31 CYCLES          *
               *****************************************************


----------------
TOTAL SCF ENERGY
----------------

Total Energy       :        -2123.61554360 Eh          -57786.51675 eV

Components:
Nuclear Repulsion  :         6222.53746558 Eh          169323.85270 eV
Electronic Energy  :        -8346.15300918 Eh         -227110.36945 eV
One Electron Energy:       -15286.49896062 Eh         -415966.78406 eV
Two Electron Energy:         6940.34595144 Eh          188856.41461 eV

Virial components:
Potential Energy   :        -4245.59720106 Eh         -115528.57320 eV
Kinetic Energy     :         2121.98165746 Eh           57742.05645 eV
Virial Ratio       :            2.00076998


---------------
SCF CONVERGENCE
---------------

  Last Energy change         ...   -1.3206e-09  Tolerance :   1.0000e-08
  Last MAX-Density change    ...    1.3656e-05  Tolerance :   1.0000e-07
  Last RMS-Density change    ...    1.8842e-07  Tolerance :   5.0000e-09
  Last Orbital Gradient      ...    2.2753e-06  Tolerance :   1.0000e-05
  Last Orbital Rotation      ...    3.7050e-05  Tolerance :   1.0000e-05

             **** THE GBW FILE WAS UPDATED (/scratch/chu_02/allen/tmpyp4_amber_gaff2/conf1/conf1/Conf286.orca.gbw) ****
             **** DENSITY /scratch/chu_02/allen/tmpyp4_amber_gaff2/conf1/conf1/Conf286.orca.scfp WAS UPDATED ****
             **** ENERGY FILE WAS UPDATED (/scratch/chu_02/allen/tmpyp4_amber_gaff2/conf1/conf1/Conf286.orca.en.tmp) ****
             **** THE GBW FILE WAS UPDATED (/scratch/chu_02/allen/tmpyp4_amber_gaff2/conf1/conf1/Conf286.orca.gbw) ****
             **** DENSITY /scratch/chu_02/allen/tmpyp4_amber_gaff2/conf1/conf1/Conf286.orca.scfp WAS UPDATED ****
----------------
ORBITAL ENERGIES
----------------

  NO   OCC          E(Eh)            E(eV) 
   0   2.0000     -15.675302      -426.5467 
   1   2.0000     -15.636398      -425.4880 
   2   2.0000     -15.624735      -425.1707 
   3   2.0000     -15.601702      -424.5439 
   4   2.0000     -15.517605      -422.2555 
   5   2.0000     -15.510384      -422.0590 
   6   2.0000     -15.447819      -420.3565 
   7   2.0000     -15.433740      -419.9734 
   8   2.0000     -11.324169      -308.1463 
   9   2.0000     -11.323218      -308.1204 
  10   2.0000     -11.322514      -308.1013 
  11   2.0000     -11.300938      -307.5142 
  12   2.0000     -11.294869      -307.3490 
  13   2.0000     -11.293334      -307.3072 
  14   2.0000     -11.289195      -307.1946 
  15   2.0000     -11.284521      -307.0674 
  16   2.0000     -11.279128      -306.9207 
  17   2.0000     -11.279057      -306.9187 
  18   2.0000     -11.274304      -306.7894 
  19   2.0000     -11.264415      -306.5203 
  20   2.0000     -11.261055      -306.4289 
  21   2.0000     -11.258456      -306.3582 
  22   2.0000     -11.258337      -306.3549 
  23   2.0000     -11.239790      -305.8502 
  24   2.0000     -11.232163      -305.6427 
  25   2.0000     -11.231351      -305.6206 
  26   2.0000     -11.228871      -305.5531 
  27   2.0000     -11.223193      -305.3986 
  28   2.0000     -11.223027      -305.3941 
  29   2.0000     -11.207962      -304.9841 
  30   2.0000     -11.206687      -304.9495 
  31   2.0000     -11.205880      -304.9275 
  32   2.0000     -11.202395      -304.8327 
  33   2.0000     -11.202208      -304.8276 
  34   2.0000     -11.188533      -304.4554 
  35   2.0000     -11.188494      -304.4544 
  36   2.0000     -11.183500      -304.3185 
  37   2.0000     -11.183285      -304.3127 
  38   2.0000     -11.181315      -304.2590 
  39   2.0000     -11.168299      -303.9049 
  40   2.0000     -11.165856      -303.8384 
  41   2.0000     -11.162888      -303.7576 
  42   2.0000     -11.158843      -303.6476 
  43   2.0000     -11.156944      -303.5959 
  44   2.0000     -11.155457      -303.5554 
  45   2.0000     -11.154914      -303.5407 
  46   2.0000     -11.152683      -303.4799 
  47   2.0000     -11.151494      -303.4476 
  48   2.0000     -11.148990      -303.3794 
  49   2.0000     -11.142810      -303.2113 
  50   2.0000     -11.126778      -302.7750 
  51   2.0000     -11.123789      -302.6937 
  52   2.0000      -1.355419       -36.8828 
  53   2.0000      -1.323322       -36.0094 
  54   2.0000      -1.312898       -35.7258 
  55   2.0000      -1.293503       -35.1980 
  56   2.0000      -1.218472       -33.1563 
  57   2.0000      -1.207273       -32.8516 
  58   2.0000      -1.168466       -31.7956 
  59   2.0000      -1.145757       -31.1776 
  60   2.0000      -1.137727       -30.9591 
  61   2.0000      -1.111332       -30.2409 
  62   2.0000      -1.102128       -29.9904 
  63   2.0000      -1.084967       -29.5235 
  64   2.0000      -1.076885       -29.3035 
  65   2.0000      -1.047243       -28.4969 
  66   2.0000      -1.037508       -28.2320 
  67   2.0000      -1.035445       -28.1759 
  68   2.0000      -1.019518       -27.7425 
  69   2.0000      -1.013493       -27.5785 
  70   2.0000      -1.005801       -27.3692 
  71   2.0000      -0.989885       -26.9361 
  72   2.0000      -0.984017       -26.7765 
  73   2.0000      -0.976323       -26.5671 
  74   2.0000      -0.970124       -26.3984 
  75   2.0000      -0.959488       -26.1090 
  76   2.0000      -0.950658       -25.8687 
  77   2.0000      -0.946032       -25.7428 
  78   2.0000      -0.927984       -25.2517 
  79   2.0000      -0.919567       -25.0227 
  80   2.0000      -0.903687       -24.5906 
  81   2.0000      -0.888672       -24.1820 
  82   2.0000      -0.874745       -23.8030 
  83   2.0000      -0.868162       -23.6239 
  84   2.0000      -0.864515       -23.5247 
  85   2.0000      -0.852758       -23.2047 
  86   2.0000      -0.845783       -23.0149 
  87   2.0000      -0.832863       -22.6633 
  88   2.0000      -0.822331       -22.3768 
  89   2.0000      -0.796332       -21.6693 
  90   2.0000      -0.793177       -21.5834 
  91   2.0000      -0.748643       -20.3716 
  92   2.0000      -0.733704       -19.9651 
  93   2.0000      -0.726808       -19.7774 
  94   2.0000      -0.721936       -19.6449 
  95   2.0000      -0.716333       -19.4924 
  96   2.0000      -0.710429       -19.3317 
  97   2.0000      -0.707283       -19.2461 
  98   2.0000      -0.700761       -19.0687 
  99   2.0000      -0.694198       -18.8901 
 100   2.0000      -0.693680       -18.8760 
 101   2.0000      -0.683323       -18.5942 
 102   2.0000      -0.679569       -18.4920 
 103   2.0000      -0.677845       -18.4451 
 104   2.0000      -0.672299       -18.2942 
 105   2.0000      -0.668688       -18.1959 
 106   2.0000      -0.665723       -18.1152 
 107   2.0000      -0.656748       -17.8710 
 108   2.0000      -0.654731       -17.8161 
 109   2.0000      -0.652254       -17.7487 
 110   2.0000      -0.648481       -17.6461 
 111   2.0000      -0.646599       -17.5949 
 112   2.0000      -0.641233       -17.4488 
 113   2.0000      -0.640159       -17.4196 
 114   2.0000      -0.634360       -17.2618 
 115   2.0000      -0.630305       -17.1515 
 116   2.0000      -0.622252       -16.9323 
 117   2.0000      -0.616097       -16.7649 
 118   2.0000      -0.613820       -16.7029 
 119   2.0000      -0.609665       -16.5898 
 120   2.0000      -0.606784       -16.5114 
 121   2.0000      -0.605229       -16.4691 
 122   2.0000      -0.595739       -16.2109 
 123   2.0000      -0.589692       -16.0463 
 124   2.0000      -0.588408       -16.0114 
 125   2.0000      -0.582909       -15.8618 
 126   2.0000      -0.575809       -15.6686 
 127   2.0000      -0.573308       -15.6005 
 128   2.0000      -0.566991       -15.4286 
 129   2.0000      -0.560783       -15.2597 
 130   2.0000      -0.557270       -15.1641 
 131   2.0000      -0.547337       -14.8938 
 132   2.0000      -0.541286       -14.7291 
 133   2.0000      -0.538956       -14.6657 
 134   2.0000      -0.534434       -14.5427 
 135   2.0000      -0.531721       -14.4689 
 136   2.0000      -0.521780       -14.1983 
 137   2.0000      -0.519474       -14.1356 
 138   2.0000      -0.515168       -14.0184 
 139   2.0000      -0.512287       -13.9400 
 140   2.0000      -0.510393       -13.8885 
 141   2.0000      -0.507992       -13.8232 
 142   2.0000      -0.502306       -13.6684 
 143   2.0000      -0.499756       -13.5990 
 144   2.0000      -0.496016       -13.4973 
 145   2.0000      -0.495482       -13.4827 
 146   2.0000      -0.493372       -13.4253 
 147   2.0000      -0.486356       -13.2344 
 148   2.0000      -0.482962       -13.1421 
 149   2.0000      -0.464760       -12.6468 
 150   2.0000      -0.462164       -12.5761 
 151   2.0000      -0.455347       -12.3906 
 152   2.0000      -0.449220       -12.2239 
 153   2.0000      -0.442082       -12.0297 
 154   2.0000      -0.439646       -11.9634 
 155   2.0000      -0.438343       -11.9279 
 156   2.0000      -0.428232       -11.6528 
 157   2.0000      -0.421196       -11.4613 
 158   2.0000      -0.398665       -10.8482 
 159   2.0000      -0.384485       -10.4624 
 160   2.0000      -0.382961       -10.4209 
 161   2.0000      -0.372844       -10.1456 
 162   2.0000      -0.362012        -9.8508 
 163   2.0000      -0.357997        -9.7416 
 164   2.0000      -0.349621        -9.5137 
 165   2.0000      -0.339006        -9.2248 
 166   2.0000      -0.336560        -9.1583 
 167   2.0000      -0.334328        -9.0975 
 168   2.0000      -0.319451        -8.6927 
 169   2.0000      -0.299429        -8.1479 
 170   2.0000      -0.297203        -8.0873 
 171   2.0000      -0.285542        -7.7700 
 172   2.0000      -0.283230        -7.7071 
 173   2.0000      -0.260801        -7.0967 
 174   2.0000      -0.237919        -6.4741 
 175   2.0000      -0.185323        -5.0429 
 176   2.0000      -0.175058        -4.7636 
 177   2.0000      -0.062411        -1.6983 
 178   2.0000      -0.051967        -1.4141 
 179   0.0000       0.033581         0.9138 
 180   0.0000       0.063912         1.7391 
 181   0.0000       0.091811         2.4983 
 182   0.0000       0.096459         2.6248 
 183   0.0000       0.111447         3.0326 
 184   0.0000       0.136242         3.7073 
 185   0.0000       0.144601         3.9348 
 186   0.0000       0.145013         3.9460 
 187   0.0000       0.160654         4.3716 
 188   0.0000       0.163379         4.4458 
 189   0.0000       0.163723         4.4551 
 190   0.0000       0.170190         4.6311 
 191   0.0000       0.182244         4.9591 
 192   0.0000       0.183919         5.0047 
 193   0.0000       0.187508         5.1024 
 194   0.0000       0.202769         5.5176 
 195   0.0000       0.207936         5.6582 
 196   0.0000       0.209971         5.7136 
 197   0.0000       0.214179         5.8281 
 198   0.0000       0.220193         5.9917 
 199   0.0000       0.222816         6.0631 
 200   0.0000       0.225994         6.1496 
 201   0.0000       0.237295         6.4571 
 202   0.0000       0.238185         6.4814 
 203   0.0000       0.243917         6.6373 
 204   0.0000       0.248109         6.7514 
 205   0.0000       0.254938         6.9372 
 206   0.0000       0.255828         6.9614 
 207   0.0000       0.257503         7.0070 
 208   0.0000       0.261114         7.1053 
 209   0.0000       0.263348         7.1661 
 210   0.0000       0.265582         7.2268 
 211   0.0000       0.268521         7.3068 
 212   0.0000       0.270177         7.3519 
 213   0.0000       0.272808         7.4235 
 214   0.0000       0.274350         7.4655 
 215   0.0000       0.276388         7.5209 
 216   0.0000       0.279760         7.6126 
 217   0.0000       0.284452         7.7403 
 218   0.0000       0.286323         7.7912 
 219   0.0000       0.287861         7.8331 
 220   0.0000       0.291604         7.9349 
 221   0.0000       0.294028         8.0009 
 222   0.0000       0.295734         8.0473 
 223   0.0000       0.296876         8.0784 
 224   0.0000       0.297276         8.0893 
 225   0.0000       0.302642         8.2353 
 226   0.0000       0.303930         8.2704 
 227   0.0000       0.306897         8.3511 
 228   0.0000       0.309088         8.4107 
 229   0.0000       0.313411         8.5284 
 230   0.0000       0.317102         8.6288 
 231   0.0000       0.321501         8.7485 
 232   0.0000       0.324513         8.8304 
 233   0.0000       0.329887         8.9767 
 234   0.0000       0.334367         9.0986 
 235   0.0000       0.346674         9.4335 
 236   0.0000       0.358388         9.7522 
 237   0.0000       0.372517        10.1367 
 238   0.0000       0.395975        10.7750 
 239   0.0000       0.396995        10.8028 
 240   0.0000       0.403370        10.9763 
 241   0.0000       0.410665        11.1748 
 242   0.0000       0.414913        11.2904 
 243   0.0000       0.416427        11.3316 
 244   0.0000       0.423387        11.5210 
 245   0.0000       0.431633        11.7453 
 246   0.0000       0.434352        11.8193 
 247   0.0000       0.439153        11.9500 
 248   0.0000       0.442270        12.0348 
 249   0.0000       0.447035        12.1644 
 250   0.0000       0.447543        12.1783 
 251   0.0000       0.455030        12.3820 
 252   0.0000       0.457783        12.4569 
 253   0.0000       0.462635        12.5889 
 254   0.0000       0.470197        12.7947 
 255   0.0000       0.477127        12.9833 
 256   0.0000       0.482039        13.1169 
 257   0.0000       0.486508        13.2386 
 258   0.0000       0.487111        13.2550 
 259   0.0000       0.494447        13.4546 
 260   0.0000       0.499392        13.5892 
 261   0.0000       0.503722        13.7070 
 262   0.0000       0.506633        13.7862 
 263   0.0000       0.507160        13.8005 
 264   0.0000       0.512626        13.9493 
 265   0.0000       0.516998        14.0682 
 266   0.0000       0.522188        14.2095 
 267   0.0000       0.526589        14.3292 
 268   0.0000       0.531862        14.4727 
 269   0.0000       0.536716        14.6048 
 270   0.0000       0.543255        14.7827 
 271   0.0000       0.545121        14.8335 
 272   0.0000       0.545860        14.8536 
 273   0.0000       0.554458        15.0876 
 274   0.0000       0.562966        15.3191 
 275   0.0000       0.565874        15.3982 
 276   0.0000       0.568694        15.4749 
 277   0.0000       0.571463        15.5503 
 278   0.0000       0.578639        15.7456 
 279   0.0000       0.579995        15.7825 
 280   0.0000       0.587838        15.9959 
 281   0.0000       0.591587        16.0979 
 282   0.0000       0.593027        16.1371 
 283   0.0000       0.597691        16.2640 
 284   0.0000       0.600522        16.3410 
 285   0.0000       0.601543        16.3688 
 286   0.0000       0.607073        16.5193 
 287   0.0000       0.614137        16.7115 
 288   0.0000       0.614969        16.7341 
 289   0.0000       0.616779        16.7834 
 290   0.0000       0.623462        16.9653 
 291   0.0000       0.625801        17.0289 
 292   0.0000       0.630044        17.1444 
 293   0.0000       0.632805        17.2195 
 294   0.0000       0.645402        17.5623 
 295   0.0000       0.649830        17.6828 
 296   0.0000       0.653858        17.7924 
 297   0.0000       0.658644        17.9226 
 298   0.0000       0.664761        18.0891 
 299   0.0000       0.667123        18.1534 
 300   0.0000       0.670680        18.2501 
 301   0.0000       0.674007        18.3407 
 302   0.0000       0.675873        18.3914 
 303   0.0000       0.677454        18.4345 
 304   0.0000       0.682895        18.5825 
 305   0.0000       0.684740        18.6327 
 306   0.0000       0.685657        18.6577 
 307   0.0000       0.687438        18.7061 
 308   0.0000       0.691570        18.8186 
 309   0.0000       0.694279        18.8923 
 310   0.0000       0.701713        19.0946 
 311   0.0000       0.703355        19.1393 
 312   0.0000       0.709103        19.2957 
 313   0.0000       0.709950        19.3187 
 314   0.0000       0.711618        19.3641 
 315   0.0000       0.714167        19.4335 
 316   0.0000       0.717022        19.5112 
 317   0.0000       0.718883        19.5618 
 318   0.0000       0.721835        19.6421 
 319   0.0000       0.723761        19.6945 
 320   0.0000       0.724421        19.7125 
 321   0.0000       0.728999        19.8371 
 322   0.0000       0.729090        19.8395 
 323   0.0000       0.733711        19.9653 
 324   0.0000       0.737266        20.0620 
 325   0.0000       0.739194        20.1145 
 326   0.0000       0.741334        20.1727 
 327   0.0000       0.741823        20.1860 
 328   0.0000       0.750137        20.4123 
 329   0.0000       0.751680        20.4543 
 330   0.0000       0.755485        20.5578 
 331   0.0000       0.756712        20.5912 
 332   0.0000       0.758566        20.6416 
 333   0.0000       0.762470        20.7479 
 334   0.0000       0.767592        20.8872 
 335   0.0000       0.767744        20.8914 
 336   0.0000       0.773468        21.0471 
 337   0.0000       0.778344        21.1798 
 338   0.0000       0.783956        21.3325 
 339   0.0000       0.786208        21.3938 
 340   0.0000       0.790574        21.5126 
 341   0.0000       0.792065        21.5532 
 342   0.0000       0.794729        21.6257 
 343   0.0000       0.798203        21.7202 
 344   0.0000       0.802169        21.8281 
 345   0.0000       0.805110        21.9082 
 346   0.0000       0.809665        22.0321 
 347   0.0000       0.811631        22.0856 
 348   0.0000       0.813010        22.1231 
 349   0.0000       0.816555        22.2196 
 350   0.0000       0.818178        22.2638 
 351   0.0000       0.818853        22.2821 
 352   0.0000       0.822457        22.3802 
 353   0.0000       0.823287        22.4028 
 354   0.0000       0.828287        22.5388 
 355   0.0000       0.829283        22.5659 
 356   0.0000       0.832818        22.6621 
 357   0.0000       0.834660        22.7122 
 358   0.0000       0.837586        22.7919 
 359   0.0000       0.838368        22.8132 
 360   0.0000       0.842003        22.9121 
 361   0.0000       0.842985        22.9388 
 362   0.0000       0.845081        22.9958 
 363   0.0000       0.847966        23.0743 
 364   0.0000       0.850538        23.1443 
 365   0.0000       0.852154        23.1883 
 366   0.0000       0.855408        23.2768 
 367   0.0000       0.858217        23.3533 
 368   0.0000       0.859742        23.3948 
 369   0.0000       0.862894        23.4805 
 370   0.0000       0.865698        23.5568 
 371   0.0000       0.866902        23.5896 
 372   0.0000       0.873721        23.7751 
 373   0.0000       0.875605        23.8264 
 374   0.0000       0.878999        23.9188 
 375   0.0000       0.882133        24.0040 
 376   0.0000       0.884629        24.0720 
 377   0.0000       0.888277        24.1712 
 378   0.0000       0.889176        24.1957 
 379   0.0000       0.891567        24.2608 
 380   0.0000       0.894433        24.3388 
 381   0.0000       0.897589        24.4246 
 382   0.0000       0.900568        24.5057 
 383   0.0000       0.903964        24.5981 
 384   0.0000       0.904966        24.6254 
 385   0.0000       0.907734        24.7007 
 386   0.0000       0.908000        24.7079 
 387   0.0000       0.911484        24.8027 
 388   0.0000       0.915432        24.9102 
 389   0.0000       0.917118        24.9560 
 390   0.0000       0.919973        25.0337 
 391   0.0000       0.922602        25.1053 
 392   0.0000       0.923111        25.1191 
 393   0.0000       0.925668        25.1887 
 394   0.0000       0.929251        25.2862 
 395   0.0000       0.930659        25.3245 
 396   0.0000       0.933393        25.3989 
 397   0.0000       0.934599        25.4317 
 398   0.0000       0.938492        25.5377 
 399   0.0000       0.941042        25.6070 
 400   0.0000       0.944752        25.7080 
 401   0.0000       0.948872        25.8201 
 402   0.0000       0.952202        25.9107 
 403   0.0000       0.956424        26.0256 
 404   0.0000       0.956658        26.0320 
 405   0.0000       0.958699        26.0875 
 406   0.0000       0.959090        26.0982 
 407   0.0000       0.964458        26.2442 
 408   0.0000       0.965087        26.2614 
 409   0.0000       0.967314        26.3220 
 410   0.0000       0.975446        26.5432 
 411   0.0000       0.981093        26.6969 
 412   0.0000       0.985122        26.8065 
 413   0.0000       0.987585        26.8736 
 414   0.0000       0.994083        27.0504 
 415   0.0000       0.994694        27.0670 
 416   0.0000       1.002701        27.2849 
 417   0.0000       1.005029        27.3482 
 418   0.0000       1.009101        27.4590 
 419   0.0000       1.016984        27.6735 
 420   0.0000       1.020010        27.7559 
 421   0.0000       1.026605        27.9353 
 422   0.0000       1.033583        28.1252 
 423   0.0000       1.036261        28.1981 
 424   0.0000       1.041736        28.3471 
 425   0.0000       1.049577        28.5604 
 426   0.0000       1.055788        28.7294 
 427   0.0000       1.059853        28.8401 
 428   0.0000       1.068584        29.0776 
 429   0.0000       1.071778        29.1646 
 430   0.0000       1.080505        29.4020 
 431   0.0000       1.083863        29.4934 
 432   0.0000       1.088043        29.6072 
 433   0.0000       1.090549        29.6754 
 434   0.0000       1.095050        29.7978 
 435   0.0000       1.100541        29.9473 
 436   0.0000       1.104911        30.0662 
 437   0.0000       1.110934        30.2301 
 438   0.0000       1.114781        30.3347 
 439   0.0000       1.116065        30.3697 
 440   0.0000       1.118907        30.4470 
 441   0.0000       1.123522        30.5726 
 442   0.0000       1.126967        30.6663 
 443   0.0000       1.129064        30.7234 
 444   0.0000       1.134254        30.8646 
 445   0.0000       1.136043        30.9133 
 446   0.0000       1.138852        30.9898 
 447   0.0000       1.142327        31.0843 
 448   0.0000       1.144271        31.1372 
 449   0.0000       1.149637        31.2832 
 450   0.0000       1.153989        31.4016 
 451   0.0000       1.156809        31.4784 
 452   0.0000       1.158609        31.5274 
 453   0.0000       1.159263        31.5452 
 454   0.0000       1.161598        31.6087 
 455   0.0000       1.168415        31.7942 
 456   0.0000       1.170103        31.8401 
 457   0.0000       1.176666        32.0187 
 458   0.0000       1.178780        32.0762 
 459   0.0000       1.187453        32.3122 
 460   0.0000       1.188303        32.3354 
 461   0.0000       1.191637        32.4261 
 462   0.0000       1.201873        32.7046 
 463   0.0000       1.208042        32.8725 
 464   0.0000       1.209899        32.9230 
 465   0.0000       1.210130        32.9293 
 466   0.0000       1.211027        32.9537 
 467   0.0000       1.218605        33.1599 
 468   0.0000       1.223865        33.3031 
 469   0.0000       1.226775        33.3822 
 470   0.0000       1.227524        33.4026 
 471   0.0000       1.231303        33.5055 
 472   0.0000       1.238210        33.6934 
 473   0.0000       1.241614        33.7860 
 474   0.0000       1.243821        33.8461 
 475   0.0000       1.247098        33.9353 
 476   0.0000       1.249132        33.9906 
 477   0.0000       1.249680        34.0055 
 478   0.0000       1.254922        34.1482 
 479   0.0000       1.256085        34.1798 
 480   0.0000       1.259997        34.2863 
 481   0.0000       1.262121        34.3440 
 482   0.0000       1.264959        34.4213 
 483   0.0000       1.268922        34.5291 
 484   0.0000       1.271447        34.5978 
 485   0.0000       1.276905        34.7463 
 486   0.0000       1.279936        34.8288 
 487   0.0000       1.284536        34.9540 
 488   0.0000       1.288227        35.0544 
 489   0.0000       1.291775        35.1510 
 490   0.0000       1.295309        35.2472 
 491   0.0000       1.298098        35.3230 
 492   0.0000       1.305300        35.5190 
 493   0.0000       1.308131        35.5961 
 494   0.0000       1.310348        35.6564 
 495   0.0000       1.314670        35.7740 
 496   0.0000       1.316200        35.8156 
 497   0.0000       1.319701        35.9109 
 498   0.0000       1.331540        36.2331 
 499   0.0000       1.332189        36.2507 
 500   0.0000       1.334538        36.3146 
 501   0.0000       1.335183        36.3322 
 502   0.0000       1.340275        36.4707 
 503   0.0000       1.343637        36.5622 
[...]
 76 H s       :     0.897615  s :     0.897615
      pz      :     0.021832  p :     0.079367
      px      :     0.042998
      py      :     0.014538
 77 H s       :     0.893478  s :     0.893478
      pz      :     0.047286  p :     0.078515
      px      :     0.015005
      py      :     0.016224
 78 H s       :     0.893892  s :     0.893892
      pz      :     0.025529  p :     0.078433
      px      :     0.020658
      py      :     0.032247
 79 H s       :     0.907683  s :     0.907683
      pz      :     0.022413  p :     0.087077
      px      :     0.021861
      py      :     0.042803
 80 H s       :     0.876869  s :     0.876869
      pz      :     0.038383  p :     0.083479
      px      :     0.029623
      py      :     0.015473
 81 H s       :     0.887863  s :     0.887863
      pz      :     0.037647  p :     0.083497
      px      :     0.016081
      py      :     0.029769
 82 H s       :     0.914571  s :     0.914571
      pz      :     0.022362  p :     0.087041
      px      :     0.031059
      py      :     0.033620
 83 H s       :     0.872085  s :     0.872085
      pz      :     0.039219  p :     0.083800
      px      :     0.015240
      py      :     0.029340
 84 H s       :     0.887894  s :     0.887894
      pz      :     0.035817  p :     0.084152
      px      :     0.031771
      py      :     0.016563
 85 H s       :     0.894923  s :     0.894923
      pz      :     0.022510  p :     0.079656
      px      :     0.014120
      py      :     0.043026
 86 H s       :     0.890559  s :     0.890559
      pz      :     0.024715  p :     0.078896
      px      :     0.033007
      py      :     0.021174
 87 H s       :     0.890671  s :     0.890671
      pz      :     0.047883  p :     0.078648
      px      :     0.015639
      py      :     0.015125
 88 H s       :     0.917113  s :     0.917113
      pz      :     0.022440  p :     0.086882
      px      :     0.042124
      py      :     0.022317
 89 H s       :     0.873730  s :     0.873730
      pz      :     0.037866  p :     0.084013
      px      :     0.030508
      py      :     0.015638


                      *****************************
                      * MAYER POPULATION ANALYSIS *
                      *****************************

  NA   - Mulliken gross atomic population
  ZA   - Total nuclear charge
  QA   - Mulliken gross atomic charge
  VA   - Mayer's total valence
  BVA  - Mayer's bonded valence
  FA   - Mayer's free valence

  ATOM       NA         ZA         QA         VA         BVA        FA
  0 C      5.7792     6.0000     0.2208     3.8143     3.8143     0.0000
  1 N      7.4266     7.0000    -0.4266     3.4289     3.4289    -0.0000
  2 C      6.0674     6.0000    -0.0674     3.9177     3.9177     0.0000
  3 N      7.3417     7.0000    -0.3417     3.4306     3.4306     0.0000
  4 C      6.0840     6.0000    -0.0840     3.9746     3.9746     0.0000
  5 N      7.5642     7.0000    -0.5642     3.0747     3.0747     0.0000
  6 C      6.0349     6.0000    -0.0349     3.9766     3.9766    -0.0000
  7 N      7.3373     7.0000    -0.3373     3.4439     3.4439    -0.0000
  8 C      5.7800     6.0000     0.2200     3.8133     3.8133    -0.0000
  9 N      7.5647     7.0000    -0.5647     3.0893     3.0893    -0.0000
 10 C      5.8917     6.0000     0.1083     3.8755     3.8755     0.0000
 11 N      7.4382     7.0000    -0.4382     3.3811     3.3811    -0.0000
 12 C      6.0602     6.0000    -0.0602     3.9126     3.9126     0.0000
 13 N      7.4468     7.0000    -0.4468     3.3413     3.3413     0.0000
 14 C      5.7753     6.0000     0.2247     3.8057     3.8057     0.0000
 15 N      7.4409     7.0000    -0.4409     3.3688     3.3688    -0.0000
 16 C      5.7517     6.0000     0.2483     3.8008     3.8008    -0.0000
 17 C      6.0370     6.0000    -0.0370     3.9750     3.9750     0.0000
 18 C      6.1803     6.0000    -0.1803     3.7041     3.7041     0.0000
 19 C      5.7740     6.0000     0.2260     3.8959     3.8959    -0.0000
 20 C      5.8026     6.0000     0.1974     3.8222     3.8222    -0.0000
 21 C      6.0673     6.0000    -0.0673     3.8969     3.8969    -0.0000
 22 C      6.0869     6.0000    -0.0869     3.9849     3.9849    -0.0000
 23 C      6.0600     6.0000    -0.0600     3.9882     3.9882    -0.0000
 24 C      5.7852     6.0000     0.2148     3.8271     3.8271    -0.0000
 25 C      5.8859     6.0000     0.1141     3.8911     3.8911    -0.0000
 26 C      6.0706     6.0000    -0.0706     3.9048     3.9048    -0.0000
 27 C      5.7621     6.0000     0.2379     3.8972     3.8972    -0.0000
 28 C      6.0441     6.0000    -0.0441     3.9890     3.9890    -0.0000
 29 C      6.1926     6.0000    -0.1926     3.7288     3.7288     0.0000
 30 C      5.7734     6.0000     0.2266     3.7848     3.7848     0.0000
 31 C      5.8034     6.0000     0.1966     3.8317     3.8317    -0.0000
 32 C      6.0653     6.0000    -0.0653     3.9144     3.9144    -0.0000
 33 C      6.0950     6.0000    -0.0950     3.9859     3.9859    -0.0000
 34 C      6.0501     6.0000    -0.0501     3.9969     3.9969     0.0000
 35 C      5.8123     6.0000     0.1877     3.8285     3.8285     0.0000
 36 C      5.8816     6.0000     0.1184     3.9034     3.9034    -0.0000
 37 C      6.0688     6.0000    -0.0688     3.9158     3.9158    -0.0000
 38 C      5.7582     6.0000     0.2418     3.7969     3.7969    -0.0000
 39 C      6.0641     6.0000    -0.0641     3.9962     3.9962     0.0000
 40 C      6.1981     6.0000    -0.1981     3.7488     3.7488    -0.0000
 41 C      5.7827     6.0000     0.2173     3.8766     3.8766    -0.0000
 42 C      5.7907     6.0000     0.2093     3.8302     3.8302    -0.0000
 43 C      6.0758     6.0000    -0.0758     3.9049     3.9049    -0.0000
 44 C      6.0895     6.0000    -0.0895     3.9846     3.9846     0.0000
 45 C      6.0439     6.0000    -0.0439     3.9942     3.9942     0.0000
 46 C      5.8071     6.0000     0.1929     3.8222     3.8222    -0.0000
 47 C      5.8839     6.0000     0.1161     3.8952     3.8952    -0.0000
 48 C      6.0801     6.0000    -0.0801     3.8993     3.8993    -0.0000
 49 C      5.7853     6.0000     0.2147     3.8722     3.8722     0.0000
 50 C      6.0611     6.0000    -0.0611     3.9898     3.9898     0.0000
 51 C      6.1898     6.0000    -0.1898     3.7386     3.7386     0.0000
 52 H      0.9296     1.0000     0.0704     0.9836     0.9836    -0.0000
 53 H      1.0106     1.0000    -0.0106     1.0010     1.0010     0.0000
 54 H      0.9443     1.0000     0.0557     1.0071     1.0071    -0.0000
 55 H      0.9317     1.0000     0.0683     0.9843     0.9843    -0.0000
 56 H      0.9267     1.0000     0.0733     0.9725     0.9725    -0.0000
 57 H      0.9325     1.0000     0.0675     0.9839     0.9839     0.0000
 58 H      0.9332     1.0000     0.0668     0.9868     0.9868     0.0000
 59 H      1.0235     1.0000    -0.0235     0.9971     0.9971     0.0000
 60 H      0.9426     1.0000     0.0574     1.0054     1.0054    -0.0000
 61 H      0.8248     1.0000     0.1752     1.0432     1.0432     0.0000
 62 H      0.8300     1.0000     0.1700     1.0434     1.0434    -0.0000
 63 H      0.9447     1.0000     0.0553     0.9859     0.9859    -0.0000
 64 H      1.0293     1.0000    -0.0293     0.9933     0.9933     0.0000
 65 H      0.9563     1.0000     0.0437     1.0084     1.0084    -0.0000
 66 H      0.9431     1.0000     0.0569     0.9847     0.9847     0.0000
 67 H      0.9390     1.0000     0.0610     0.9718     0.9718    -0.0000
 68 H      0.9426     1.0000     0.0574     0.9866     0.9866    -0.0000
 69 H      0.9404     1.0000     0.0596     0.9831     0.9831    -0.0000
 70 H      1.0187     1.0000    -0.0187     0.9964     0.9964     0.0000
 71 H      0.9518     1.0000     0.0482     1.0072     1.0072    -0.0000
 72 H      0.9554     1.0000     0.0446     0.9857     0.9857    -0.0000
 73 H      1.0178     1.0000    -0.0178     0.9971     0.9971    -0.0000
 74 H      0.9641     1.0000     0.0359     1.0095     1.0095     0.0000
 75 H      0.9566     1.0000     0.0434     0.9864     0.9864     0.0000
 76 H      0.9479     1.0000     0.0521     0.9708     0.9708    -0.0000
 77 H      0.9494     1.0000     0.0506     0.9846     0.9846    -0.0000
 78 H      0.9502     1.0000     0.0498     0.9840     0.9840    -0.0000
 79 H      1.0123     1.0000    -0.0123     1.0010     1.0010     0.0000
 80 H      0.9642     1.0000     0.0358     1.0066     1.0066     0.0000
 81 H      0.9478     1.0000     0.0522     0.9853     0.9853    -0.0000
 82 H      1.0233     1.0000    -0.0233     0.9948     0.9948    -0.0000
 83 H      0.9566     1.0000     0.0434     1.0102     1.0102     0.0000
 84 H      0.9486     1.0000     0.0514     0.9860     0.9860     0.0000
 85 H      0.9434     1.0000     0.0566     0.9714     0.9714    -0.0000
 86 H      0.9433     1.0000     0.0567     0.9841     0.9841     0.0000
 87 H      0.9443     1.0000     0.0557     0.9854     0.9854    -0.0000
 88 H      1.0279     1.0000    -0.0279     0.9923     0.9923    -0.0000
 89 H      0.9578     1.0000     0.0422     1.0062     1.0062    -0.0000

  Mayer bond orders larger than 0.100000
B(  0-C ,  1-N ) :   1.1599 B(  0-C , 17-C ) :   1.5741 B(  0-C , 52-H ) :   0.9680 
B(  1-N ,  8-C ) :   1.1574 B(  1-N , 10-C ) :   0.9432 B(  2-C , 12-C ) :   1.5593 
B(  2-C , 16-C ) :   1.2951 B(  2-C , 53-H ) :   0.9787 B(  3-N , 14-C ) :   1.1853 
B(  3-N , 16-C ) :   1.2005 B(  3-N , 61-H ) :   0.8968 B(  4-C ,  6-C ) :   1.3177 
B(  4-C , 17-C ) :   1.3167 B(  4-C , 18-C ) :   1.1392 B(  5-N , 19-C ) :   1.3849 
B(  5-N , 27-C ) :   1.4330 B(  6-C ,  8-C ) :   1.5733 B(  6-C , 54-H ) :   0.9711 
B(  7-N , 30-C ) :   1.1874 B(  7-N , 38-C ) :   1.2102 B(  7-N , 62-H ) :   0.9000 
B(  8-C , 55-H ) :   0.9692 B(  9-N , 41-C ) :   1.4230 B(  9-N , 49-C ) :   1.4037 
B( 10-C , 56-H ) :   0.9763 B( 10-C , 57-H ) :   0.9816 B( 10-C , 58-H ) :   0.9822 
B( 11-N , 20-C ) :   1.1111 B( 11-N , 24-C ) :   1.1332 B( 11-N , 25-C ) :   0.9591 
B( 12-C , 14-C ) :   1.2962 B( 12-C , 59-H ) :   0.9778 B( 13-N , 31-C ) :   1.0986 
B( 13-N , 35-C ) :   1.0890 B( 13-N , 36-C ) :   0.9733 B( 14-C , 18-C ) :   1.2378 
B( 15-N , 42-C ) :   1.1233 B( 15-N , 46-C ) :   1.1019 B( 15-N , 47-C ) :   0.9639 
B( 16-C , 51-C ) :   1.2267 B( 17-C , 60-H ) :   0.9713 B( 18-C , 19-C ) :   1.2717 
B( 19-C , 21-C ) :   1.1857 B( 20-C , 28-C ) :   1.6236 B( 20-C , 63-H ) :   0.9705 
B( 21-C , 26-C ) :   1.6625 B( 21-C , 64-H ) :   0.9734 B( 22-C , 23-C ) :   1.2691 
B( 22-C , 28-C ) :   1.2804 B( 22-C , 29-C ) :   1.2434 B( 23-C , 24-C ) :   1.6251 
B( 23-C , 65-H ) :   0.9717 B( 24-C , 66-H ) :   0.9690 B( 25-C , 67-H ) :   0.9763 
B( 25-C , 68-H ) :   0.9832 B( 25-C , 69-H ) :   0.9819 B( 26-C , 27-C ) :   1.1892 
B( 26-C , 70-H ) :   0.9746 B( 27-C , 29-C ) :   1.2335 B( 28-C , 71-H ) :   0.9711 
B( 29-C , 30-C ) :   1.1928 B( 30-C , 32-C ) :   1.3333 B( 31-C , 39-C ) :   1.6625 
B( 31-C , 72-H ) :   0.9704 B( 32-C , 37-C ) :   1.5254 B( 32-C , 73-H ) :   0.9773 
B( 33-C , 34-C ) :   1.2501 B( 33-C , 39-C ) :   1.2422 B( 33-C , 40-C ) :   1.3115 
B( 34-C , 35-C ) :   1.6603 B( 34-C , 74-H ) :   0.9708 B( 35-C , 75-H ) :   0.9705 
B( 36-C , 76-H ) :   0.9758 B( 36-C , 77-H ) :   0.9824 B( 36-C , 78-H ) :   0.9835 
B( 37-C , 38-C ) :   1.3310 B( 37-C , 79-H ) :   0.9787 B( 38-C , 40-C ) :   1.1918 
B( 39-C , 80-H ) :   0.9719 B( 40-C , 41-C ) :   1.1883 B( 41-C , 43-C ) :   1.2402 
B( 42-C , 50-C ) :   1.6368 B( 42-C , 81-H ) :   0.9696 B( 43-C , 48-C ) :   1.6109 
B( 43-C , 82-H ) :   0.9748 B( 44-C , 45-C ) :   1.2776 B( 44-C , 50-C ) :   1.2583 
B( 44-C , 51-C ) :   1.2508 B( 45-C , 46-C ) :   1.6312 B( 45-C , 83-H ) :   0.9706 
B( 46-C , 84-H ) :   0.9706 B( 47-C , 85-H ) :   0.9761 B( 47-C , 86-H ) :   0.9827 
B( 47-C , 87-H ) :   0.9828 B( 48-C , 49-C ) :   1.2364 B( 48-C , 88-H ) :   0.9730 
B( 49-C , 51-C ) :   1.2005 B( 50-C , 89-H ) :   0.9718 

-------
TIMINGS
-------

Total SCF time: 0 days 0 hours 47 min 9 sec 

Total time                  ....    2829.996 sec
Sum of individual times     ....    2826.900 sec  ( 99.9%)

Fock matrix formation       ....    2808.506 sec  ( 99.2%)
Diagonalization             ....       4.695 sec  (  0.2%)
Density matrix formation    ....       0.523 sec  (  0.0%)
Population analysis         ....       0.308 sec  (  0.0%)
Initial guess               ....       2.370 sec  (  0.1%)
Orbital Transformation      ....       0.000 sec  (  0.0%)
Orbital Orthonormalization  ....       0.000 sec  (  0.0%)
DIIS solution               ....       2.424 sec  (  0.1%)
SOSCF solution              ....       6.744 sec  (  0.2%)

Maximum memory used throughout the entire SCF-calculation: 304.2 MB


           ************************************************************
           *        Program running with 8 parallel MPI-processes     *
           *              working on a common directory               *
           ************************************************************

------------------------------------------------------------------------------
                                ORCA  MP2 
------------------------------------------------------------------------------

Freezing NCore=104 chemical core electrons

----------
MP2 ENERGY (disk based algorithm)
----------

Dimension of the basis                    ...  918
Memory devoted to MP2                     ... 7000 MB   
Data format for buffers                   ... DOUBLE
Compression type for matrix containers    ... UNCOMPRESSED

-------------------------------
PARTIAL EXCHANGE TRANSFORMATION
-------------------------------

Transformation type                        ... one-operator
Generation of integrals (i,mue|j,nue)      ... ON
Generation of integrals (mue,kappa|nue,tau)... OFF
Generation of integrals (i,mue|a,nue)      ... OFF
Dimension of the basis                     ...  918
Number of internal MOs                     ...  127 (  52- 178)
Pair cutoff                                ... 2.500e-12 Eh
Number of AO pairs in the trafo            ... 421821
Total Number of distinct AO pairs          ... 421821
Memory devoted for trafo                   ... 7000.0 MB 
Max. Number of MO pairs treated together   ... 1088      
Number Format for Storage                  ... Double (8 Byte)
Integral package used                      ... LIBINT

Starting integral evaluation:
    ... done with AO integral generation
Closing buffer AOK     (37.97 GB; CompressionRatio= 1.33)
Collecting buffer AOK 
Number of MO pairs included in the trafo   ... 8128
------------------------
SORTING OF (i,mue|j,nue)
------------------------

IBATCH = 1 of  1
Closing buffer KAO     (51.03 GB; CompressionRatio= 1.00)
Collecting buffer KAO 
N(AO-Batches) Done                         ... 174158094 
N(AO-Batches) Skipped                      ... 166470303 
N(IJ)-pairs Skipped                        ...         0 
TOTAL TIME for half transformation         ...  1098.038 sec
AO-integral generation                     ...   260.619 sec
Half transformation                        ...   495.828 sec
K-integral sorting                         ...    83.672 sec

Finished integral transformation - now doing MP2 part

OPERATOR COMBINATION   0   0: ij=( 52..178, 52..178)
Process 2:   Internal MO  84
Process 5:   Internal MO 132
Process 0:   Internal MO  54
Process 0:   Internal MO  57
Process 1:   Internal MO  69
Process 0:   Internal MO  60
Process 4:   Internal MO 117
Process 0:   Internal MO  63
Process 1:   Internal MO  72
Process 2:   Internal MO  87
Process 0:   Internal MO  66
Process 3:   Internal MO 102
Process 7:   Internal MO 165
Process 1:   Internal MO  75
Process 6:   Internal MO 150
Process 2:   Internal MO  90
Process 1:   Internal MO  78
Process 4:   Internal MO 120
Process 5:   Internal MO 135
Process 3:   Internal MO 105
Process 2:   Internal MO  93
Process 1:   Internal MO  81
Process 2:   Internal MO  96
Process 4:   Internal MO 123
Process 3:   Internal MO 108
Process 6:   Internal MO 153
Process 7:   Internal MO 168
Process 5:   Internal MO 138
Process 2:   Internal MO  99
Process 4:   Internal MO 126
Process 3:   Internal MO 111
Process 6:   Internal MO 156
Process 3:   Internal MO 114
Process 5:   Internal MO 141
Process 4:   Internal MO 129
Process 7:   Internal MO 171
Process 6:   Internal MO 159
Process 5:   Internal MO 144
Process 7:   Internal MO 174
Process 6:   Internal MO 162
Process 5:   Internal MO 147
Process 7:   Internal MO 177
-----------------------------------------------
 MP2 CORRELATION ENERGY   :     -7.281659398 Eh
-----------------------------------------------


-------
TIMINGS
-------
Total time                : 1253.695 sec
Integral trafo            : 1107.004 sec ( 88.3%)
K(i,j)                    :    9.170 sec (  0.7%)
T(i,j)                    :    0.118 sec (  0.0%)

---------------------------------------
MP2 TOTAL ENERGY:    -2130.897202996 Eh
---------------------------------------

Maximum memory used throughout the entire MP2-calculation: 6735.7 MB

-------------------------   --------------------
FINAL SINGLE POINT ENERGY     -2130.897202995635
-------------------------   --------------------


                            ***************************************
                            *     ORCA property calculations      *
                            ***************************************


  WARNING: The energy has been calculated at the MP2 level but the densities
           used in the property calculations are still SCF densities
           MP2 response densities have not been calculated 
           use %mp2 Density relaxed end
           or  %mp2 Density unrelaxed end

                                    ---------------------
                                    Active property flags
                                    ---------------------
   (+) Dipole Moment


------------------------------------------------------------------------------
                       ORCA ELECTRIC PROPERTIES CALCULATION
------------------------------------------------------------------------------

Dipole Moment Calculation                       ... on
Quadrupole Moment Calculation                   ... off
Polarizability Calculation                      ... off
GBWName                                         ... /scratch/chu_02/allen/tmpyp4_amber_gaff2/conf1/conf1/Conf286.orca.gbw
Electron density                                ... /scratch/chu_02/allen/tmpyp4_amber_gaff2/conf1/conf1/Conf286.orca.scfp
The origin for moment calculation is the CENTER OF MASS  = (-0.000320, -0.004257 -0.001361)

-------------
DIPOLE MOMENT
-------------
                                X             Y             Z
Electronic contribution:     -2.78344       2.55583      -0.06118
Nuclear contribution   :      0.04073       0.21619       0.07917
                        -----------------------------------------
Total Dipole Moment    :     -2.74271       2.77202       0.01800
                        -----------------------------------------
Magnitude (a.u.)       :      3.89960
Magnitude (Debye)      :      9.91200



--------------------
Rotational spectrum 
--------------------
 
Rotational constants in cm-1:     0.001499     0.001472     0.000763 
Rotational constants in MHz :    44.928592    44.131164    22.863047 

 Dipole components along the rotational axes: 
x,y,z [a.u.] :    -3.568594    -1.572144     0.019954 
x,y,z [Debye]:    -9.070646    -3.996072     0.050719 

 

Timings for individual modules:

Sum of individual times         ...     4093.676 sec (=  68.228 min)
GTO integral calculation        ...        5.580 sec (=   0.093 min)   0.1 %
SCF iterations                  ...     2832.849 sec (=  47.214 min)  69.2 %
MP2 module                      ...     1255.246 sec (=  20.921 min)  30.7 %
                             ****ORCA TERMINATED NORMALLY****
TOTAL RUN TIME: 0 days 1 hours 8 minutes 19 seconds 825 msec
# of primitive gaussian functions

