
                                 *****************
                                 * O   R   C   A *
                                 *****************

                                            #,                                       
                                            ###                                      
                                            ####                                     
                                            #####                                    
                                            ######                                   
                                           ########,                                 
                                     ,,################,,,,,                         
                               ,,#################################,,                 
                          ,,##########################################,,             
                       ,#########################################, ''#####,          
                    ,#############################################,,   '####,        
                  ,##################################################,,,,####,       
                ,###########''''           ''''###############################       
              ,#####''   ,,,,##########,,,,          '''####'''          '####       
            ,##' ,,,,###########################,,,                        '##       
           ' ,,###''''                  '''############,,,                           
         ,,##''                                '''############,,,,        ,,,,,,###''
      ,#''                                            '''#######################'''  
     '                                                          ''''####''''         
             ,#######,   #######,   ,#######,      ##                                
            ,#'     '#,  ##    ##  ,#'     '#,    #''#        ######   ,####,        
            ##       ##  ##   ,#'  ##            #'  '#       #        #'  '#        
            ##       ##  #######   ##           ,######,      #####,   #    #        
            '#,     ,#'  ##    ##  '#,     ,#' ,#      #,         ##   #,  ,#        
             '#######'   ##     ##  '#######'  #'      '#     #####' # '####'        



                  #######################################################
                  #                        -***-                        #
                  #          Department of theory and spectroscopy      #
                  #    Directorship and core code : Frank Neese         #
                  #        Max Planck Institute fuer Kohlenforschung    #
                  #                Kaiser Wilhelm Platz 1               #
                  #                 D-45470 Muelheim/Ruhr               #
                  #                      Germany                        #
                  #                                                     #
                  #                  All rights reserved                #
                  #                        -***-                        #
                  #######################################################


                         Program Version 5.0.4 -  RELEASE  -


 With contributions from (in alphabetic order):
   Daniel Aravena         : Magnetic Suceptibility
   Michael Atanasov       : Ab Initio Ligand Field Theory (pilot matlab implementation)
   Alexander A. Auer      : GIAO ZORA, VPT2 properties, NMR spectrum
   Ute Becker             : Parallelization
   Giovanni Bistoni       : ED, misc. LED, open-shell LED, HFLD
   Martin Brehm           : Molecular dynamics
   Dmytro Bykov           : SCF Hessian
   Vijay G. Chilkuri      : MRCI spin determinant printing, contributions to CSF-ICE
   Dipayan Datta          : RHF DLPNO-CCSD density
   Achintya Kumar Dutta   : EOM-CC, STEOM-CC
   Dmitry Ganyushin       : Spin-Orbit,Spin-Spin,Magnetic field MRCI
   Miquel Garcia          : C-PCM and meta-GGA Hessian, CC/C-PCM, Gaussian charge scheme
   Yang Guo               : DLPNO-NEVPT2, F12-NEVPT2, CIM, IAO-localization
   Andreas Hansen         : Spin unrestricted coupled pair/coupled cluster methods
   Benjamin Helmich-Paris : MC-RPA, TRAH-SCF, COSX integrals
   Lee Huntington         : MR-EOM, pCC
   Robert Izsak           : Overlap fitted RIJCOSX, COSX-SCS-MP3, EOM
   Marcus Kettner         : VPT2
   Christian Kollmar      : KDIIS, OOCD, Brueckner-CCSD(T), CCSD density, CASPT2, CASPT2-K
   Simone Kossmann        : Meta GGA functionals, TD-DFT gradient, OOMP2, MP2 Hessian
   Martin Krupicka        : Initial AUTO-CI
   Lucas Lang             : DCDCAS
   Marvin Lechner         : AUTO-CI (C++ implementation), FIC-MRCC
   Dagmar Lenk            : GEPOL surface, SMD
   Dimitrios Liakos       : Extrapolation schemes; Compound Job, initial MDCI parallelization
   Dimitrios Manganas     : Further ROCIS development; embedding schemes
   Dimitrios Pantazis     : SARC Basis sets
   Anastasios Papadopoulos: AUTO-CI, single reference methods and gradients
   Taras Petrenko         : DFT Hessian,TD-DFT gradient, ASA, ECA, R-Raman, ABS, FL, XAS/XES, NRVS
   Peter Pinski           : DLPNO-MP2, DLPNO-MP2 Gradient
   Christoph Reimann      : Effective Core Potentials
   Marius Retegan         : Local ZFS, SOC
   Christoph Riplinger    : Optimizer, TS searches, QM/MM, DLPNO-CCSD(T), (RO)-DLPNO pert. Triples
   Tobias Risthaus        : Range-separated hybrids, TD-DFT gradient, RPA, STAB
   Michael Roemelt        : Original ROCIS implementation
   Masaaki Saitow         : Open-shell DLPNO-CCSD energy and density
   Barbara Sandhoefer     : DKH picture change effects
   Avijit Sen             : IP-ROCIS
   Kantharuban Sivalingam : CASSCF convergence, NEVPT2, FIC-MRCI
   Bernardo de Souza      : ESD, SOC TD-DFT
   Georgi Stoychev        : AutoAux, RI-MP2 NMR, DLPNO-MP2 response
   Willem Van den Heuvel  : Paramagnetic NMR
   Boris Wezisla          : Elementary symmetry handling
   Frank Wennmohs         : Technical directorship


 We gratefully acknowledge several colleagues who have allowed us to
 interface, adapt or use parts of their codes:
   Stefan Grimme, W. Hujo, H. Kruse, P. Pracht,  : VdW corrections, initial TS optimization,
                  C. Bannwarth, S. Ehlert          DFT functionals, gCP, sTDA/sTD-DF
   Ed Valeev, F. Pavosevic, A. Kumar             : LibInt (2-el integral package), F12 methods
   Garnet Chan, S. Sharma, J. Yang, R. Olivares  : DMRG
   Ulf Ekstrom                                   : XCFun DFT Library
   Mihaly Kallay                                 : mrcc  (arbitrary order and MRCC methods)
   Jiri Pittner, Ondrej Demel                    : Mk-CCSD
   Frank Weinhold                                : gennbo (NPA and NBO analysis)
   Christopher J. Cramer and Donald G. Truhlar   : smd solvation model
   Lars Goerigk                                  : TD-DFT with DH, B97 family of functionals
   V. Asgeirsson, H. Jonsson                     : NEB implementation
   FAccTs GmbH                                   : IRC, NEB, NEB-TS, DLPNO-Multilevel, CI-OPT
                                                   MM, QMMM, 2- and 3-layer-ONIOM, Crystal-QMMM,
                                                   LR-CPCM, SF, NACMEs, symmetry and pop. for TD-DFT,
                                                   nearIR, NL-DFT gradient (VV10), updates on ESD,
                                                   ML-optimized integration grids
   S Lehtola, MJT Oliveira, MAL Marques          : LibXC Library
   Liviu Ungur et al                             : ANISO software


 Your calculation uses the libint2 library for the computation of 2-el integrals
 For citations please refer to: http://libint.valeyev.net

 Your ORCA version has been built with support for libXC version: 5.1.0
 For citations please refer to: https://tddft.org/programs/libxc/

 This ORCA versions uses:
   CBLAS   interface :  Fast vector & matrix operations
   LAPACKE interface :  Fast linear algebra routines
   SCALAPACK package :  Parallel linear algebra routines
   Shared memory     :  Shared parallel matrices
   BLAS/LAPACK       :  OpenBLAS 0.3.15  USE64BITINT DYNAMIC_ARCH NO_AFFINITY Sandybridge SINGLE_THREADED
        Core in use  :  Sandybridge
   Copyright (c) 2011-2014, The OpenBLAS Project


================================================================================

----- Orbital basis set information -----
Your calculation utilizes the basis: cc-pVDZ 
       H, B-Ne : Obtained from the ccRepo (grant-hill.group.shef.ac.uk/ccrepo) Feb. 2017
                 T. H. Dunning, Jr., J. Chem. Phys. 90, 1007 (1989)
            He : Obtained from the ccRepo (grant-hill.group.shef.ac.uk/ccrepo) Feb. 2017
                 D. E. Woon, T. H. Dunning, Jr., J. Chem. Phys. 100, 2975 (1994)
  Li-Be, Na-Mg : Obtained from the ccRepo (grant-hill.group.shef.ac.uk/ccrepo) Feb. 2017
                 B. P. Prascher, D. E. Woon, K. A. Peterson, T. H. Dunning, Jr., A. K. Wilson, Theor. Chem. Acc. 128, 69 (2011)
         Al-Ar : Obtained from the ccRepo (grant-hill.group.shef.ac.uk/ccrepo) Feb. 2017
                 D. E. Woon, T. H. Dunning, Jr., J. Chem. Phys. 98, 1358 (1993)
            Ca : Obtained from the Peterson Research Group Website (tyr0.chem.wsu.edu/~kipeters) Feb. 2017
                 J. Koput, K. A. Peterson, J. Phys. Chem. 106, 9595 (2002)
         Sc-Zn : Obtained from the ccRepo (grant-hill.group.shef.ac.uk/ccrepo) Feb. 2017
                 N. B. Balabanov, K. A. Peterson, J. Chem. Phys. 123, 064107 (2005)
                 N. B. Balabanov, K. A. Peterson, J. Chem. Phys. 125, 074110 (2006)
         Ga-Kr : Obtained from the ccRepo (grant-hill.group.shef.ac.uk/ccrepo) Feb. 2017
                 A. K. Wilson, D. E. Woon, K. A. Peterson, T. H. Dunning, Jr., J. Chem. Phys. 110, 7667 (1999)

================================================================================
                                        WARNINGS
                       Please study these warnings very carefully!
================================================================================


WARNING: No MP2 level density has been requested!
         To caclulate MP2 level properties use
         %mp2 Density relaxed end
         or
         %mp2 Density unrelaxed end

WARNING: Post HF methods need fully converged wavefunctions
  ===> : Setting SCFConvForced true
         You can overwrite this default with %scf ConvForced false 


INFO   : the flag for use of the SHARK integral package has been found!

================================================================================
                                       INPUT FILE
================================================================================
NAME = /scratch/allen/tmpyp4_amber_gaff2/2.Mdgx/conf11/conf11/Conf85.orca
|  1> ! PAL2
|  2> ! mp2 cc-pvdz TightSCF  NoKeepInts
|  3> 
|  4> %scf
|  5>   MaxCore 2000
|  6> end
|  7> %mp2
|  8>   MaxCore 2000
|  9> end
| 10> * xyz 0 1
| 11>    C       -3.88000         5.94000        -1.06900
| 12>    C        1.47400         4.04100         0.05700
| 13>    C       -2.80200         4.09300         0.04900
| 14>    C       -3.31400         4.59200         1.25700
| 15>    C       -4.08700         5.73600         1.26200
| 16>    C       -5.22000         7.59600         0.14600
| 17>    C        0.13200         4.30700         0.06100
| 18>    C       -0.56900         3.05600         0.04700
| 19>    C        1.64900         2.61800         0.02300
| 20>    C       -3.10700         4.79600        -1.12600
| 21>    N       -4.35700         6.39500         0.11100
| 22>    N        0.38800         2.06700         0.02500
| 23>    N       -2.01000         0.39500        -0.07500
| 24>    N       -0.38800        -2.07400        -0.02700
| 25>    N        2.01000        -0.40100         0.06500
| 26>    C       -1.96000         2.86100         0.02400
| 27>    C       -2.62300         1.61500        -0.01800
| 28>    C       -5.57300        -4.32900         1.06600
| 29>    C       -4.07300         1.47100         0.05600
| 30>    C       -4.10600        -2.75600        -0.02600
| 31>    C       -4.99500        -2.75700        -1.11100
| 32>    C       -6.13200        -3.54200        -1.07600
| 33>    C       -7.65100        -5.11300         0.04000
| 34>    C       -4.32400         0.14100         0.03700
| 35>    C       -3.02500        -0.52000        -0.04800
| 36>    C       -4.42200        -3.56600         1.07500
| 37>    N       -6.40700        -4.31300         0.00100
| 38>    C       -2.86700        -1.92200        -0.04000
| 39>    C       -1.65000        -2.62400        -0.02700
| 40>    C        3.56800        -6.14200        -1.04000
| 41>    C       -1.47600        -4.04900        -0.03400
| 42>    C        2.80300        -4.09900        -0.00800
| 43>    C        3.65700        -4.38400         1.06900
| 44>    C        4.42700        -5.53000         1.05900
| 45>    C        5.24500        -7.58800         0.01400
| 46>    C       -0.13400        -4.31500        -0.02200
| 47>    C        0.56800        -3.06400        -0.02700
| 48>    C        2.77500        -5.01200        -1.07400
| 49>    N        4.37600        -6.39100         0.01700
| 50>    C        1.95900        -2.86900        -0.00900
| 51>    C        2.62100        -1.62200         0.00900
| 52>    C        5.54300         4.33900        -1.13000
| 53>    C        4.07000        -1.47900        -0.09400
| 54>    C        4.10400         2.75100        -0.02100
| 55>    C        5.02700         2.72900         1.03600
| 56>    C        6.16600         3.50900         0.97800
| 57>    C        7.61900         5.15300        -0.11500
| 58>    C        4.32100        -0.14800        -0.09200
| 59>    C        3.02500         0.51400         0.01500
| 60>    C        4.38700         3.58200        -1.11500
| 61>    C        2.86600         1.91600         0.01300
| 62>    N        6.41300         4.29600        -0.09500
| 63>    H       -4.13000         6.52100        -1.94900
| 64>    H        2.27400         4.76600         0.08100
| 65>    H       -3.12100         4.08800         2.19600
| 66>    H       -4.51000         6.15400         2.16700
| 67>    H       -6.26600         7.28500         0.09200
| 68>    H       -5.03700         8.13300         1.07700
| 69>    H       -4.97300         8.23000        -0.70500
| 70>    H       -0.33200         5.28200         0.06900
| 71>    H       -2.73000         4.46900        -2.08900
| 72>    H        0.18200         1.07200         0.00500
| 73>    H       -0.18300        -1.08000        -0.02100
| 74>    H       -5.86400        -4.96200         1.89500
| 75>    H       -4.79400         2.27200         0.13900
| 76>    H       -4.80000        -2.16000        -1.99400
| 77>    H       -6.84100        -3.58200        -1.89300
| 78>    H       -8.42800        -4.53600         0.54600
| 79>    H       -7.95600        -5.33700        -0.98100
| 80>    H       -7.45600        -6.03700         0.58400
| 81>    H       -5.28700        -0.34400         0.10000
| 82>    H       -3.78000        -3.60100         1.94700
| 83>    H        3.58700        -6.86800        -1.84300
| 84>    H       -2.27600        -4.77400        -0.05000
| 85>    H        3.71400        -3.72400         1.92600
| 86>    H        5.09200        -5.79500         1.87100
| 87>    H        6.20500        -7.32900        -0.43900
| 88>    H        5.39300        -7.91700         1.04200
| 89>    H        4.75900        -8.37300        -0.56400
| 90>    H        0.32900        -5.29000        -0.00800
| 91>    H        2.14600        -4.84200        -1.94000
| 92>    H        5.80800         4.98600        -1.95600
| 93>    H        4.78800        -2.28100        -0.18500
| 94>    H        4.86000         2.11400         1.91200
| 95>    H        6.90100         3.53100         1.77200
| 96>    H        7.38300         6.10900         0.35600
| 97>    H        8.41400         4.65200         0.43500
| 98>    H        7.92100         5.31000        -1.15000
| 99>    H        5.28300         0.33600        -0.17900
|100>    H        3.72000         3.63200        -1.96700
|101> *
|102> 
|103>                          ****END OF INPUT****
================================================================================

                       ****************************
                       * Single Point Calculation *
                       ****************************

---------------------------------
CARTESIAN COORDINATES (ANGSTROEM)
---------------------------------
  C     -3.880000    5.940000   -1.069000
  C      1.474000    4.041000    0.057000
  C     -2.802000    4.093000    0.049000
  C     -3.314000    4.592000    1.257000
  C     -4.087000    5.736000    1.262000
  C     -5.220000    7.596000    0.146000
  C      0.132000    4.307000    0.061000
  C     -0.569000    3.056000    0.047000
  C      1.649000    2.618000    0.023000
  C     -3.107000    4.796000   -1.126000
  N     -4.357000    6.395000    0.111000
  N      0.388000    2.067000    0.025000
  N     -2.010000    0.395000   -0.075000
  N     -0.388000   -2.074000   -0.027000
  N      2.010000   -0.401000    0.065000
  C     -1.960000    2.861000    0.024000
  C     -2.623000    1.615000   -0.018000
  C     -5.573000   -4.329000    1.066000
  C     -4.073000    1.471000    0.056000
  C     -4.106000   -2.756000   -0.026000
  C     -4.995000   -2.757000   -1.111000
  C     -6.132000   -3.542000   -1.076000
  C     -7.651000   -5.113000    0.040000
  C     -4.324000    0.141000    0.037000
  C     -3.025000   -0.520000   -0.048000
  C     -4.422000   -3.566000    1.075000
  N     -6.407000   -4.313000    0.001000
  C     -2.867000   -1.922000   -0.040000
  C     -1.650000   -2.624000   -0.027000
  C      3.568000   -6.142000   -1.040000
  C     -1.476000   -4.049000   -0.034000
  C      2.803000   -4.099000   -0.008000
  C      3.657000   -4.384000    1.069000
  C      4.427000   -5.530000    1.059000
  C      5.245000   -7.588000    0.014000
  C     -0.134000   -4.315000   -0.022000
  C      0.568000   -3.064000   -0.027000
  C      2.775000   -5.012000   -1.074000
  N      4.376000   -6.391000    0.017000
  C      1.959000   -2.869000   -0.009000
  C      2.621000   -1.622000    0.009000
  C      5.543000    4.339000   -1.130000
  C      4.070000   -1.479000   -0.094000
  C      4.104000    2.751000   -0.021000
  C      5.027000    2.729000    1.036000
  C      6.166000    3.509000    0.978000
  C      7.619000    5.153000   -0.115000
  C      4.321000   -0.148000   -0.092000
  C      3.025000    0.514000    0.015000
  C      4.387000    3.582000   -1.115000
  C      2.866000    1.916000    0.013000
  N      6.413000    4.296000   -0.095000
  H     -4.130000    6.521000   -1.949000
  H      2.274000    4.766000    0.081000
  H     -3.121000    4.088000    2.196000
  H     -4.510000    6.154000    2.167000
  H     -6.266000    7.285000    0.092000
  H     -5.037000    8.133000    1.077000
  H     -4.973000    8.230000   -0.705000
  H     -0.332000    5.282000    0.069000
  H     -2.730000    4.469000   -2.089000
  H      0.182000    1.072000    0.005000
  H     -0.183000   -1.080000   -0.021000
  H     -5.864000   -4.962000    1.895000
  H     -4.794000    2.272000    0.139000
  H     -4.800000   -2.160000   -1.994000
  H     -6.841000   -3.582000   -1.893000
  H     -8.428000   -4.536000    0.546000
  H     -7.956000   -5.337000   -0.981000
  H     -7.456000   -6.037000    0.584000
  H     -5.287000   -0.344000    0.100000
  H     -3.780000   -3.601000    1.947000
  H      3.587000   -6.868000   -1.843000
  H     -2.276000   -4.774000   -0.050000
  H      3.714000   -3.724000    1.926000
  H      5.092000   -5.795000    1.871000
  H      6.205000   -7.329000   -0.439000
  H      5.393000   -7.917000    1.042000
  H      4.759000   -8.373000   -0.564000
  H      0.329000   -5.290000   -0.008000
  H      2.146000   -4.842000   -1.940000
  H      5.808000    4.986000   -1.956000
  H      4.788000   -2.281000   -0.185000
  H      4.860000    2.114000    1.912000
  H      6.901000    3.531000    1.772000
  H      7.383000    6.109000    0.356000
  H      8.414000    4.652000    0.435000
  H      7.921000    5.310000   -1.150000
  H      5.283000    0.336000   -0.179000
  H      3.720000    3.632000   -1.967000

----------------------------
CARTESIAN COORDINATES (A.U.)
----------------------------
  NO LB      ZA    FRAG     MASS         X           Y           Z
   0 C     6.0000    0    12.011   -7.332137   11.224973   -2.020117
   1 C     6.0000    0    12.011    2.785456    7.636383    0.107714
   2 C     6.0000    0    12.011   -5.295013    7.734649    0.092597
   3 C     6.0000    0    12.011   -6.262552    8.677622    2.375386
   4 C     6.0000    0    12.011   -7.723311   10.839469    2.384834
   5 C     6.0000    0    12.011   -9.864370   14.354360    0.275900
   6 C     6.0000    0    12.011    0.249444    8.139050    0.115273
   7 C     6.0000    0    12.011   -1.075254    5.775003    0.088817
   8 C     6.0000    0    12.011    3.116158    4.947303    0.043464
   9 C     6.0000    0    12.011   -5.871379    9.063127   -2.127832
  10 N     7.0000    0    14.007   -8.233537   12.084799    0.209760
  11 N     7.0000    0    14.007    0.733214    3.906064    0.047243
  12 N     7.0000    0    14.007   -3.798350    0.746442   -0.141729
  13 N     7.0000    0    14.007   -0.733214   -3.919292   -0.051023
  14 N     7.0000    0    14.007    3.798350   -0.757780    0.122832
  15 C     6.0000    0    12.011   -3.703863    5.406506    0.045353
  16 C     6.0000    0    12.011   -4.956752    3.051908   -0.034015
  17 C     6.0000    0    12.011  -10.531444   -8.180624    2.014448
  18 C     6.0000    0    12.011   -7.696855    2.779787    0.105825
  19 C     6.0000    0    12.011   -7.759216   -5.208085   -0.049133
  20 C     6.0000    0    12.011   -9.439182   -5.209975   -2.099486
  21 C     6.0000    0    12.011  -11.587801   -6.693410   -2.033345
  22 C     6.0000    0    12.011  -14.458295   -9.662170    0.075589
  23 C     6.0000    0    12.011   -8.171176    0.266451    0.069920
  24 C     6.0000    0    12.011   -5.716422   -0.982658   -0.090707
  25 C     6.0000    0    12.011   -8.356369   -6.738763    2.031456
  26 N     7.0000    0    14.007  -12.107475   -8.150389    0.001890
  27 C     6.0000    0    12.011   -5.417845   -3.632054   -0.075589
  28 C     6.0000    0    12.011   -3.118048   -4.958641   -0.051023
  29 C     6.0000    0    12.011    6.742543  -11.606698   -1.965315
  30 C     6.0000    0    12.011   -2.789236   -7.651501   -0.064251
  31 C     6.0000    0    12.011    5.296902   -7.745987   -0.015118
  32 C     6.0000    0    12.011    6.910728   -8.284559    2.020117
  33 C     6.0000    0    12.011    8.365818  -10.450186    2.001220
  34 C     6.0000    0    12.011    9.911614  -14.339242    0.026456
  35 C     6.0000    0    12.011   -0.253223   -8.154168   -0.041574
  36 C     6.0000    0    12.011    1.073364   -5.790121   -0.051023
  37 C     6.0000    0    12.011    5.243990   -9.471307   -2.029566
  38 N     7.0000    0    14.007    8.269442  -12.077240    0.032125
  39 C     6.0000    0    12.011    3.701973   -5.421624   -0.017008
  40 C     6.0000    0    12.011    4.952972   -3.065136    0.017008
  41 C     6.0000    0    12.011   10.474752    8.199522   -2.135391
  42 C     6.0000    0    12.011    7.691185   -2.794905   -0.177634
  43 C     6.0000    0    12.011    7.755436    5.198637   -0.039684
  44 C     6.0000    0    12.011    9.499653    5.157063    1.957756
  45 C     6.0000    0    12.011   11.652051    6.631049    1.848152
  46 C     6.0000    0    12.011   14.397823    9.737759   -0.217319
  47 C     6.0000    0    12.011    8.165507   -0.279679   -0.173855
  48 C     6.0000    0    12.011    5.716422    0.971319    0.028346
  49 C     6.0000    0    12.011    8.290229    6.768999   -2.107045
  50 C     6.0000    0    12.011    5.415955    3.620715    0.024566
  51 N     7.0000    0    14.007   12.118814    8.118263   -0.179524
  52 H     1.0000    0     1.008   -7.804569   12.322904   -3.683076
  53 H     1.0000    0     1.008    4.297237    9.006435    0.153068
  54 H     1.0000    0     1.008   -5.897835    7.725200    4.149839
  55 H     1.0000    0     1.008   -8.522665   11.629375    4.095037
  56 H     1.0000    0     1.008  -11.841024   13.766655    0.173855
  57 H     1.0000    0     1.008   -9.518551   15.369143    2.035235
  58 H     1.0000    0     1.008   -9.397608   15.552446   -1.332257
  59 H     1.0000    0     1.008   -0.627389    9.981533    0.130391
  60 H     1.0000    0     1.008   -5.158952    8.445186   -3.947638
  61 H     1.0000    0     1.008    0.343930    2.025786    0.009449
  62 H     1.0000    0     1.008   -0.345820   -2.040904   -0.039684
  63 H     1.0000    0     1.008  -11.081354   -9.376821    3.581031
  64 H     1.0000    0     1.008   -9.059347    4.293458    0.262672
  65 H     1.0000    0     1.008   -9.070685   -4.081808   -3.768114
  66 H     1.0000    0     1.008  -12.927616   -6.768999   -3.577252
  67 H     1.0000    0     1.008  -15.926612   -8.571798    1.031790
  68 H     1.0000    0     1.008  -15.034661  -10.085468   -1.853821
  69 H     1.0000    0     1.008  -14.089798  -11.408277    1.103600
  70 H     1.0000    0     1.008   -9.990982   -0.650066    0.188973
  71 H     1.0000    0     1.008   -7.143165   -6.804904    3.679297
  72 H     1.0000    0     1.008    6.778448  -12.978639   -3.482765
  73 H     1.0000    0     1.008   -4.301017   -9.021553   -0.094486
  74 H     1.0000    0     1.008    7.018443   -7.037340    3.639613
  75 H     1.0000    0     1.008    9.622485  -10.950963    3.535678
  76 H     1.0000    0     1.008   11.725751  -13.849803   -0.829590
  77 H     1.0000    0     1.008   10.191293  -14.960962    1.969095
  78 H     1.0000    0     1.008    8.993207  -15.822677   -1.065806
  79 H     1.0000    0     1.008    0.621720   -9.996651   -0.015118
  80 H     1.0000    0     1.008    4.055352   -9.150054   -3.666069
  81 H     1.0000    0     1.008   10.975529    9.422175   -3.696304
  82 H     1.0000    0     1.008    9.048009   -4.310465   -0.349599
  83 H     1.0000    0     1.008    9.184069    3.994881    3.613156
  84 H     1.0000    0     1.008   13.041000    6.672623    3.348595
  85 H     1.0000    0     1.008   13.951848   11.544337    0.672743
  86 H     1.0000    0     1.008   15.900156    8.791006    0.822031
  87 H     1.0000    0     1.008   14.968521   10.034446   -2.173185
  88 H     1.0000    0     1.008    9.983423    0.634948   -0.338261
  89 H     1.0000    0     1.008    7.029781    6.863485   -3.717091

--------------------------------
INTERNAL COORDINATES (ANGSTROEM)
--------------------------------
 C      0   0   0     0.000000000000     0.00000000     0.00000000
 C      1   0   0     5.791320488455     0.00000000     0.00000000
 C      1   2   0     2.413175708480    41.05927472     0.00000000
 C      3   1   2     1.403712577417    87.91831497   113.24494608
 C      4   3   1     1.380684612792   120.12398706     0.13202087
 C      5   4   3     2.447191247124   152.53812292     1.63717139
 C      2   1   3     1.368114030335    14.06371525   335.97457504
 C      7   2   3     1.434084376876   108.05010202     0.84668783
 C      2   1   3     1.434123425651   115.69388451    36.45850323
 C      1   2   3     1.381851656293    38.68476990   312.20982505
 N      1   2   3     1.351648622979   105.47969243    72.49432928
 N      9   2   1     1.376127174356   106.58526707   346.37416185
 N     12   9   2     2.925062050624   168.53581413   171.12065651
 N     13  12   9     2.954513327098    91.55032014    11.12112580
 N     14  13  12     2.925371258490    88.43092389   359.84326247
 C      8   7   2     1.404790019896   127.24786865   181.11170171
 C     13  12   9     1.366535034311    81.72106996   188.00453233
 C     14  13  12     5.758810554272    80.56209567   166.76250791
 C     17  13  12     1.459010623676   111.08861209   183.82872609
 C     18  14  13     2.412235892279    27.27532823    36.33507194
 C     20  18  14     1.402692767501    87.95206320   148.94598259
 C     21  20  18     1.382106725257   120.14573887   359.70382047
 C     18  14  13     2.446510985056   144.15733107    82.80075377
 C     19  17  13     1.353610726908   106.29293361   359.75308708
 C     13  12   9     1.366813447402   172.21332906    33.46711076
 C     18  14  13     1.380960173213    15.08449437   309.23336894
 N     22  21  20     1.352773077792   120.73759875     0.27865223
 C     25  13  17     1.410897586645   125.60330303   182.37774668
 C     14  13  12     1.376642291955    80.24689249   177.85461986
 C     14  13  12     5.764089607215   164.51507311   312.20821879
 C     29  14  13     1.435600919476   106.58649366   178.76395472
 C     30  14  13     2.413316804732    27.10625047    82.12560436
 C     32  30  14     1.403734305344    87.90059683   149.76154742
 C     33  32  30     1.380694028378   120.14881443   359.74174632
 C     34  33  32     2.448777858443   152.49203239     2.45173620
 C     31  29  14     1.368160809262   108.16950133     0.70383075
 C     14  13  12     1.376239804685   169.26375223   353.09862627
 C     30  14  13     1.380907310430    14.68948582   353.70041132
 N     34  33  32     1.352658863128   120.85575621     0.19603406
 C     37  14  29     1.404717053360   126.01551127   180.90772073
 C     15  14  13     1.366491126938    81.61824056   183.09049352
 C      2   1   3     4.249062720177   143.90079934   160.39840587
 C     41  15  14     1.459677704153   111.05201287   175.08990246
 C     42   2   1     2.412953791518    41.78584867   204.83196945
 C     44  42   2     1.403446472082    87.95153797   233.97558675
 C     45  44  42     1.381696421071   120.11137308     0.19721020
 C     42   2   1     2.450019795838   135.97209175   115.14681855
 C     43  41  15     1.354461516618   106.26758155     0.30894352
 C     15  14  13     1.367461151185   171.87382904   332.35056460
 C     42   2   1     1.381886391857    32.59078432   253.68724864
 C      9   2   1     1.404988612053   126.98745415   167.37849938
 N     42   2   1     1.352765315936   113.57249190   142.88340774
 H      1   2   3     1.083725518755   123.15726210   209.80053376
 H      2   1   3     1.079907866440   117.97230416   204.87371250
 H      4   3   1     1.083044782084   121.04380486   179.56842106
 H      5   4   3     1.082902581029   122.78917913   179.50223428
 H      6   5   4     1.092590042056   104.44382616   100.14236739
 H      6   5   4     1.090238047401    84.67695862   209.52272718
 H      6   5   4     1.089571475398   133.90672381   322.32106333
 H      7   2  54     1.079807853278   126.66122480     1.30600390
 H     10   1   2     1.084632195724   118.72792406   256.53505919
 H     12   9   2     1.016297692608   125.29023241   180.00180175
 H     14  13  12     1.014936943854    44.97226959   359.42596618
 H     18  14  13     1.082871645210   128.03556573   234.20482432
 H     19  17  13     1.080893611786   126.41830519   178.11313280
 H     21  20  18     1.083569563987   121.05669627   180.67006309
 H     22  21  20     1.082483256222   122.73097286   180.59748951
 H     23  18  14     1.092105306278   103.92715769   234.93429879
 H     23  18  14     1.088871893291   134.19244188    12.25587044
 H     23  18  14     1.089833473518    84.85857450   125.45241208
 H     24  19  17     1.080075460327   127.28078426   178.44613241
 H     26  18  14     1.083408048706   118.76995697   244.94906660
 H     30  14  13     1.082703098730   127.99711412   279.66882698
 H     31  29  14     1.079759695488   125.22293469   180.92530585
 H     33  32  30     1.083188810873   121.01964473   180.74284758
 H     34  33  32     1.082494341787   122.70821597   180.59516895
 H     35  34  33     1.092652735319   105.73575241    97.19771933
 H     35  34  33     1.089462711615    84.05943581   206.43036958
 H     35  34  33     1.089268102902   133.08365142   318.50306270
 H     36  31  29     1.079439669458   126.61599965   178.98859863
 H     38  30  73     1.083742127999   118.77264435   359.90091293
 H     42   2   1     1.082178358682   119.31790784   359.51493820
 H     43  41  15     1.080281907652   126.36969097   182.06329380
 H     45  44  42     1.083277434455   121.10105945   179.58025624
 H     46  45  44     1.082194529648   122.72144639   179.46906377
 H     47  42   2     1.091546151109   106.65128841   315.16475048
 H     47  42   2     1.088818625851   132.46019523    94.52397119
 H     47  42   2     1.089531091801    83.63838232   206.04504406
 H     48  43  41     1.080402239909   127.23657387   181.62955349
 H     50  42   2     1.083186502870   118.77001737    94.71359229

---------------------------
INTERNAL COORDINATES (A.U.)
---------------------------
 C      0   0   0     0.000000000000     0.00000000     0.00000000
 C      1   0   0    10.944009676947     0.00000000     0.00000000
 C      1   2   0     4.560241202059    41.05927472     0.00000000
 C      3   1   2     2.652632342060    87.91831497   113.24494608
 C      4   3   1     2.609115795496   120.12398706     0.13202087
 C      5   4   3     4.624521254393   152.53812292     1.63717139
 C      2   1   3     2.585360837309    14.06371525   335.97457504
 C      7   2   3     2.710026725231   108.05010202     0.84668783
 C      2   1   3     2.710100516721   115.69388451    36.45850323
 C      1   2   3     2.611321188099    38.68476990   312.20982505
 N      1   2   3     2.554245726721   105.47969243    72.49432928
 N      9   2   1     2.600503484979   106.58526707   346.37416185
 N     12   9   2     5.527566200405   168.53581413   171.12065651
 N     13  12   9     5.583221047236    91.55032014    11.12112580
 N     14  13  12     5.528150518591    88.43092389   359.84326247
 C      8   7   2     2.654668413270   127.24786865   181.11170171
 C     13  12   9     2.582376967257    81.72106996   188.00453233
 C     14  13  12    10.882574804710    80.56209567   166.76250791
 C     17  13  12     2.757130505230   111.08861209   183.82872609
 C     18  14  13     4.558465206823    27.27532823    36.33507194
 C     20  18  14     2.650705180609    87.95206320   148.94598259
 C     21  20  18     2.611803198586   120.14573887   359.70382047
 C     18  14  13     4.623235745386   144.15733107    82.80075377
 C     19  17  13     2.557953565794   106.29293361   359.75308708
 C     13  12   9     2.582903091751   172.21332906    33.46711076
 C     18  14  13     2.609636529225    15.08449437   309.23336894
 N     22  21  20     2.556370638369   120.73759875     0.27865223
 C     25  13  17     2.666210041769   125.60330303   182.37774668
 C     14  13  12     2.601476916169    80.24689249   177.85461986
 C     14  13  12    10.892550769017   164.51507311   312.20821879
 C     29  14  13     2.712892575415   106.58649366   178.76395472
 C     30  14  13     4.560507835333    27.10625047    82.12560436
 C     32  30  14     2.652673401891    87.90059683   149.76154742
 C     33  32  30     2.609133588376   120.14881443   359.74174632
 C     34  33  32     4.627519515267   152.49203239     2.45173620
 C     31  29  14     2.585449236669   108.16950133     0.70383075
 C     14  13  12     2.600716325456   169.26375223   353.09862627
 C     30  14  13     2.609536633043    14.68948582   353.70041132
 N     34  33  32     2.556154803934   120.85575621     0.19603406
 C     37  14  29     2.654530526499   126.01551127   180.90772073
 C     15  14  13     2.582293994346    81.61824056   183.09049352
 C      2   1   3     8.029564866989   143.90079934   160.39840587
 C     41  15  14     2.758391104639   111.05201287   175.08990246
 C     42   2   1     4.559821839776    41.78584867   204.83196945
 C     44  42   2     2.652129475853    87.95153797   233.97558675
 C     45  44  42     2.611027836043   120.11137308     0.19721020
 C     42   2   1     4.629866436820   135.97209175   115.14681855
 C     43  41  15     2.559561325344   106.26758155     0.30894352
 C     15  14  13     2.584127074516   171.87382904   332.35056460
 C     42   2   1     2.611386828803    32.59078432   253.68724864
 C      9   2   1     2.655043698059   126.98745415   167.37849938
 N     42   2   1     2.556355970587   113.57249190   142.88340774
 H      1   2   3     2.047944434788   123.15726210   209.80053376
 H      2   1   3     2.040730117440   117.97230416   204.87371250
 H      4   3   1     2.046658028912   121.04380486   179.56842106
 H      5   4   3     2.046389307862   122.78917913   179.50223428
 H      6   5   4     2.064695956135   104.44382616   100.14236739
 H      6   5   4     2.060251330368    84.67695862   209.52272718
 H      6   5   4     2.058991691834   133.90672381   322.32106333
 H      7   2  54     2.040541119952   126.66122480     1.30600390
 H     10   1   2     2.049657805951   118.72792406   256.53505919
 H     12   9   2     1.920524309565   125.29023241   180.00180175
 H     14  13  12     1.917952867083    44.97226959   359.42596618
 H     18  14  13     2.046330847636   128.03556573   234.20482432
 H     19  17  13     2.042592906181   126.41830519   178.11313280
 H     21  20  18     2.047649722989   121.05669627   180.67006309
 H     22  21  20     2.045596898814   122.73097286   180.59748951
 H     23  18  14     2.063779938267   103.92715769   234.93429879
 H     23  18  14     2.057669673245   134.19244188    12.25587044
 H     23  18  14     2.059486796529    84.85857450   125.45241208
 H     24  19  17     2.041046823986   127.28078426   178.44613241
 H     26  18  14     2.047344503340   118.76995697   244.94906660
 H     30  14  13     2.046012340948   127.99711412   279.66882698
 H     31  29  14     2.040450114918   125.22293469   180.92530585
 H     33  32  30     2.046930203877   121.01964473   180.74284758
 H     34  33  32     2.045617847496   122.70821597   180.59516895
 H     35  34  33     2.064814429233   105.73575241    97.19771933
 H     35  34  33     2.058786158072    84.05943581   206.43036958
 H     35  34  33     2.058418400901   133.08365142   318.50306270
 H     36  31  29     2.039845353366   126.61599965   178.98859863
 H     38  30  73     2.047975821711   118.77264435   359.90091293
 H     42   2   1     2.045020725966   119.31790784   359.51493820
 H     43  41  15     2.041436952892   126.36969097   182.06329380
 H     45  44  42     2.047097678177   121.10105945   179.58025624
 H     46  45  44     2.045051284662   122.72144639   179.46906377
 H     47  42   2     2.062723288131   106.65128841   315.16475048
 H     47  42   2     2.057569012371   132.46019523    94.52397119
 H     47  42   2     2.058915377895    83.63838232   206.04504406
 H     48  43  41     2.041664347903   127.23657387   181.62955349
 H     50  42   2     2.046925842384   118.77001737    94.71359229

---------------------
BASIS SET INFORMATION
---------------------
There are 3 groups of distinct atoms

 Group   1 Type C   : 17s4p1d contracted to 3s2p1d pattern {881/31/1}
 Group   2 Type N   : 17s4p1d contracted to 3s2p1d pattern {881/31/1}
 Group   3 Type H   : 4s1p contracted to 2s1p pattern {31/1}

Atom   0C    basis set group =>   1
Atom   1N    basis set group =>   2
Atom   2C    basis set group =>   1
Atom   3N    basis set group =>   2
Atom   4C    basis set group =>   1
Atom   5N    basis set group =>   2
Atom   6C    basis set group =>   1
Atom   7N    basis set group =>   2
Atom   8C    basis set group =>   1
Atom   9N    basis set group =>   2
Atom  10C    basis set group =>   1
Atom  11N    basis set group =>   2
Atom  12C    basis set group =>   1
Atom  13N    basis set group =>   2
Atom  14C    basis set group =>   1
Atom  15N    basis set group =>   2
Atom  16C    basis set group =>   1
Atom  17C    basis set group =>   1
Atom  18C    basis set group =>   1
Atom  19C    basis set group =>   1
Atom  20C    basis set group =>   1
Atom  21C    basis set group =>   1
Atom  22C    basis set group =>   1
Atom  23C    basis set group =>   1
Atom  24C    basis set group =>   1
Atom  25C    basis set group =>   1
Atom  26C    basis set group =>   1
Atom  27C    basis set group =>   1
Atom  28C    basis set group =>   1
Atom  29C    basis set group =>   1
Atom  30C    basis set group =>   1
Atom  31C    basis set group =>   1
Atom  32C    basis set group =>   1
Atom  33C    basis set group =>   1
Atom  34C    basis set group =>   1
Atom  35C    basis set group =>   1
Atom  36C    basis set group =>   1
Atom  37C    basis set group =>   1
Atom  38C    basis set group =>   1
Atom  39C    basis set group =>   1
Atom  40C    basis set group =>   1
Atom  41C    basis set group =>   1
Atom  42C    basis set group =>   1
Atom  43C    basis set group =>   1
Atom  44C    basis set group =>   1
Atom  45C    basis set group =>   1
Atom  46C    basis set group =>   1
Atom  47C    basis set group =>   1
Atom  48C    basis set group =>   1
Atom  49C    basis set group =>   1
Atom  50C    basis set group =>   1
Atom  51C    basis set group =>   1
Atom  52H    basis set group =>   3
Atom  53H    basis set group =>   3
Atom  54H    basis set group =>   3
Atom  55H    basis set group =>   3
Atom  56H    basis set group =>   3
Atom  57H    basis set group =>   3
Atom  58H    basis set group =>   3
Atom  59H    basis set group =>   3
Atom  60H    basis set group =>   3
Atom  61H    basis set group =>   3
Atom  62H    basis set group =>   3
Atom  63H    basis set group =>   3
Atom  64H    basis set group =>   3
Atom  65H    basis set group =>   3
Atom  66H    basis set group =>   3
Atom  67H    basis set group =>   3
Atom  68H    basis set group =>   3
Atom  69H    basis set group =>   3
Atom  70H    basis set group =>   3
Atom  71H    basis set group =>   3
Atom  72H    basis set group =>   3
Atom  73H    basis set group =>   3
Atom  74H    basis set group =>   3
Atom  75H    basis set group =>   3
Atom  76H    basis set group =>   3
Atom  77H    basis set group =>   3
Atom  78H    basis set group =>   3
Atom  79H    basis set group =>   3
Atom  80H    basis set group =>   3
Atom  81H    basis set group =>   3
Atom  82H    basis set group =>   3
Atom  83H    basis set group =>   3
Atom  84H    basis set group =>   3
Atom  85H    basis set group =>   3
Atom  86H    basis set group =>   3
Atom  87H    basis set group =>   3
Atom  88H    basis set group =>   3
Atom  89H    basis set group =>   3


           ************************************************************
           *        Program running with 16 parallel MPI-processes    *
           *              working on a common directory               *
           ************************************************************
------------------------------------------------------------------------------
                           ORCA GTO INTEGRAL CALCULATION
------------------------------------------------------------------------------
------------------------------------------------------------------------------
                   ___                                                        
                  /   \      - P O W E R E D   B Y -                         
                 /     \                                                     
                 |  |  |   _    _      __       _____    __    __             
                 |  |  |  | |  | |    /  \     |  _  \  |  |  /  |          
                  \  \/   | |  | |   /    \    | | | |  |  | /  /          
                 / \  \   | |__| |  /  /\  \   | |_| |  |  |/  /          
                |  |  |   |  __  | /  /__\  \  |    /   |      \           
                |  |  |   | |  | | |   __   |  |    \   |  |\   \          
                \     /   | |  | | |  |  |  |  | |\  \  |  | \   \       
                 \___/    |_|  |_| |__|  |__|  |_| \__\ |__|  \__/        
                                                                              
                      - O R C A' S   B I G   F R I E N D -                    
                                      &                                       
                       - I N T E G R A L  F E E D E R -                       
                                                                              
 v1 FN, 2020, v2 2021                                                         
------------------------------------------------------------------------------


Reading SHARK input file /scratch/allen/tmpyp4_amber_gaff2/conf1/conf1/Conf85.orca.SHARKINP.tmp ... ok
----------------------
SHARK INTEGRAL PACKAGE
----------------------

Number of atoms                             ...     90
Number of basis functions                   ...   1230
Number of shells                            ...    738
Maximum angular momentum                    ...      2
Integral batch strategy                     ... SHARK/LIBINT Hybrid
RI-J (if used) integral strategy            ... SPLIT-RIJ (Revised 2003 algorithm where possible)
Printlevel                                  ...      1
Contraction scheme used                     ... PARTIAL GENERAL contraction
Coulomb Range Separation                    ... NOT USED
Exchange Range Separation                   ... NOT USED
Finite Nucleus Model                        ... NOT USED
Auxiliary Coulomb fitting basis             ... NOT available
Auxiliary J/K fitting basis                 ... NOT available
Auxiliary Correlation fitting basis         ... NOT available
Auxiliary 'external' fitting basis          ... NOT available
Integral threshold                          ...     2.500000e-11
Primitive cut-off                           ...     2.500000e-12
Primitive pair pre-selection threshold      ...     2.500000e-12

Calculating pre-screening integrals         ... done (  0.1 sec) Dimension = 738
Calculating pre-screening integrals (ORCA)  ... done (  0.3 sec) Dimension = 426
Organizing shell pair data                  ... done (  0.8 sec)
Shell pair information
Total number of shell pairs                 ...    272691
Shell pairs after pre-screening             ...     71606
Total number of primitive shell pairs       ...    422091
Primitive shell pairs kept                  ...     92342
          la=0 lb=0:  29420 shell pairs
          la=1 lb=0:  25960 shell pairs
          la=1 lb=1:   4686 shell pairs
          la=2 lb=0:   7898 shell pairs
          la=2 lb=1:   3111 shell pairs
          la=2 lb=2:    531 shell pairs

Calculating one electron integrals          ... done (  0.3 sec)
Calculating Nuclear repulsion               ... done (  0.0 sec) ENN=   6222.022211726387 Eh

SHARK setup successfully completed in   2.2 seconds

Maximum memory used throughout the entire GTOINT-calculation: 98.9 MB


           ************************************************************
           *        Program running with 16 parallel MPI-processes    *
           *              working on a common directory               *
           ************************************************************
-------------------------------------------------------------------------------
                                 ORCA SCF
-------------------------------------------------------------------------------

------------
SCF SETTINGS
------------
Hamiltonian:
 Ab initio Hamiltonian  Method          .... Hartree-Fock(GTOs)


General Settings:
 Integral files         IntName         .... /scratch/allen/tmpyp4_amber_gaff2/conf1/conf1/Conf85.orca
 Hartree-Fock type      HFTyp           .... RHF
 Total Charge           Charge          ....    0
 Multiplicity           Mult            ....    1
 Number of Electrons    NEL             ....  358
 Basis Dimension        Dim             ....  918
 Nuclear Repulsion      ENuc            ....   6222.0222117264 Eh

Convergence Acceleration:
 DIIS                   CNVDIIS         .... on
   Start iteration      DIISMaxIt       ....    12
   Startup error        DIISStart       ....  0.200000
   # of expansion vecs  DIISMaxEq       ....     5
   Bias factor          DIISBfac        ....   1.050
   Max. coefficient     DIISMaxC        ....  10.000
 Trust-Rad. Augm. Hess. CNVTRAH         .... auto
   Auto Start mean grad. ratio tolernc. ....  1.125000
   Auto Start start iteration           ....    20
   Auto Start num. interpolation iter.  ....    10
   Max. Number of Micro iterations      ....    16
   Max. Number of Macro iterations      .... Maxiter - #DIIS iter
   Number of Davidson start vectors     ....     2
   Converg. threshold I  (grad. norm)   ....   1.000e-05
   Converg. threshold II (energy diff.) ....   1.000e-08
   Grad. Scal. Fac. for Micro threshold ....   0.100
   Minimum threshold for Micro iter.    ....   0.010
   NR start threshold (gradient norm)   ....   0.001
   Initial trust radius                 ....   0.400
   Minimum AH scaling param. (alpha)    ....   1.000
   Maximum AH scaling param. (alpha)    .... 1000.000
   Orbital update algorithm             .... Taylor
   White noise on init. David. guess    .... on
   Maximum white noise                  ....   0.010
   Quad. conv. algorithm                .... NR
 SOSCF                  CNVSOSCF        .... on
   Start iteration      SOSCFMaxIt      ....   150
   Startup grad/error   SOSCFStart      ....  0.003300
 Level Shifting         CNVShift        .... on
   Level shift para.    LevelShift      ....    0.2500
   Turn off err/grad.   ShiftErr        ....    0.0010
 Zerner damping         CNVZerner       .... off
 Static damping         CNVDamp         .... on
   Fraction old density DampFac         ....    0.7000
   Max. Damping (<1)    DampMax         ....    0.9800
   Min. Damping (>=0)   DampMin         ....    0.0000
   Turn off err/grad.   DampErr         ....    0.1000
 Fernandez-Rico         CNVRico         .... off

SCF Procedure:
 Maximum # iterations   MaxIter         ....   125
 SCF integral mode      SCFMode         .... Direct
   Integral package                     .... SHARK and LIBINT hybrid scheme
 Reset frequency        DirectResetFreq ....    20
 Integral Threshold     Thresh          ....  2.500e-11 Eh
 Primitive CutOff       TCut            ....  2.500e-12 Eh

Convergence Tolerance:
 Convergence Check Mode ConvCheckMode   .... Total+1el-Energy
 Convergence forced     ConvForced      .... 1
 Energy Change          TolE            ....  1.000e-08 Eh
 1-El. energy change                    ....  1.000e-05 Eh
 Orbital Gradient       TolG            ....  1.000e-05
 Orbital Rotation angle TolX            ....  1.000e-05
 DIIS Error             TolErr          ....  5.000e-07


Diagonalization of the overlap matrix:
Smallest eigenvalue                        ... 2.263e-04
Time for diagonalization                   ...    0.387 sec
Threshold for overlap eigenvalues          ... 1.000e-08
Number of eigenvalues below threshold      ... 0
Time for construction of square roots      ...    0.246 sec
Total time needed                          ...    0.638 sec

Time for model grid setup =    1.056 sec

------------------------------
INITIAL GUESS: MODEL POTENTIAL
------------------------------
Loading Hartree-Fock densities                     ... done
Calculating cut-offs                               ... done
Initializing the effective Hamiltonian             ... done
Setting up the integral package (SHARK)            ... done
Starting the Coulomb interaction                   ... done (   1.1 sec)
Reading the grid                                   ... done
Mapping shells                                     ... done
Starting the XC term evaluation                    ... done (   0.2 sec)
Transforming the Hamiltonian                       ... done (   0.2 sec)
Diagonalizing the Hamiltonian                      ... done (   0.3 sec)
Back transforming the eigenvectors                 ... done (   0.1 sec)
Now organizing SCF variables                       ... done
                      ------------------
                      INITIAL GUESS DONE (   3.1 sec)
                      ------------------
--------------
SCF ITERATIONS
--------------
ITER       Energy         Delta-E        Max-DP      RMS-DP      [F,P]     Damp
               ***  Starting incremental Fock matrix formation  ***
  0  -2121.6414343596   0.000000000000 0.06933851  0.00121227  0.2350803 0.7000
  1  -2122.3104513488  -0.669016989203 0.05271230  0.00098237  0.1454178 0.7000
                               ***Turning on DIIS***
  2  -2122.7266391939  -0.416187845130 0.11742573  0.00222028  0.0807261 0.0000
  3  -2117.7640470970   4.962592096879 0.03418122  0.00068597  0.0442594 0.0000
  4  -2123.4128560476  -5.648808950538 0.00931604  0.00023063  0.0073798 0.0000
  5  -2123.5807167317  -0.167860684174 0.00547696  0.00013897  0.0051576 0.0000
  6  -2123.5595681819   0.021148549871 0.00463261  0.00009525  0.0024637 0.0000
  7  -2123.6641968355  -0.104628653611 0.00415310  0.00008043  0.0019398 0.0000
  8  -2123.6925740303  -0.028377194798 0.00404230  0.00008202  0.0018263 0.0000
  9  -2123.6511495291   0.041424501187 0.00297165  0.00006050  0.0014770 0.0000
 10  -2123.6746421724  -0.023492643319 0.00304044  0.00005914  0.0011279 0.0000
 11  -2123.6700788216   0.004563350814 0.00891060  0.00013755  0.0009658 0.0000
                      *** Initiating the SOSCF procedure ***
                           *** Shutting down DIIS ***
                      *** Re-Reading the Fockian *** 
                      *** Removing any level shift *** 
ITER      Energy       Delta-E        Grad      Rot      Max-DP    RMS-DP
 12  -2123.51460475   0.1554740727  0.000413  0.000413  0.000467  0.000011
               *** Restarting incremental Fock matrix formation ***
 13  -2123.60915617  -0.0945514233  0.001422  0.013724  0.002307  0.000056
 14  -2123.60942445  -0.0002682814  0.001738  0.070597  0.015116  0.000249
 15  -2123.61011927  -0.0006948138  0.000696  0.028472  0.007891  0.000107
 16  -2123.61026911  -0.0001498433  0.000526  0.010962  0.004078  0.000046
 17  -2123.61032998  -0.0000608688  0.000347  0.004666  0.001499  0.000031
 18  -2123.61036307  -0.0000330908  0.000198  0.003460  0.001009  0.000020
 19  -2123.61037483  -0.0000117605  0.000143  0.002580  0.000757  0.000013
 20  -2123.61038051  -0.0000056806  0.000126  0.001642  0.000390  0.000006
 21  -2123.61038258  -0.0000020677  0.000074  0.002121  0.000448  0.000007
 22  -2123.61038360  -0.0000010220  0.000045  0.001374  0.000233  0.000004
 23  -2123.61038413  -0.0000005287  0.000041  0.001449  0.000246  0.000005
 24  -2123.61038450  -0.0000003744  0.000022  0.001067  0.000190  0.000003
 25  -2123.61038468  -0.0000001755  0.000015  0.000723  0.000134  0.000002
 26  -2123.61038478  -0.0000000982  0.000014  0.000555  0.000133  0.000002
 27  -2123.61038483  -0.0000000545  0.000012  0.000375  0.000114  0.000001
 28  -2123.61038486  -0.0000000248  0.000010  0.000397  0.000123  0.000002
 29  -2123.61038488  -0.0000000192  0.000009  0.000336  0.000100  0.000001
 30  -2123.61038489  -0.0000000161  0.000005  0.000142  0.000037  0.000001
                  ***Gradient check signals convergence***
              ***Rediagonalizing the Fockian in SOSCF/NRSCF***

               *****************************************************
               *                     SUCCESS                       *
               *           SCF CONVERGED AFTER  31 CYCLES          *
               *****************************************************


----------------
TOTAL SCF ENERGY
----------------

Total Energy       :        -2123.61038490 Eh          -57786.37638 eV

Components:
Nuclear Repulsion  :         6222.02221173 Eh          169309.83193 eV
Electronic Energy  :        -8345.63259662 Eh         -227096.20830 eV
One Electron Energy:       -15285.52642867 Eh         -415940.32012 eV
Two Electron Energy:         6939.89383204 Eh          188844.11182 eV

Virial components:
Potential Energy   :        -4245.59448670 Eh         -115528.49934 eV
Kinetic Energy     :         2121.98410180 Eh           57742.12296 eV
Virial Ratio       :            2.00076640


---------------
SCF CONVERGENCE
---------------

  Last Energy change         ...   -3.7344e-09  Tolerance :   1.0000e-08
  Last MAX-Density change    ...    8.4809e-06  Tolerance :   1.0000e-07
  Last RMS-Density change    ...    1.6941e-07  Tolerance :   5.0000e-09
  Last Orbital Gradient      ...    2.3831e-06  Tolerance :   1.0000e-05
  Last Orbital Rotation      ...    3.6497e-05  Tolerance :   1.0000e-05

             **** THE GBW FILE WAS UPDATED (/scratch/allen/tmpyp4_amber_gaff2/conf1/conf1/Conf85.orca.gbw) ****
             **** DENSITY /scratch/allen/tmpyp4_amber_gaff2/conf1/conf1/Conf85.orca.scfp WAS UPDATED ****
             **** ENERGY FILE WAS UPDATED (/scratch/allen/tmpyp4_amber_gaff2/conf1/conf1/Conf85.orca.en.tmp) ****
             **** THE GBW FILE WAS UPDATED (/scratch/allen/tmpyp4_amber_gaff2/conf1/conf1/Conf85.orca.gbw) ****
             **** DENSITY /scratch/allen/tmpyp4_amber_gaff2/conf1/conf1/Conf85.orca.scfp WAS UPDATED ****
----------------
ORBITAL ENERGIES
----------------

  NO   OCC          E(Eh)            E(eV) 
   0   2.0000     -15.717147      -427.6853 
   1   2.0000     -15.628650      -425.2772 
   2   2.0000     -15.618998      -425.0145 
   3   2.0000     -15.577892      -423.8960 
   4   2.0000     -15.520826      -422.3432 
   5   2.0000     -15.504381      -421.8957 
   6   2.0000     -15.450983      -420.4426 
   7   2.0000     -15.427302      -419.7982 
   8   2.0000     -11.356221      -309.0185 
   9   2.0000     -11.354112      -308.9611 
  10   2.0000     -11.348670      -308.8130 
  11   2.0000     -11.311244      -307.7946 
  12   2.0000     -11.296472      -307.3926 
  13   2.0000     -11.290616      -307.2333 
  14   2.0000     -11.289876      -307.2132 
  15   2.0000     -11.285209      -307.0861 
  16   2.0000     -11.284877      -307.0771 
  17   2.0000     -11.281765      -306.9924 
  18   2.0000     -11.280725      -306.9641 
  19   2.0000     -11.271760      -306.7202 
  20   2.0000     -11.264016      -306.5094 
  21   2.0000     -11.244166      -305.9693 
  22   2.0000     -11.240657      -305.8738 
  23   2.0000     -11.232393      -305.6489 
  24   2.0000     -11.226839      -305.4978 
  25   2.0000     -11.225934      -305.4732 
  26   2.0000     -11.223299      -305.4015 
  27   2.0000     -11.219303      -305.2928 
  28   2.0000     -11.218989      -305.2842 
  29   2.0000     -11.210891      -305.0639 
  30   2.0000     -11.209082      -305.0146 
  31   2.0000     -11.194667      -304.6224 
  32   2.0000     -11.193608      -304.5936 
  33   2.0000     -11.192366      -304.5598 
  34   2.0000     -11.189223      -304.4742 
  35   2.0000     -11.188462      -304.4535 
  36   2.0000     -11.184429      -304.3438 
  37   2.0000     -11.180056      -304.2248 
  38   2.0000     -11.179978      -304.2227 
  39   2.0000     -11.177196      -304.1470 
  40   2.0000     -11.169339      -303.9332 
  41   2.0000     -11.165053      -303.8165 
  42   2.0000     -11.164415      -303.7992 
  43   2.0000     -11.161231      -303.7125 
  44   2.0000     -11.161073      -303.7082 
  45   2.0000     -11.145439      -303.2828 
  46   2.0000     -11.144963      -303.2699 
  47   2.0000     -11.140705      -303.1540 
  48   2.0000     -11.138042      -303.0815 
  49   2.0000     -11.131195      -302.8952 
  50   2.0000     -11.117604      -302.5254 
  51   2.0000     -11.111956      -302.3717 
  52   2.0000      -1.389712       -37.8160 
  53   2.0000      -1.316862       -35.8336 
  54   2.0000      -1.307956       -35.5913 
  55   2.0000      -1.272997       -34.6400 
  56   2.0000      -1.224288       -33.3146 
  57   2.0000      -1.200369       -32.6637 
  58   2.0000      -1.177431       -32.0395 
  59   2.0000      -1.163721       -31.6665 
  60   2.0000      -1.137561       -30.9546 
  61   2.0000      -1.107488       -30.1363 
  62   2.0000      -1.106091       -30.0983 
  63   2.0000      -1.097720       -29.8705 
  64   2.0000      -1.067031       -29.0354 
  65   2.0000      -1.056160       -28.7396 
  66   2.0000      -1.041288       -28.3349 
  67   2.0000      -1.032895       -28.1065 
  68   2.0000      -1.014908       -27.6170 
  69   2.0000      -1.004055       -27.3217 
  70   2.0000      -1.000143       -27.2153 
  71   2.0000      -0.994590       -27.0642 
  72   2.0000      -0.985318       -26.8119 
  73   2.0000      -0.976540       -26.5730 
  74   2.0000      -0.964021       -26.2323 
  75   2.0000      -0.961491       -26.1635 
  76   2.0000      -0.950838       -25.8736 
  77   2.0000      -0.940705       -25.5979 
  78   2.0000      -0.933538       -25.4029 
  79   2.0000      -0.920323       -25.0433 
  80   2.0000      -0.912735       -24.8368 
  81   2.0000      -0.890717       -24.2376 
  82   2.0000      -0.886107       -24.1122 
  83   2.0000      -0.868365       -23.6294 
  84   2.0000      -0.860380       -23.4121 
  85   2.0000      -0.846643       -23.0383 
  86   2.0000      -0.829289       -22.5661 
  87   2.0000      -0.827189       -22.5090 
  88   2.0000      -0.820496       -22.3268 
  89   2.0000      -0.794409       -21.6170 
  90   2.0000      -0.786066       -21.3899 
  91   2.0000      -0.771106       -20.9829 
  92   2.0000      -0.738497       -20.0955 
  93   2.0000      -0.733597       -19.9622 
  94   2.0000      -0.728734       -19.8298 
  95   2.0000      -0.723458       -19.6863 
  96   2.0000      -0.716257       -19.4903 
  97   2.0000      -0.708524       -19.2799 
  98   2.0000      -0.707047       -19.2397 
  99   2.0000      -0.704022       -19.1574 
 100   2.0000      -0.695719       -18.9315 
 101   2.0000      -0.688382       -18.7318 
 102   2.0000      -0.684321       -18.6213 
 103   2.0000      -0.675196       -18.3730 
 104   2.0000      -0.672511       -18.3000 
 105   2.0000      -0.669349       -18.2139 
 106   2.0000      -0.667169       -18.1546 
 107   2.0000      -0.662160       -18.0183 
 108   2.0000      -0.652062       -17.7435 
 109   2.0000      -0.649321       -17.6689 
 110   2.0000      -0.648352       -17.6426 
 111   2.0000      -0.642344       -17.4791 
 112   2.0000      -0.640551       -17.4303 
 113   2.0000      -0.634440       -17.2640 
 114   2.0000      -0.633014       -17.2252 
 115   2.0000      -0.629659       -17.1339 
 116   2.0000      -0.626901       -17.0588 
 117   2.0000      -0.615624       -16.7520 
 118   2.0000      -0.611139       -16.6299 
 119   2.0000      -0.609266       -16.5790 
 120   2.0000      -0.608461       -16.5571 
 121   2.0000      -0.601038       -16.3551 
 122   2.0000      -0.591023       -16.0825 
 123   2.0000      -0.589545       -16.0423 
 124   2.0000      -0.584703       -15.9106 
 125   2.0000      -0.578243       -15.7348 
 126   2.0000      -0.575010       -15.6468 
 127   2.0000      -0.571072       -15.5397 
 128   2.0000      -0.570804       -15.5324 
 129   2.0000      -0.569259       -15.4903 
 130   2.0000      -0.556347       -15.1390 
 131   2.0000      -0.543848       -14.7988 
 132   2.0000      -0.541942       -14.7470 
 133   2.0000      -0.538737       -14.6598 
 134   2.0000      -0.533510       -14.5176 
 135   2.0000      -0.529499       -14.4084 
 136   2.0000      -0.519231       -14.1290 
 137   2.0000      -0.515907       -14.0385 
 138   2.0000      -0.513480       -13.9725 
 139   2.0000      -0.512283       -13.9399 
 140   2.0000      -0.509770       -13.8715 
 141   2.0000      -0.503169       -13.6919 
 142   2.0000      -0.501201       -13.6384 
 143   2.0000      -0.498136       -13.5550 
 144   2.0000      -0.495330       -13.4786 
 145   2.0000      -0.493132       -13.4188 
 146   2.0000      -0.488626       -13.2962 
 147   2.0000      -0.473685       -12.8896 
 148   2.0000      -0.470738       -12.8094 
 149   2.0000      -0.466079       -12.6826 
 150   2.0000      -0.462203       -12.5772 
 151   2.0000      -0.460260       -12.5243 
 152   2.0000      -0.451781       -12.2936 
 153   2.0000      -0.440771       -11.9940 
 154   2.0000      -0.433389       -11.7931 
 155   2.0000      -0.431648       -11.7457 
 156   2.0000      -0.418234       -11.3807 
 157   2.0000      -0.416646       -11.3375 
 158   2.0000      -0.411923       -11.2090 
 159   2.0000      -0.408343       -11.1116 
 160   2.0000      -0.381345       -10.3769 
 161   2.0000      -0.369717       -10.0605 
 162   2.0000      -0.353369        -9.6157 
 163   2.0000      -0.352038        -9.5795 
 164   2.0000      -0.345966        -9.4142 
 165   2.0000      -0.341173        -9.2838 
 166   2.0000      -0.338241        -9.2040 
 167   2.0000      -0.317885        -8.6501 
 168   2.0000      -0.312480        -8.5030 
 169   2.0000      -0.304626        -8.2893 
 170   2.0000      -0.298055        -8.1105 
 171   2.0000      -0.282734        -7.6936 
 172   2.0000      -0.275585        -7.4990 
 173   2.0000      -0.266225        -7.2444 
 174   2.0000      -0.229697        -6.2504 
 175   2.0000      -0.183118        -4.9829 
 176   2.0000      -0.173329        -4.7165 
 177   2.0000      -0.062642        -1.7046 
 178   2.0000      -0.050739        -1.3807 
 179   0.0000       0.035844         0.9754 
 180   0.0000       0.054869         1.4931 
 181   0.0000       0.075417         2.0522 
 182   0.0000       0.098580         2.6825 
 183   0.0000       0.102038         2.7766 
 184   0.0000       0.124387         3.3848 
 185   0.0000       0.141389         3.8474 
 186   0.0000       0.148771         4.0483 
 187   0.0000       0.161549         4.3960 
 188   0.0000       0.166091         4.5196 
 189   0.0000       0.167237         4.5507 
 190   0.0000       0.167535         4.5589 
 191   0.0000       0.172959         4.7065 
 192   0.0000       0.179365         4.8808 
 193   0.0000       0.195075         5.3082 
 194   0.0000       0.201192         5.4747 
 195   0.0000       0.206002         5.6056 
 196   0.0000       0.212101         5.7716 
 197   0.0000       0.212230         5.7751 
 198   0.0000       0.217682         5.9234 
 199   0.0000       0.218277         5.9396 
 200   0.0000       0.230932         6.2840 
 201   0.0000       0.236146         6.4259 
 202   0.0000       0.239003         6.5036 
 203   0.0000       0.239309         6.5119 
 204   0.0000       0.241498         6.5715 
 205   0.0000       0.245857         6.6901 
 206   0.0000       0.248066         6.7502 
 207   0.0000       0.249688         6.7944 
 208   0.0000       0.252602         6.8737 
 209   0.0000       0.258489         7.0339 
 210   0.0000       0.263557         7.1717 
 211   0.0000       0.267072         7.2674 
 212   0.0000       0.267761         7.2862 
 213   0.0000       0.274103         7.4587 
 214   0.0000       0.279256         7.5990 
 215   0.0000       0.280345         7.6286 
 216   0.0000       0.283984         7.7276 
 217   0.0000       0.284669         7.7462 
 218   0.0000       0.288071         7.8388 
 219   0.0000       0.289333         7.8731 
 220   0.0000       0.290438         7.9032 
 221   0.0000       0.294442         8.0122 
 222   0.0000       0.298651         8.1267 
 223   0.0000       0.299823         8.1586 
 224   0.0000       0.300427         8.1750 
 225   0.0000       0.305290         8.3074 
 226   0.0000       0.306514         8.3407 
 227   0.0000       0.306576         8.3423 
 228   0.0000       0.317511         8.6399 
 229   0.0000       0.320128         8.7111 
 230   0.0000       0.327515         8.9121 
 231   0.0000       0.329781         8.9738 
 232   0.0000       0.332520         9.0483 
 233   0.0000       0.336023         9.1437 
 234   0.0000       0.339963         9.2509 
 235   0.0000       0.357385         9.7249 
 236   0.0000       0.357992         9.7415 
 237   0.0000       0.361457         9.8358 
 238   0.0000       0.375261        10.2114 
 239   0.0000       0.388636        10.5753 
 240   0.0000       0.395561        10.7638 
 241   0.0000       0.398875        10.8539 
 242   0.0000       0.408195        11.1076 
 243   0.0000       0.418049        11.3757 
 244   0.0000       0.423698        11.5294 
 245   0.0000       0.430260        11.7080 
 246   0.0000       0.436393        11.8749 
 247   0.0000       0.438726        11.9383 
 248   0.0000       0.443471        12.0675 
 249   0.0000       0.444782        12.1031 
 250   0.0000       0.451541        12.2871 
 251   0.0000       0.455964        12.4074 
 252   0.0000       0.459032        12.4909 
 253   0.0000       0.468918        12.7599 
 254   0.0000       0.470922        12.8144 
 255   0.0000       0.476635        12.9699 
 256   0.0000       0.478838        13.0298 
 257   0.0000       0.483257        13.1501 
 258   0.0000       0.486137        13.2285 
 259   0.0000       0.493352        13.4248 
 260   0.0000       0.501872        13.6566 
 261   0.0000       0.504051        13.7159 
 262   0.0000       0.507368        13.8062 
 263   0.0000       0.509599        13.8669 
 264   0.0000       0.511650        13.9227 
 265   0.0000       0.516833        14.0637 
 266   0.0000       0.520515        14.1639 
 267   0.0000       0.525322        14.2947 
 268   0.0000       0.531975        14.4758 
 269   0.0000       0.539286        14.6747 
 270   0.0000       0.543658        14.7937 
 271   0.0000       0.545208        14.8359 
 272   0.0000       0.546968        14.8837 
 273   0.0000       0.548252        14.9187 
 274   0.0000       0.552688        15.0394 
 275   0.0000       0.560296        15.2464 
 276   0.0000       0.568239        15.4626 
 277   0.0000       0.571455        15.5501 
 278   0.0000       0.578185        15.7332 
 279   0.0000       0.585921        15.9437 
 280   0.0000       0.588980        16.0270 
 281   0.0000       0.594253        16.1705 
 282   0.0000       0.597114        16.2483 
 283   0.0000       0.598336        16.2816 
 284   0.0000       0.600458        16.3393 
 285   0.0000       0.602718        16.4008 
 286   0.0000       0.604870        16.4594 
 287   0.0000       0.609032        16.5726 
 288   0.0000       0.613476        16.6935 
 289   0.0000       0.618438        16.8286 
 290   0.0000       0.625378        17.0174 
 291   0.0000       0.630326        17.1520 
 292   0.0000       0.632492        17.2110 
 293   0.0000       0.637459        17.3461 
 294   0.0000       0.641523        17.4567 
 295   0.0000       0.646637        17.5959 
 296   0.0000       0.650379        17.6977 
 297   0.0000       0.655144        17.8274 
 298   0.0000       0.660493        17.9729 
 299   0.0000       0.662579        18.0297 
 300   0.0000       0.664394        18.0791 
 301   0.0000       0.668985        18.2040 
 302   0.0000       0.670353        18.2412 
 303   0.0000       0.674479        18.3535 
 304   0.0000       0.678048        18.4506 
 305   0.0000       0.679578        18.4923 
 306   0.0000       0.683474        18.5983 
 307   0.0000       0.687696        18.7132 
 308   0.0000       0.689495        18.7621 
 309   0.0000       0.695196        18.9172 
 310   0.0000       0.698839        19.0164 
 311   0.0000       0.702169        19.1070 
 312   0.0000       0.705091        19.1865 
 313   0.0000       0.707356        19.2481 
 314   0.0000       0.713584        19.4176 
 315   0.0000       0.714640        19.4464 
 316   0.0000       0.715540        19.4708 
 317   0.0000       0.717602        19.5270 
 318   0.0000       0.719592        19.5811 
 319   0.0000       0.723073        19.6758 
 320   0.0000       0.726045        19.7567 
 321   0.0000       0.728667        19.8280 
 322   0.0000       0.731704        19.9107 
 323   0.0000       0.737770        20.0757 
 324   0.0000       0.739553        20.1243 
 325   0.0000       0.742958        20.2169 
 326   0.0000       0.744326        20.2541 
 327   0.0000       0.749058        20.3829 
 328   0.0000       0.752420        20.4744 
 329   0.0000       0.755796        20.5662 
 330   0.0000       0.757873        20.6228 
 331   0.0000       0.761619        20.7247 
 332   0.0000       0.762232        20.7414 
 333   0.0000       0.764948        20.8153 
 334   0.0000       0.766351        20.8535 
 335   0.0000       0.768337        20.9075 
 336   0.0000       0.770138        20.9565 
 337   0.0000       0.775768        21.1097 
 338   0.0000       0.782484        21.2925 
 339   0.0000       0.785745        21.3812 
 340   0.0000       0.789646        21.4874 
 341   0.0000       0.790602        21.5134 
 342   0.0000       0.794007        21.6060 
 343   0.0000       0.794919        21.6308 
 344   0.0000       0.797167        21.6920 
 345   0.0000       0.798731        21.7346 
 346   0.0000       0.804150        21.8820 
 347   0.0000       0.806548        21.9473 
 348   0.0000       0.813537        22.1375 
 349   0.0000       0.814366        22.1600 
 350   0.0000       0.817410        22.2429 
 351   0.0000       0.820139        22.3171 
 352   0.0000       0.824596        22.4384 
 353   0.0000       0.825729        22.4692 
 354   0.0000       0.827588        22.5198 
 355   0.0000       0.830481        22.5985 
 356   0.0000       0.832739        22.6600 
 357   0.0000       0.837024        22.7766 
 358   0.0000       0.840091        22.8600 
 359   0.0000       0.840244        22.8642 
 360   0.0000       0.845030        22.9944 
 361   0.0000       0.845983        23.0204 
 362   0.0000       0.848528        23.0896 
 363   0.0000       0.850526        23.1440 
 364   0.0000       0.852476        23.1970 
 365   0.0000       0.856308        23.3013 
 366   0.0000       0.858901        23.3719 
 367   0.0000       0.859177        23.3794 
 368   0.0000       0.860230        23.4081 
 369   0.0000       0.865660        23.5558 
 370   0.0000       0.866621        23.5819 
 371   0.0000       0.867848        23.6153 
 372   0.0000       0.870430        23.6856 
 373   0.0000       0.871702        23.7202 
 374   0.0000       0.875506        23.8237 
 375   0.0000       0.876917        23.8621 
 376   0.0000       0.877645        23.8819 
 377   0.0000       0.880725        23.9658 
 378   0.0000       0.883837        24.0504 
 379   0.0000       0.888277        24.1712 
 380   0.0000       0.890890        24.2424 
 381   0.0000       0.891341        24.2546 
 382   0.0000       0.902203        24.5502 
 383   0.0000       0.903232        24.5782 
 384   0.0000       0.904121        24.6024 
 385   0.0000       0.908003        24.7080 
 386   0.0000       0.909529        24.7495 
 387   0.0000       0.915685        24.9171 
 388   0.0000       0.917651        24.9705 
 389   0.0000       0.919113        25.0103 
 390   0.0000       0.921585        25.0776 
 391   0.0000       0.923904        25.1407 
 392   0.0000       0.928431        25.2639 
 393   0.0000       0.933055        25.3897 
 394   0.0000       0.934049        25.4168 
 395   0.0000       0.934479        25.4285 
 396   0.0000       0.937126        25.5005 
 397   0.0000       0.939739        25.5716 
 398   0.0000       0.940811        25.6008 
 399   0.0000       0.942997        25.6603 
 400   0.0000       0.946021        25.7425 
 401   0.0000       0.948976        25.8230 
 402   0.0000       0.951888        25.9022 
 403   0.0000       0.956459        26.0266 
 404   0.0000       0.957775        26.0624 
 405   0.0000       0.960011        26.1232 
 406   0.0000       0.963064        26.2063 
 407   0.0000       0.967804        26.3353 
 408   0.0000       0.968699        26.3596 
 409   0.0000       0.975380        26.5414 
 410   0.0000       0.979941        26.6655 
 411   0.0000       0.983562        26.7641 
 412   0.0000       0.988571        26.9004 
 413   0.0000       0.995624        27.0923 
 414   0.0000       0.996324        27.1114 
 415   0.0000       0.999949        27.2100 
 416   0.0000       1.003034        27.2939 
 417   0.0000       1.005432        27.3592 
 418   0.0000       1.008621        27.4460 
 419   0.0000       1.015865        27.6431 
 420   0.0000       1.022523        27.8243 
 421   0.0000       1.024440        27.8764 
 422   0.0000       1.033167        28.1139 
 423   0.0000       1.037300        28.2264 
 424   0.0000       1.039579        28.2884 
 425   0.0000       1.045268        28.4432 
 426   0.0000       1.056834        28.7579 
 427   0.0000       1.064334        28.9620 
 428   0.0000       1.066580        29.0231 
 429   0.0000       1.072094        29.1732 
 430   0.0000       1.073676        29.2162 
 431   0.0000       1.081830        29.4381 
 432   0.0000       1.084508        29.5110 
 433   0.0000       1.088258        29.6130 
 434   0.0000       1.093478        29.7550 
 435   0.0000       1.097816        29.8731 
 436   0.0000       1.105243        30.0752 
 437   0.0000       1.107035        30.1239 
 438   0.0000       1.113994        30.3133 
 439   0.0000       1.115154        30.3449 
 440   0.0000       1.117151        30.3992 
 441   0.0000       1.121406        30.5150 
 442   0.0000       1.124605        30.6021 
 443   0.0000       1.129418        30.7330 
 444   0.0000       1.132132        30.8069 
 445   0.0000       1.133909        30.8552 
 446   0.0000       1.141737        31.0682 
 447   0.0000       1.143241        31.1092 
 448   0.0000       1.145531        31.1715 
 449   0.0000       1.149044        31.2671 
 450   0.0000       1.154510        31.4158 
 451   0.0000       1.156618        31.4732 
 452   0.0000       1.158810        31.5328 
 453   0.0000       1.161004        31.5925 
 454   0.0000       1.165260        31.7083 
 455   0.0000       1.167651        31.7734 
 456   0.0000       1.175396        31.9842 
 457   0.0000       1.177450        32.0400 
 458   0.0000       1.184202        32.2238 
 459   0.0000       1.186685        32.2913 
 460   0.0000       1.189515        32.3684 
 461   0.0000       1.190901        32.4061 
 462   0.0000       1.199411        32.6376 
 463   0.0000       1.203177        32.7401 
 464   0.0000       1.205932        32.8151 
 465   0.0000       1.207563        32.8594 
 466   0.0000       1.210406        32.9368 
 467   0.0000       1.212917        33.0052 
 468   0.0000       1.219082        33.1729 
 469   0.0000       1.220525        33.2122 
 470   0.0000       1.227760        33.4091 
 471   0.0000       1.229137        33.4465 
 472   0.0000       1.233413        33.5629 
 473   0.0000       1.236708        33.6525 
 474   0.0000       1.238116        33.6909 
 475   0.0000       1.243065        33.8255 
 476   0.0000       1.246856        33.9287 
 477   0.0000       1.249835        34.0097 
 478   0.0000       1.255898        34.1747 
 479   0.0000       1.257351        34.2143 
 480   0.0000       1.259296        34.2672 
 481   0.0000       1.264998        34.4223 
 482   0.0000       1.266379        34.4599 
 483   0.0000       1.270131        34.5620 
 484   0.0000       1.273351        34.6496 
 485   0.0000       1.281050        34.8591 
 486   0.0000       1.284690        34.9582 
 487   0.0000       1.287625        35.0381 
 488   0.0000       1.290210        35.1084 
 489   0.0000       1.290675        35.1211 
 490   0.0000       1.295214        35.2446 
 491   0.0000       1.300216        35.3807 
 492   0.0000       1.302757        35.4498 
 493   0.0000       1.306980        35.5647 
 494   0.0000       1.308885        35.6166 
 495   0.0000       1.315527        35.7973 
 496   0.0000       1.320242        35.9256 
 497   0.0000       1.322932        35.9988 
 498   0.0000       1.326890        36.1065 
 499   0.0000       1.329409        36.1751 
 500   0.0000       1.332195        36.2509 
 501   0.0000       1.337267        36.3889 
 502   0.0000       1.340783        36.4846 
 503   0.0000       1.343146        36.5489 
 504   0.0000       1.345650        36.6170 
[...]
      pz      :     0.021747  p :     0.079242
      px      :     0.042808
      py      :     0.014687
 77 H s       :     0.896179  s :     0.896179
      pz      :     0.047073  p :     0.078289
      px      :     0.015002
      py      :     0.016214
 78 H s       :     0.896563  s :     0.896563
      pz      :     0.025421  p :     0.078201
      px      :     0.020721
      py      :     0.032058
 79 H s       :     0.907102  s :     0.907102
      pz      :     0.022660  p :     0.087320
      px      :     0.021910
      py      :     0.042749
 80 H s       :     0.880563  s :     0.880563
      pz      :     0.038089  p :     0.083099
      px      :     0.029440
      py      :     0.015569
 81 H s       :     0.888946  s :     0.888946
      pz      :     0.037527  p :     0.083248
      px      :     0.016071
      py      :     0.029649
 82 H s       :     0.914058  s :     0.914058
      pz      :     0.022526  p :     0.087183
      px      :     0.030880
      py      :     0.033778
 83 H s       :     0.872295  s :     0.872295
      pz      :     0.039161  p :     0.083600
      px      :     0.015246
      py      :     0.029192
 84 H s       :     0.888972  s :     0.888972
      pz      :     0.035808  p :     0.084517
      px      :     0.031815
      py      :     0.016893
 85 H s       :     0.896363  s :     0.896363
      pz      :     0.022509  p :     0.079590
      px      :     0.014164
      py      :     0.042918
 86 H s       :     0.890812  s :     0.890812
      pz      :     0.024695  p :     0.078889
      px      :     0.032989
      py      :     0.021206
 87 H s       :     0.891485  s :     0.891485
      pz      :     0.047784  p :     0.078569
      px      :     0.015663
      py      :     0.015122
 88 H s       :     0.918594  s :     0.918594
      pz      :     0.022549  p :     0.086812
      px      :     0.041940
      py      :     0.022323
 89 H s       :     0.875793  s :     0.875793
      pz      :     0.037785  p :     0.084038
      px      :     0.030452
      py      :     0.015801


                      *****************************
                      * MAYER POPULATION ANALYSIS *
                      *****************************

  NA   - Mulliken gross atomic population
  ZA   - Total nuclear charge
  QA   - Mulliken gross atomic charge
  VA   - Mayer's total valence
  BVA  - Mayer's bonded valence
  FA   - Mayer's free valence

  ATOM       NA         ZA         QA         VA         BVA        FA
  0 C      5.7619     6.0000     0.2381     3.8001     3.8001     0.0000
  1 N      7.4109     7.0000    -0.4109     3.4824     3.4824     0.0000
  2 C      6.0660     6.0000    -0.0660     3.9212     3.9212    -0.0000
  3 N      7.3438     7.0000    -0.3438     3.4203     3.4203     0.0000
  4 C      6.0655     6.0000    -0.0655     3.9536     3.9536     0.0000
  5 N      7.5663     7.0000    -0.5663     3.0659     3.0659    -0.0000
  6 C      6.0256     6.0000    -0.0256     3.9586     3.9586     0.0000
  7 N      7.3367     7.0000    -0.3367     3.4460     3.4460     0.0000
  8 C      5.7669     6.0000     0.2331     3.7996     3.7996     0.0000
  9 N      7.5664     7.0000    -0.5664     3.0923     3.0923     0.0000
 10 C      5.8972     6.0000     0.1028     3.8583     3.8583    -0.0000
 11 N      7.4401     7.0000    -0.4401     3.3710     3.3710     0.0000
 12 C      6.0588     6.0000    -0.0588     3.9083     3.9083    -0.0000
 13 N      7.4517     7.0000    -0.4517     3.3139     3.3139    -0.0000
 14 C      5.7793     6.0000     0.2207     3.8105     3.8105     0.0000
 15 N      7.4418     7.0000    -0.4418     3.3622     3.3622    -0.0000
 16 C      5.7430     6.0000     0.2570     3.8065     3.8065    -0.0000
 17 C      6.0339     6.0000    -0.0339     3.9610     3.9610    -0.0000
 18 C      6.1784     6.0000    -0.1784     3.6738     3.6738    -0.0000
 19 C      5.7680     6.0000     0.2320     3.9013     3.9013    -0.0000
 20 C      5.8134     6.0000     0.1866     3.8208     3.8208    -0.0000
 21 C      6.0687     6.0000    -0.0687     3.8905     3.8905     0.0000
 22 C      6.0920     6.0000    -0.0920     3.9852     3.9852     0.0000
 23 C      6.0686     6.0000    -0.0686     3.9884     3.9884     0.0000
 24 C      5.7827     6.0000     0.2173     3.8308     3.8308     0.0000
 25 C      5.8849     6.0000     0.1151     3.8943     3.8943    -0.0000
 26 C      6.0651     6.0000    -0.0651     3.9103     3.9103     0.0000
 27 C      5.7507     6.0000     0.2493     3.9038     3.9038    -0.0000
 28 C      6.0392     6.0000    -0.0392     3.9909     3.9909     0.0000
 29 C      6.1979     6.0000    -0.1979     3.7274     3.7274     0.0000
 30 C      5.7800     6.0000     0.2200     3.7778     3.7778     0.0000
 31 C      5.8137     6.0000     0.1863     3.8339     3.8339     0.0000
 32 C      6.0648     6.0000    -0.0648     3.9126     3.9126    -0.0000
 33 C      6.1038     6.0000    -0.1038     3.9840     3.9840    -0.0000
 34 C      6.0508     6.0000    -0.0508     4.0000     4.0000     0.0000
 35 C      5.8229     6.0000     0.1771     3.8302     3.8302    -0.0000
 36 C      5.8786     6.0000     0.1214     3.9117     3.9117     0.0000
 37 C      6.0709     6.0000    -0.0709     3.9133     3.9133    -0.0000
 38 C      5.7554     6.0000     0.2446     3.7937     3.7937    -0.0000
 39 C      6.0654     6.0000    -0.0654     3.9994     3.9994     0.0000
 40 C      6.2055     6.0000    -0.2055     3.7532     3.7532    -0.0000
 41 C      5.7835     6.0000     0.2165     3.8737     3.8737    -0.0000
 42 C      5.7874     6.0000     0.2126     3.8332     3.8332    -0.0000
 43 C      6.0775     6.0000    -0.0775     3.9050     3.9050     0.0000
 44 C      6.0928     6.0000    -0.0928     3.9827     3.9827    -0.0000
 45 C      6.0374     6.0000    -0.0374     3.9967     3.9967    -0.0000
 46 C      5.8175     6.0000     0.1825     3.8196     3.8196    -0.0000
 47 C      5.8831     6.0000     0.1169     3.8975     3.8975    -0.0000
 48 C      6.0821     6.0000    -0.0821     3.8974     3.8974    -0.0000
 49 C      5.7933     6.0000     0.2067     3.8609     3.8609    -0.0000
 50 C      6.0686     6.0000    -0.0686     3.9903     3.9903     0.0000
 51 C      6.1883     6.0000    -0.1883     3.7435     3.7435    -0.0000
 52 H      0.9162     1.0000     0.0838     0.9817     0.9817     0.0000
 53 H      1.0063     1.0000    -0.0063     1.0027     1.0027    -0.0000
 54 H      0.9311     1.0000     0.0689     1.0052     1.0052     0.0000
 55 H      0.9177     1.0000     0.0823     0.9827     0.9827     0.0000
 56 H      0.9135     1.0000     0.0865     0.9727     0.9727     0.0000
 57 H      0.9225     1.0000     0.0775     0.9849     0.9849    -0.0000
 58 H      0.9246     1.0000     0.0754     0.9868     0.9868    -0.0000
 59 H      1.0295     1.0000    -0.0295     0.9958     0.9958    -0.0000
 60 H      0.9316     1.0000     0.0684     1.0045     1.0045    -0.0000
 61 H      0.8225     1.0000     0.1775     1.0439     1.0439     0.0000
 62 H      0.8326     1.0000     0.1674     1.0433     1.0433    -0.0000
 63 H      0.9481     1.0000     0.0519     0.9864     0.9864    -0.0000
 64 H      1.0353     1.0000    -0.0353     0.9930     0.9930     0.0000
 65 H      0.9601     1.0000     0.0399     1.0076     1.0076    -0.0000
 66 H      0.9458     1.0000     0.0542     0.9847     0.9847    -0.0000
 67 H      0.9426     1.0000     0.0574     0.9715     0.9715    -0.0000
 68 H      0.9445     1.0000     0.0555     0.9863     0.9863     0.0000
 69 H      0.9414     1.0000     0.0586     0.9830     0.9830    -0.0000
 70 H      1.0126     1.0000    -0.0126     0.9985     0.9985    -0.0000
 71 H      0.9540     1.0000     0.0460     1.0077     1.0077     0.0000
 72 H      0.9638     1.0000     0.0362     0.9861     0.9861     0.0000
 73 H      1.0197     1.0000    -0.0197     0.9961     0.9961    -0.0000
 74 H      0.9718     1.0000     0.0282     1.0089     1.0089     0.0000
 75 H      0.9651     1.0000     0.0349     0.9868     0.9868    -0.0000
 76 H      0.9549     1.0000     0.0451     0.9701     0.9701    -0.0000
 77 H      0.9547     1.0000     0.0453     0.9841     0.9841     0.0000
 78 H      0.9555     1.0000     0.0445     0.9834     0.9834     0.0000
 79 H      1.0117     1.0000    -0.0117     1.0020     1.0020    -0.0000
 80 H      0.9720     1.0000     0.0280     1.0062     1.0062    -0.0000
 81 H      0.9501     1.0000     0.0499     0.9852     0.9852    -0.0000
 82 H      1.0228     1.0000    -0.0228     0.9953     0.9953     0.0000
 83 H      0.9575     1.0000     0.0425     1.0108     1.0108    -0.0000
 84 H      0.9511     1.0000     0.0489     0.9865     0.9865    -0.0000
 85 H      0.9462     1.0000     0.0538     0.9713     0.9713     0.0000
 86 H      0.9437     1.0000     0.0563     0.9841     0.9841    -0.0000
 87 H      0.9458     1.0000     0.0542     0.9852     0.9852     0.0000
 88 H      1.0308     1.0000    -0.0308     0.9908     0.9908    -0.0000
 89 H      0.9618     1.0000     0.0382     1.0058     1.0058     0.0000

  Mayer bond orders larger than 0.100000
B(  0-C ,  1-N ) :   1.2120 B(  0-C , 17-C ) :   1.5135 B(  0-C , 52-H ) :   0.9667 
B(  1-N ,  8-C ) :   1.2025 B(  1-N , 10-C ) :   0.9250 B(  2-C , 12-C ) :   1.5813 
B(  2-C , 16-C ) :   1.2725 B(  2-C , 53-H ) :   0.9793 B(  3-N , 14-C ) :   1.1752 
B(  3-N , 16-C ) :   1.2020 B(  3-N , 61-H ) :   0.8951 B(  4-C ,  6-C ) :   1.3605 
B(  4-C , 17-C ) :   1.3609 B(  4-C , 18-C ) :   1.0529 B(  5-N , 19-C ) :   1.3638 
B(  5-N , 27-C ) :   1.4491 B(  6-C ,  8-C ) :   1.5150 B(  6-C , 54-H ) :   0.9704 
B(  7-N , 30-C ) :   1.1843 B(  7-N , 38-C ) :   1.2155 B(  7-N , 62-H ) :   0.9016 
B(  8-C , 55-H ) :   0.9675 B(  9-N , 41-C ) :   1.4362 B(  9-N , 49-C ) :   1.3914 
B( 10-C , 56-H ) :   0.9766 B( 10-C , 57-H ) :   0.9805 B( 10-C , 58-H ) :   0.9816 
B( 11-N , 20-C ) :   1.0960 B( 11-N , 24-C ) :   1.1340 B( 11-N , 25-C ) :   0.9626 
B( 12-C , 14-C ) :   1.2725 B( 12-C , 59-H ) :   0.9767 B( 13-N , 31-C ) :   1.0813 
B( 13-N , 35-C ) :   1.0714 B( 13-N , 36-C ) :   0.9828 B( 14-C , 18-C ) :   1.2618 
B( 15-N , 42-C ) :   1.1264 B( 15-N , 46-C ) :   1.0885 B( 15-N , 47-C ) :   0.9665 
B( 16-C , 51-C ) :   1.2480 B( 17-C , 60-H ) :   0.9709 B( 18-C , 19-C ) :   1.3132 
B( 19-C , 21-C ) :   1.1611 B( 20-C , 28-C ) :   1.6298 B( 20-C , 63-H ) :   0.9710 
B( 21-C , 26-C ) :   1.6837 B( 21-C , 64-H ) :   0.9714 B( 22-C , 23-C ) :   1.2547 
B( 22-C , 28-C ) :   1.2793 B( 22-C , 29-C ) :   1.2583 B( 23-C , 24-C ) :   1.6357 
B( 23-C , 65-H ) :   0.9723 B( 24-C , 66-H ) :   0.9691 B( 25-C , 67-H ) :   0.9762 
B( 25-C , 68-H ) :   0.9834 B( 25-C , 69-H ) :   0.9819 B( 26-C , 27-C ) :   1.1711 
B( 26-C , 70-H ) :   0.9758 B( 27-C , 29-C ) :   1.2435 B( 28-C , 71-H ) :   0.9709 
B( 29-C , 30-C ) :   1.1730 B( 30-C , 32-C ) :   1.3530 B( 31-C , 39-C ) :   1.6858 
B( 31-C , 72-H ) :   0.9709 B( 32-C , 37-C ) :   1.5069 B( 32-C , 73-H ) :   0.9771 
B( 33-C , 34-C ) :   1.2315 B( 33-C , 39-C ) :   1.2242 B( 33-C , 40-C ) :   1.3605 
B( 34-C , 35-C ) :   1.6845 B( 34-C , 74-H ) :   0.9710 B( 35-C , 75-H ) :   0.9709 
B( 36-C , 76-H ) :   0.9755 B( 36-C , 77-H ) :   0.9826 B( 36-C , 78-H ) :   0.9838 
B( 37-C , 38-C ) :   1.3467 B( 37-C , 79-H ) :   0.9793 B( 38-C , 40-C ) :   1.1768 
B( 39-C , 80-H ) :   0.9721 B( 40-C , 41-C ) :   1.1680 B( 41-C , 43-C ) :   1.2559 
B( 42-C , 50-C ) :   1.6423 B( 42-C , 81-H ) :   0.9696 B( 43-C , 48-C ) :   1.5952 
B( 43-C , 82-H ) :   0.9757 B( 44-C , 45-C ) :   1.2813 B( 44-C , 50-C ) :   1.2485 
B( 44-C , 51-C ) :   1.2460 B( 45-C , 46-C ) :   1.6329 B( 45-C , 83-H ) :   0.9702 
B( 46-C , 84-H ) :   0.9709 B( 47-C , 85-H ) :   0.9759 B( 47-C , 86-H ) :   0.9825 
B( 47-C , 87-H ) :   0.9830 B( 48-C , 49-C ) :   1.2502 B( 48-C , 88-H ) :   0.9726 
B( 49-C , 51-C ) :   1.1908 B( 50-C , 89-H ) :   0.9722 

-------
TIMINGS
-------

Total SCF time: 0 days 0 hours 33 min 36 sec 

Total time                  ....    2016.941 sec
Sum of individual times     ....    2012.105 sec  ( 99.8%)

Fock matrix formation       ....    1986.733 sec  ( 98.5%)
Diagonalization             ....       7.461 sec  (  0.4%)
Density matrix formation    ....       0.770 sec  (  0.0%)
Population analysis         ....       0.533 sec  (  0.0%)
Initial guess               ....       2.058 sec  (  0.1%)
Orbital Transformation      ....       0.000 sec  (  0.0%)
Orbital Orthonormalization  ....       0.000 sec  (  0.0%)
DIIS solution               ....       3.885 sec  (  0.2%)
SOSCF solution              ....       9.608 sec  (  0.5%)

Maximum memory used throughout the entire SCF-calculation: 302.6 MB


           ************************************************************
           *        Program running with 16 parallel MPI-processes    *
           *              working on a common directory               *
           ************************************************************

------------------------------------------------------------------------------
                                ORCA  MP2 
------------------------------------------------------------------------------

Freezing NCore=104 chemical core electrons

----------
MP2 ENERGY (disk based algorithm)
----------

Dimension of the basis                    ...  918
Memory devoted to MP2                     ... 2000 MB   
Data format for buffers                   ... DOUBLE
Compression type for matrix containers    ... UNCOMPRESSED

-------------------------------
PARTIAL EXCHANGE TRANSFORMATION
-------------------------------

Transformation type                        ... one-operator
Generation of integrals (i,mue|j,nue)      ... ON
Generation of integrals (mue,kappa|nue,tau)... OFF
Generation of integrals (i,mue|a,nue)      ... OFF
Dimension of the basis                     ...  918
Number of internal MOs                     ...  127 (  52- 178)
Pair cutoff                                ... 2.500e-12 Eh
Number of AO pairs in the trafo            ... 421821
Total Number of distinct AO pairs          ... 421821
Memory devoted for trafo                   ... 2000.0 MB 
Max. Number of MO pairs treated together   ...  311      
Number Format for Storage                  ... Double (8 Byte)
Integral package used                      ... LIBINT

Starting integral evaluation:
    ... done with AO integral generation
Closing buffer AOK     (37.76 GB; CompressionRatio= 1.34)
Collecting buffer AOK 
Number of MO pairs included in the trafo   ... 8128
------------------------
SORTING OF (i,mue|j,nue)
------------------------

IBATCH = 1 of  2
IBATCH = 2 of  2
Closing buffer KAO     (51.03 GB; CompressionRatio= 1.00)
Collecting buffer KAO 
N(AO-Batches) Done                         ...  85599452 
N(AO-Batches) Skipped                      ...  81989372 
N(IJ)-pairs Skipped                        ...         0 
TOTAL TIME for half transformation         ...  3194.452 sec
AO-integral generation                     ...   209.926 sec
Half transformation                        ...   373.147 sec
K-integral sorting                         ...  2424.022 sec
Process 10:   Internal MO 132
Process  1:   Internal MO  60
Process 13:   Internal MO 156
Process  4:   Internal MO  84

Finished integral transformation - now doing MP2 part

OPERATOR COMBINATION   0   0: ij=( 52..178, 52..178)
Process  7:   Internal MO 108
Process  0:   Internal MO  54
Process  2:   Internal MO  69
Process  0:   Internal MO  57
Process  1:   Internal MO  63
Process  5:   Internal MO  93
Process  3:   Internal MO  78
Process  1:   Internal MO  66
Process  2:   Internal MO  72
Process  8:   Internal MO 117
Process  6:   Internal MO 102
Process 11:   Internal MO 141
Process 14:   Internal MO 165
Process  4:   Internal MO  87
Process  2:   Internal MO  75
Process  9:   Internal MO 126
Process  3:   Internal MO  81
Process  7:   Internal MO 111
Process  5:   Internal MO  96
Process 12:   Internal MO 150
Process  4:   Internal MO  90
Process 15:   Internal MO 174
Process  6:   Internal MO 105
Process 10:   Internal MO 135
Process  8:   Internal MO 120
Process  5:   Internal MO  99
Process 13:   Internal MO 159
Process  7:   Internal MO 114
Process  9:   Internal MO 129
Process 14:   Internal MO 168
Process 11:   Internal MO 144
Process  8:   Internal MO 123
Process 10:   Internal MO 138
Process 12:   Internal MO 153
Process 15:   Internal MO 177
Process 13:   Internal MO 162
Process 11:   Internal MO 147
Process 14:   Internal MO 171
-----------------------------------------------
 MP2 CORRELATION ENERGY   :     -7.261165716 Eh
-----------------------------------------------


-------
TIMINGS
-------
Total time                : 3751.114 sec
Integral trafo            : 3196.620 sec ( 85.2%)
K(i,j)                    :    6.732 sec (  0.2%)
T(i,j)                    :    0.552 sec (  0.0%)

---------------------------------------
MP2 TOTAL ENERGY:    -2130.871550612 Eh
---------------------------------------

Maximum memory used throughout the entire MP2-calculation: 2275.2 MB

-------------------------   --------------------
FINAL SINGLE POINT ENERGY     -2130.871550611972
-------------------------   --------------------


                            ***************************************
                            *     ORCA property calculations      *
                            ***************************************


  WARNING: The energy has been calculated at the MP2 level but the densities
           used in the property calculations are still SCF densities
           MP2 response densities have not been calculated 
           use %mp2 Density relaxed end
           or  %mp2 Density unrelaxed end

                                    ---------------------
                                    Active property flags
                                    ---------------------
   (+) Dipole Moment


------------------------------------------------------------------------------
                       ORCA ELECTRIC PROPERTIES CALCULATION
------------------------------------------------------------------------------

Dipole Moment Calculation                       ... on
Quadrupole Moment Calculation                   ... off
Polarizability Calculation                      ... off
GBWName                                         ... /scratch/allen/tmpyp4_amber_gaff2/conf1/conf1/Conf85.orca.gbw
Electron density                                ... /scratch/allen/tmpyp4_amber_gaff2/conf1/conf1/Conf85.orca.scfp
The origin for moment calculation is the CENTER OF MASS  = ( 0.001496, -0.003179  0.004071)

-------------
DIPOLE MOMENT
-------------
                                X             Y             Z
Electronic contribution:     -4.54513       5.39925      -0.14939
Nuclear contribution   :     -0.03281       0.16311       0.20374
                        -----------------------------------------
Total Dipole Moment    :     -4.57794       5.56236       0.05436
                        -----------------------------------------
Magnitude (a.u.)       :      7.20419
Magnitude (Debye)      :     18.31158



--------------------
Rotational spectrum 
--------------------
 
Rotational constants in cm-1:     0.001498     0.001472     0.000763 
Rotational constants in MHz :    44.905107    44.138922    22.867778 

 Dipole components along the rotational axes: 
x,y,z [a.u.] :     6.358478     3.386438     0.045584 
x,y,z [Debye]:    16.161967     8.607642     0.115865 

 

Timings for individual modules:

Sum of individual times         ...     5792.975 sec (=  96.550 min)
GTO integral calculation        ...        3.309 sec (=   0.055 min)   0.1 %
SCF iterations                  ...     2018.020 sec (=  33.634 min)  34.8 %
MP2 module                      ...     3771.646 sec (=  62.861 min)  65.1 %
                             ****ORCA TERMINATED NORMALLY****
TOTAL RUN TIME: 0 days 1 hours 36 minutes 36 seconds 364 msec
# of primitive gaussian functions

