
                                 *****************
                                 * O   R   C   A *
                                 *****************

                                            #,                                       
                                            ###                                      
                                            ####                                     
                                            #####                                    
                                            ######                                   
                                           ########,                                 
                                     ,,################,,,,,                         
                               ,,#################################,,                 
                          ,,##########################################,,             
                       ,#########################################, ''#####,          
                    ,#############################################,,   '####,        
                  ,##################################################,,,,####,       
                ,###########''''           ''''###############################       
              ,#####''   ,,,,##########,,,,          '''####'''          '####       
            ,##' ,,,,###########################,,,                        '##       
           ' ,,###''''                  '''############,,,                           
         ,,##''                                '''############,,,,        ,,,,,,###''
      ,#''                                            '''#######################'''  
     '                                                          ''''####''''         
             ,#######,   #######,   ,#######,      ##                                
            ,#'     '#,  ##    ##  ,#'     '#,    #''#        ######   ,####,        
            ##       ##  ##   ,#'  ##            #'  '#       #        #'  '#        
            ##       ##  #######   ##           ,######,      #####,   #    #        
            '#,     ,#'  ##    ##  '#,     ,#' ,#      #,         ##   #,  ,#        
             '#######'   ##     ##  '#######'  #'      '#     #####' # '####'        



                  #######################################################
                  #                        -***-                        #
                  #          Department of theory and spectroscopy      #
                  #    Directorship and core code : Frank Neese         #
                  #        Max Planck Institute fuer Kohlenforschung    #
                  #                Kaiser Wilhelm Platz 1               #
                  #                 D-45470 Muelheim/Ruhr               #
                  #                      Germany                        #
                  #                                                     #
                  #                  All rights reserved                #
                  #                        -***-                        #
                  #######################################################


                         Program Version 5.0.4 -  RELEASE  -


 With contributions from (in alphabetic order):
   Daniel Aravena         : Magnetic Suceptibility
   Michael Atanasov       : Ab Initio Ligand Field Theory (pilot matlab implementation)
   Alexander A. Auer      : GIAO ZORA, VPT2 properties, NMR spectrum
   Ute Becker             : Parallelization
   Giovanni Bistoni       : ED, misc. LED, open-shell LED, HFLD
   Martin Brehm           : Molecular dynamics
   Dmytro Bykov           : SCF Hessian
   Vijay G. Chilkuri      : MRCI spin determinant printing, contributions to CSF-ICE
   Dipayan Datta          : RHF DLPNO-CCSD density
   Achintya Kumar Dutta   : EOM-CC, STEOM-CC
   Dmitry Ganyushin       : Spin-Orbit,Spin-Spin,Magnetic field MRCI
   Miquel Garcia          : C-PCM and meta-GGA Hessian, CC/C-PCM, Gaussian charge scheme
   Yang Guo               : DLPNO-NEVPT2, F12-NEVPT2, CIM, IAO-localization
   Andreas Hansen         : Spin unrestricted coupled pair/coupled cluster methods
   Benjamin Helmich-Paris : MC-RPA, TRAH-SCF, COSX integrals
   Lee Huntington         : MR-EOM, pCC
   Robert Izsak           : Overlap fitted RIJCOSX, COSX-SCS-MP3, EOM
   Marcus Kettner         : VPT2
   Christian Kollmar      : KDIIS, OOCD, Brueckner-CCSD(T), CCSD density, CASPT2, CASPT2-K
   Simone Kossmann        : Meta GGA functionals, TD-DFT gradient, OOMP2, MP2 Hessian
   Martin Krupicka        : Initial AUTO-CI
   Lucas Lang             : DCDCAS
   Marvin Lechner         : AUTO-CI (C++ implementation), FIC-MRCC
   Dagmar Lenk            : GEPOL surface, SMD
   Dimitrios Liakos       : Extrapolation schemes; Compound Job, initial MDCI parallelization
   Dimitrios Manganas     : Further ROCIS development; embedding schemes
   Dimitrios Pantazis     : SARC Basis sets
   Anastasios Papadopoulos: AUTO-CI, single reference methods and gradients
   Taras Petrenko         : DFT Hessian,TD-DFT gradient, ASA, ECA, R-Raman, ABS, FL, XAS/XES, NRVS
   Peter Pinski           : DLPNO-MP2, DLPNO-MP2 Gradient
   Christoph Reimann      : Effective Core Potentials
   Marius Retegan         : Local ZFS, SOC
   Christoph Riplinger    : Optimizer, TS searches, QM/MM, DLPNO-CCSD(T), (RO)-DLPNO pert. Triples
   Tobias Risthaus        : Range-separated hybrids, TD-DFT gradient, RPA, STAB
   Michael Roemelt        : Original ROCIS implementation
   Masaaki Saitow         : Open-shell DLPNO-CCSD energy and density
   Barbara Sandhoefer     : DKH picture change effects
   Avijit Sen             : IP-ROCIS
   Kantharuban Sivalingam : CASSCF convergence, NEVPT2, FIC-MRCI
   Bernardo de Souza      : ESD, SOC TD-DFT
   Georgi Stoychev        : AutoAux, RI-MP2 NMR, DLPNO-MP2 response
   Willem Van den Heuvel  : Paramagnetic NMR
   Boris Wezisla          : Elementary symmetry handling
   Frank Wennmohs         : Technical directorship


 We gratefully acknowledge several colleagues who have allowed us to
 interface, adapt or use parts of their codes:
   Stefan Grimme, W. Hujo, H. Kruse, P. Pracht,  : VdW corrections, initial TS optimization,
                  C. Bannwarth, S. Ehlert          DFT functionals, gCP, sTDA/sTD-DF
   Ed Valeev, F. Pavosevic, A. Kumar             : LibInt (2-el integral package), F12 methods
   Garnet Chan, S. Sharma, J. Yang, R. Olivares  : DMRG
   Ulf Ekstrom                                   : XCFun DFT Library
   Mihaly Kallay                                 : mrcc  (arbitrary order and MRCC methods)
   Jiri Pittner, Ondrej Demel                    : Mk-CCSD
   Frank Weinhold                                : gennbo (NPA and NBO analysis)
   Christopher J. Cramer and Donald G. Truhlar   : smd solvation model
   Lars Goerigk                                  : TD-DFT with DH, B97 family of functionals
   V. Asgeirsson, H. Jonsson                     : NEB implementation
   FAccTs GmbH                                   : IRC, NEB, NEB-TS, DLPNO-Multilevel, CI-OPT
                                                   MM, QMMM, 2- and 3-layer-ONIOM, Crystal-QMMM,
                                                   LR-CPCM, SF, NACMEs, symmetry and pop. for TD-DFT,
                                                   nearIR, NL-DFT gradient (VV10), updates on ESD,
                                                   ML-optimized integration grids
   S Lehtola, MJT Oliveira, MAL Marques          : LibXC Library
   Liviu Ungur et al                             : ANISO software


 Your calculation uses the libint2 library for the computation of 2-el integrals
 For citations please refer to: http://libint.valeyev.net

 Your ORCA version has been built with support for libXC version: 5.1.0
 For citations please refer to: https://tddft.org/programs/libxc/

 This ORCA versions uses:
   CBLAS   interface :  Fast vector & matrix operations
   LAPACKE interface :  Fast linear algebra routines
   SCALAPACK package :  Parallel linear algebra routines
   Shared memory     :  Shared parallel matrices
   BLAS/LAPACK       :  OpenBLAS 0.3.15  USE64BITINT DYNAMIC_ARCH NO_AFFINITY Sandybridge SINGLE_THREADED
        Core in use  :  Sandybridge
   Copyright (c) 2011-2014, The OpenBLAS Project


================================================================================

----- Orbital basis set information -----
Your calculation utilizes the basis: cc-pVDZ 
       H, B-Ne : Obtained from the ccRepo (grant-hill.group.shef.ac.uk/ccrepo) Feb. 2017
                 T. H. Dunning, Jr., J. Chem. Phys. 90, 1007 (1989)
            He : Obtained from the ccRepo (grant-hill.group.shef.ac.uk/ccrepo) Feb. 2017
                 D. E. Woon, T. H. Dunning, Jr., J. Chem. Phys. 100, 2975 (1994)
  Li-Be, Na-Mg : Obtained from the ccRepo (grant-hill.group.shef.ac.uk/ccrepo) Feb. 2017
                 B. P. Prascher, D. E. Woon, K. A. Peterson, T. H. Dunning, Jr., A. K. Wilson, Theor. Chem. Acc. 128, 69 (2011)
         Al-Ar : Obtained from the ccRepo (grant-hill.group.shef.ac.uk/ccrepo) Feb. 2017
                 D. E. Woon, T. H. Dunning, Jr., J. Chem. Phys. 98, 1358 (1993)
            Ca : Obtained from the Peterson Research Group Website (tyr0.chem.wsu.edu/~kipeters) Feb. 2017
                 J. Koput, K. A. Peterson, J. Phys. Chem. 106, 9595 (2002)
         Sc-Zn : Obtained from the ccRepo (grant-hill.group.shef.ac.uk/ccrepo) Feb. 2017
                 N. B. Balabanov, K. A. Peterson, J. Chem. Phys. 123, 064107 (2005)
                 N. B. Balabanov, K. A. Peterson, J. Chem. Phys. 125, 074110 (2006)
         Ga-Kr : Obtained from the ccRepo (grant-hill.group.shef.ac.uk/ccrepo) Feb. 2017
                 A. K. Wilson, D. E. Woon, K. A. Peterson, T. H. Dunning, Jr., J. Chem. Phys. 110, 7667 (1999)

================================================================================
                                        WARNINGS
                       Please study these warnings very carefully!
================================================================================


WARNING: No MP2 level density has been requested!
         To caclulate MP2 level properties use
         %mp2 Density relaxed end
         or
         %mp2 Density unrelaxed end

WARNING: Post HF methods need fully converged wavefunctions
  ===> : Setting SCFConvForced true
         You can overwrite this default with %scf ConvForced false 


INFO   : the flag for use of the SHARK integral package has been found!

================================================================================
                                       INPUT FILE
================================================================================
NAME = /scratch/allen/tmpyp4_amber_gaff2/2.Mdgx/conf11/conf11/Conf163.orca
|  1> ! PAL2
|  2> ! mp2 cc-pvdz TightSCF  NoKeepInts
|  3> 
|  4> %scf
|  5>   MaxCore 2000
|  6> end
|  7> %mp2
|  8>   MaxCore 2000
|  9> end
| 10> * xyz 0 1
| 11>    C       -4.90100         5.22700        -0.31500
| 12>    C        1.47400         4.04100         0.05700
| 13>    C       -2.80200         4.09300         0.04900
| 14>    C       -2.26700         5.32400         0.45900
| 15>    C       -3.05900         6.45500         0.47100
| 16>    C       -5.18700         7.61900         0.14500
| 17>    C        0.13200         4.30700         0.06100
| 18>    C       -0.56900         3.05600         0.04700
| 19>    C        1.64900         2.61800         0.02300
| 20>    C       -4.15100         4.06700        -0.33900
| 21>    N       -4.35400         6.39700         0.08400
| 22>    N        0.38800         2.06700         0.02500
| 23>    N       -2.01000         0.39500        -0.07500
| 24>    N       -0.38800        -2.07400        -0.02700
| 25>    N        2.01000        -0.40100         0.06500
| 26>    C       -1.96000         2.86100         0.02400
| 27>    C       -2.62300         1.61500        -0.01800
| 28>    C       -5.57300        -4.32900         1.06600
| 29>    C       -4.07300         1.47100         0.05600
| 30>    C       -4.10600        -2.75600        -0.02600
| 31>    C       -4.99500        -2.75700        -1.11100
| 32>    C       -6.13200        -3.54200        -1.07600
| 33>    C       -7.65100        -5.11300         0.04000
| 34>    C       -4.32400         0.14100         0.03700
| 35>    C       -3.02500        -0.52000        -0.04800
| 36>    C       -4.42200        -3.56600         1.07500
| 37>    N       -6.40700        -4.31300         0.00100
| 38>    C       -2.86700        -1.92200        -0.04000
| 39>    C       -1.65000        -2.62400        -0.02700
| 40>    C        3.56800        -6.14200        -1.04000
| 41>    C       -1.47600        -4.04900        -0.03400
| 42>    C        2.80300        -4.09900        -0.00800
| 43>    C        3.65700        -4.38400         1.06900
| 44>    C        4.42700        -5.53000         1.05900
| 45>    C        5.24500        -7.58800         0.01400
| 46>    C       -0.13400        -4.31500        -0.02200
| 47>    C        0.56800        -3.06400        -0.02700
| 48>    C        2.77500        -5.01200        -1.07400
| 49>    N        4.37600        -6.39100         0.01700
| 50>    C        1.95900        -2.86900        -0.00900
| 51>    C        2.62100        -1.62200         0.00900
| 52>    C        5.54300         4.33900        -1.13000
| 53>    C        4.07000        -1.47900        -0.09400
| 54>    C        4.10400         2.75100        -0.02100
| 55>    C        5.02700         2.72900         1.03600
| 56>    C        6.16600         3.50900         0.97800
| 57>    C        7.61900         5.15300        -0.11500
| 58>    C        4.32100        -0.14800        -0.09200
| 59>    C        3.02500         0.51400         0.01500
| 60>    C        4.38700         3.58200        -1.11500
| 61>    C        2.86600         1.91600         0.01300
| 62>    N        6.41300         4.29600        -0.09500
| 63>    H       -5.94100         5.25600        -0.61700
| 64>    H        2.27400         4.76600         0.08100
| 65>    H       -1.23500         5.40600         0.77900
| 66>    H       -2.69300         7.42300         0.78700
| 67>    H       -5.60000         7.71900         1.15100
| 68>    H       -4.56300         8.48100        -0.09100
| 69>    H       -5.99200         7.53100        -0.58300
| 70>    H       -0.33200         5.28200         0.06900
| 71>    H       -4.61800         3.15000        -0.67900
| 72>    H        0.18200         1.07200         0.00500
| 73>    H       -0.18300        -1.08000        -0.02100
| 74>    H       -5.86400        -4.96200         1.89500
| 75>    H       -4.79400         2.27200         0.13900
| 76>    H       -4.80000        -2.16000        -1.99400
| 77>    H       -6.84100        -3.58200        -1.89300
| 78>    H       -8.42800        -4.53600         0.54600
| 79>    H       -7.95600        -5.33700        -0.98100
| 80>    H       -7.45600        -6.03700         0.58400
| 81>    H       -5.28700        -0.34400         0.10000
| 82>    H       -3.78000        -3.60100         1.94700
| 83>    H        3.58700        -6.86800        -1.84300
| 84>    H       -2.27600        -4.77400        -0.05000
| 85>    H        3.71400        -3.72400         1.92600
| 86>    H        5.09200        -5.79500         1.87100
| 87>    H        6.20500        -7.32900        -0.43900
| 88>    H        5.39300        -7.91700         1.04200
| 89>    H        4.75900        -8.37300        -0.56400
| 90>    H        0.32900        -5.29000        -0.00800
| 91>    H        2.14600        -4.84200        -1.94000
| 92>    H        5.80800         4.98600        -1.95600
| 93>    H        4.78800        -2.28100        -0.18500
| 94>    H        4.86000         2.11400         1.91200
| 95>    H        6.90100         3.53100         1.77200
| 96>    H        7.38300         6.10900         0.35600
| 97>    H        8.41400         4.65200         0.43500
| 98>    H        7.92100         5.31000        -1.15000
| 99>    H        5.28300         0.33600        -0.17900
|100>    H        3.72000         3.63200        -1.96700
|101> *
|102> 
|103>                          ****END OF INPUT****
================================================================================

                       ****************************
                       * Single Point Calculation *
                       ****************************

---------------------------------
CARTESIAN COORDINATES (ANGSTROEM)
---------------------------------
  C     -4.901000    5.227000   -0.315000
  C      1.474000    4.041000    0.057000
  C     -2.802000    4.093000    0.049000
  C     -2.267000    5.324000    0.459000
  C     -3.059000    6.455000    0.471000
  C     -5.187000    7.619000    0.145000
  C      0.132000    4.307000    0.061000
  C     -0.569000    3.056000    0.047000
  C      1.649000    2.618000    0.023000
  C     -4.151000    4.067000   -0.339000
  N     -4.354000    6.397000    0.084000
  N      0.388000    2.067000    0.025000
  N     -2.010000    0.395000   -0.075000
  N     -0.388000   -2.074000   -0.027000
  N      2.010000   -0.401000    0.065000
  C     -1.960000    2.861000    0.024000
  C     -2.623000    1.615000   -0.018000
  C     -5.573000   -4.329000    1.066000
  C     -4.073000    1.471000    0.056000
  C     -4.106000   -2.756000   -0.026000
  C     -4.995000   -2.757000   -1.111000
  C     -6.132000   -3.542000   -1.076000
  C     -7.651000   -5.113000    0.040000
  C     -4.324000    0.141000    0.037000
  C     -3.025000   -0.520000   -0.048000
  C     -4.422000   -3.566000    1.075000
  N     -6.407000   -4.313000    0.001000
  C     -2.867000   -1.922000   -0.040000
  C     -1.650000   -2.624000   -0.027000
  C      3.568000   -6.142000   -1.040000
  C     -1.476000   -4.049000   -0.034000
  C      2.803000   -4.099000   -0.008000
  C      3.657000   -4.384000    1.069000
  C      4.427000   -5.530000    1.059000
  C      5.245000   -7.588000    0.014000
  C     -0.134000   -4.315000   -0.022000
  C      0.568000   -3.064000   -0.027000
  C      2.775000   -5.012000   -1.074000
  N      4.376000   -6.391000    0.017000
  C      1.959000   -2.869000   -0.009000
  C      2.621000   -1.622000    0.009000
  C      5.543000    4.339000   -1.130000
  C      4.070000   -1.479000   -0.094000
  C      4.104000    2.751000   -0.021000
  C      5.027000    2.729000    1.036000
  C      6.166000    3.509000    0.978000
  C      7.619000    5.153000   -0.115000
  C      4.321000   -0.148000   -0.092000
  C      3.025000    0.514000    0.015000
  C      4.387000    3.582000   -1.115000
  C      2.866000    1.916000    0.013000
  N      6.413000    4.296000   -0.095000
  H     -5.941000    5.256000   -0.617000
  H      2.274000    4.766000    0.081000
  H     -1.235000    5.406000    0.779000
  H     -2.693000    7.423000    0.787000
  H     -5.600000    7.719000    1.151000
  H     -4.563000    8.481000   -0.091000
  H     -5.992000    7.531000   -0.583000
  H     -0.332000    5.282000    0.069000
  H     -4.618000    3.150000   -0.679000
  H      0.182000    1.072000    0.005000
  H     -0.183000   -1.080000   -0.021000
  H     -5.864000   -4.962000    1.895000
  H     -4.794000    2.272000    0.139000
  H     -4.800000   -2.160000   -1.994000
  H     -6.841000   -3.582000   -1.893000
  H     -8.428000   -4.536000    0.546000
  H     -7.956000   -5.337000   -0.981000
  H     -7.456000   -6.037000    0.584000
  H     -5.287000   -0.344000    0.100000
  H     -3.780000   -3.601000    1.947000
  H      3.587000   -6.868000   -1.843000
  H     -2.276000   -4.774000   -0.050000
  H      3.714000   -3.724000    1.926000
  H      5.092000   -5.795000    1.871000
  H      6.205000   -7.329000   -0.439000
  H      5.393000   -7.917000    1.042000
  H      4.759000   -8.373000   -0.564000
  H      0.329000   -5.290000   -0.008000
  H      2.146000   -4.842000   -1.940000
  H      5.808000    4.986000   -1.956000
  H      4.788000   -2.281000   -0.185000
  H      4.860000    2.114000    1.912000
  H      6.901000    3.531000    1.772000
  H      7.383000    6.109000    0.356000
  H      8.414000    4.652000    0.435000
  H      7.921000    5.310000   -1.150000
  H      5.283000    0.336000   -0.179000
  H      3.720000    3.632000   -1.967000

----------------------------
CARTESIAN COORDINATES (A.U.)
----------------------------
  NO LB      ZA    FRAG     MASS         X           Y           Z
   0 C     6.0000    0    12.011   -9.261548    9.877599   -0.595264
   1 C     6.0000    0    12.011    2.785456    7.636383    0.107714
   2 C     6.0000    0    12.011   -5.295013    7.734649    0.092597
   3 C     6.0000    0    12.011   -4.284009   10.060902    0.867384
   4 C     6.0000    0    12.011   -5.780672   12.198182    0.890061
   5 C     6.0000    0    12.011   -9.802009   14.397823    0.274010
   6 C     6.0000    0    12.011    0.249444    8.139050    0.115273
   7 C     6.0000    0    12.011   -1.075254    5.775003    0.088817
   8 C     6.0000    0    12.011    3.116158    4.947303    0.043464
   9 C     6.0000    0    12.011   -7.844253    7.685516   -0.640617
  10 N     7.0000    0    14.007   -8.227868   12.088578    0.158737
  11 N     7.0000    0    14.007    0.733214    3.906064    0.047243
  12 N     7.0000    0    14.007   -3.798350    0.746442   -0.141729
  13 N     7.0000    0    14.007   -0.733214   -3.919292   -0.051023
  14 N     7.0000    0    14.007    3.798350   -0.757780    0.122832
  15 C     6.0000    0    12.011   -3.703863    5.406506    0.045353
  16 C     6.0000    0    12.011   -4.956752    3.051908   -0.034015
  17 C     6.0000    0    12.011  -10.531444   -8.180624    2.014448
  18 C     6.0000    0    12.011   -7.696855    2.779787    0.105825
  19 C     6.0000    0    12.011   -7.759216   -5.208085   -0.049133
  20 C     6.0000    0    12.011   -9.439182   -5.209975   -2.099486
  21 C     6.0000    0    12.011  -11.587801   -6.693410   -2.033345
  22 C     6.0000    0    12.011  -14.458295   -9.662170    0.075589
  23 C     6.0000    0    12.011   -8.171176    0.266451    0.069920
  24 C     6.0000    0    12.011   -5.716422   -0.982658   -0.090707
  25 C     6.0000    0    12.011   -8.356369   -6.738763    2.031456
  26 N     7.0000    0    14.007  -12.107475   -8.150389    0.001890
  27 C     6.0000    0    12.011   -5.417845   -3.632054   -0.075589
  28 C     6.0000    0    12.011   -3.118048   -4.958641   -0.051023
  29 C     6.0000    0    12.011    6.742543  -11.606698   -1.965315
  30 C     6.0000    0    12.011   -2.789236   -7.651501   -0.064251
  31 C     6.0000    0    12.011    5.296902   -7.745987   -0.015118
  32 C     6.0000    0    12.011    6.910728   -8.284559    2.020117
  33 C     6.0000    0    12.011    8.365818  -10.450186    2.001220
  34 C     6.0000    0    12.011    9.911614  -14.339242    0.026456
  35 C     6.0000    0    12.011   -0.253223   -8.154168   -0.041574
  36 C     6.0000    0    12.011    1.073364   -5.790121   -0.051023
  37 C     6.0000    0    12.011    5.243990   -9.471307   -2.029566
  38 N     7.0000    0    14.007    8.269442  -12.077240    0.032125
  39 C     6.0000    0    12.011    3.701973   -5.421624   -0.017008
  40 C     6.0000    0    12.011    4.952972   -3.065136    0.017008
  41 C     6.0000    0    12.011   10.474752    8.199522   -2.135391
  42 C     6.0000    0    12.011    7.691185   -2.794905   -0.177634
  43 C     6.0000    0    12.011    7.755436    5.198637   -0.039684
  44 C     6.0000    0    12.011    9.499653    5.157063    1.957756
  45 C     6.0000    0    12.011   11.652051    6.631049    1.848152
  46 C     6.0000    0    12.011   14.397823    9.737759   -0.217319
  47 C     6.0000    0    12.011    8.165507   -0.279679   -0.173855
  48 C     6.0000    0    12.011    5.716422    0.971319    0.028346
  49 C     6.0000    0    12.011    8.290229    6.768999   -2.107045
  50 C     6.0000    0    12.011    5.415955    3.620715    0.024566
  51 N     7.0000    0    14.007   12.118814    8.118263   -0.179524
  52 H     1.0000    0     1.008  -11.226863    9.932401   -1.165961
  53 H     1.0000    0     1.008    4.297237    9.006435    0.153068
  54 H     1.0000    0     1.008   -2.333812   10.215859    1.472097
  55 H     1.0000    0     1.008   -5.089032   14.027437    1.487214
  56 H     1.0000    0     1.008  -10.582466   14.586796    2.175075
  57 H     1.0000    0     1.008   -8.622820   16.026767   -0.171965
  58 H     1.0000    0     1.008  -11.323239   14.231528   -1.101710
  59 H     1.0000    0     1.008   -0.627389    9.981533    0.130391
  60 H     1.0000    0     1.008   -8.726755    5.952637   -1.283124
  61 H     1.0000    0     1.008    0.343930    2.025786    0.009449
  62 H     1.0000    0     1.008   -0.345820   -2.040904   -0.039684
  63 H     1.0000    0     1.008  -11.081354   -9.376821    3.581031
  64 H     1.0000    0     1.008   -9.059347    4.293458    0.262672
  65 H     1.0000    0     1.008   -9.070685   -4.081808   -3.768114
  66 H     1.0000    0     1.008  -12.927616   -6.768999   -3.577252
  67 H     1.0000    0     1.008  -15.926612   -8.571798    1.031790
  68 H     1.0000    0     1.008  -15.034661  -10.085468   -1.853821
  69 H     1.0000    0     1.008  -14.089798  -11.408277    1.103600
  70 H     1.0000    0     1.008   -9.990982   -0.650066    0.188973
  71 H     1.0000    0     1.008   -7.143165   -6.804904    3.679297
  72 H     1.0000    0     1.008    6.778448  -12.978639   -3.482765
  73 H     1.0000    0     1.008   -4.301017   -9.021553   -0.094486
  74 H     1.0000    0     1.008    7.018443   -7.037340    3.639613
  75 H     1.0000    0     1.008    9.622485  -10.950963    3.535678
  76 H     1.0000    0     1.008   11.725751  -13.849803   -0.829590
  77 H     1.0000    0     1.008   10.191293  -14.960962    1.969095
  78 H     1.0000    0     1.008    8.993207  -15.822677   -1.065806
  79 H     1.0000    0     1.008    0.621720   -9.996651   -0.015118
  80 H     1.0000    0     1.008    4.055352   -9.150054   -3.666069
  81 H     1.0000    0     1.008   10.975529    9.422175   -3.696304
  82 H     1.0000    0     1.008    9.048009   -4.310465   -0.349599
  83 H     1.0000    0     1.008    9.184069    3.994881    3.613156
  84 H     1.0000    0     1.008   13.041000    6.672623    3.348595
  85 H     1.0000    0     1.008   13.951848   11.544337    0.672743
  86 H     1.0000    0     1.008   15.900156    8.791006    0.822031
  87 H     1.0000    0     1.008   14.968521   10.034446   -2.173185
  88 H     1.0000    0     1.008    9.983423    0.634948   -0.338261
  89 H     1.0000    0     1.008    7.029781    6.863485   -3.717091

--------------------------------
INTERNAL COORDINATES (ANGSTROEM)
--------------------------------
 C      0   0   0     0.000000000000     0.00000000     0.00000000
 C      1   0   0     6.495044649577     0.00000000     0.00000000
 C      1   2   0     2.413348917998    18.53838169     0.00000000
 C      3   1   2     1.403455022436    87.90616534    33.36340464
 C      4   3   1     1.380785645928   120.15463024     0.11803740
 C      5   4   3     2.447356941682   152.51815103     1.65942284
 C      2   1   3     1.368114030335     3.51576548   276.66790410
 C      7   2   4     1.434084376876   108.05010202   215.68277055
 C      2   1   3     1.434123425651   107.43340038    20.16276805
 C      1   2   7     1.381548406680    46.75188251   254.49905536
 N      1   2   7     1.351780307594    75.16522543    62.06721822
 N      9   2   1     1.376127174356   106.58526707   355.63824461
 N     12   9   2     2.925062050624   168.53581413   171.12065651
 N     13  12   9     2.954513327098    91.55032014    11.12112580
 N     14  13  12     2.925371258490    88.43092389   359.84326247
 C      8   7   2     1.404790019896   127.24786865   181.11170171
 C     13  12   9     1.366535034311    81.72106996   188.00453233
 C     14  13  12     5.758810554272    80.56209567   166.76250791
 C     17  13  12     1.459010623676   111.08861209   183.82872609
 C     18  14  13     2.412235892279    27.27532823    36.33507194
 C     20  18  14     1.402692767501    87.95206320   148.94598259
 C     21  20  18     1.382106725257   120.14573887   359.70382047
 C     18  14  13     2.446510985056   144.15733107    82.80075377
 C     19  17  13     1.353610726908   106.29293361   359.75308708
 C     13  12   9     1.366813447402   172.21332906    33.46711076
 C     18  14  13     1.380960173213    15.08449437   309.23336894
 N     22  21  20     1.352773077792   120.73759875     0.27865223
 C     25  13  17     1.410897586645   125.60330303   182.37774668
 C     14  13  12     1.376642291955    80.24689249   177.85461986
 C     14  13  12     5.764089607215   164.51507311   312.20821879
 C     29  14  13     1.435600919476   106.58649366   178.76395472
 C     30  14  13     2.413316804732    27.10625047    82.12560436
 C     32  30  14     1.403734305344    87.90059683   149.76154742
 C     33  32  30     1.380694028378   120.14881443   359.74174632
 C     34  33  32     2.448777858443   152.49203239     2.45173620
 C     31  29  14     1.368160809262   108.16950133     0.70383075
 C     14  13  12     1.376239804685   169.26375223   353.09862627
 C     30  14  13     1.380907310430    14.68948582   353.70041132
 N     34  33  32     1.352658863128   120.85575621     0.19603406
 C     37  14  29     1.404717053360   126.01551127   180.90772073
 C     15  14  13     1.366491126938    81.61824056   183.09049352
 C      2   1   3     4.249062720177   155.66022632   144.02164205
 C     41  15  14     1.459677704153   111.05201287   175.08990246
 C     42   2   1     2.412953791518    41.78584867   208.86208006
 C     44  42   2     1.403446472082    87.95153797   233.97558675
 C     45  44  42     1.381696421071   120.11137308     0.19721020
 C     42   2   1     2.450019795838   135.97209175   119.17692916
 C     43  41  15     1.354461516618   106.26758155     0.30894352
 C     15  14  13     1.367461151185   171.87382904   332.35056460
 C     42   2   1     1.381886391857    32.59078432   257.71735925
 C      9   2   1     1.404988612053   126.98745415   176.64258214
 N     42   2   1     1.352765315936   113.57249190   146.91351836
 H      1   2   7     1.083348974246   164.38610635   202.64546351
 H      2   1   3     1.079907866440   127.28608860   196.80402618
 H      4   3   1     1.083581099872   121.04458268   179.55986768
 H      5   4   3     1.082051754770   122.77134328   179.45741806
 H      6   5   4     1.092064558531   104.45847323   100.10834726
 H      6   5   4     1.090007339425    84.67504694   209.51522686
 H      6   5   4     1.088922862282   133.90095382   322.31529627
 H      7   2  54     1.079807853278   126.66122480     1.30600390
 H     10   1   2     1.083779497868   118.81324052   194.94761758
 H     12   9   2     1.016297692608   125.29023241   180.00180175
 H     14  13  12     1.014936943854    44.97226959   359.42596618
 H     18  14  13     1.082871645210   128.03556573   234.20482432
 H     19  17  13     1.080893611786   126.41830519   178.11313280
 H     21  20  18     1.083569563987   121.05669627   180.67006309
 H     22  21  20     1.082483256222   122.73097286   180.59748951
 H     23  18  14     1.092105306278   103.92715769   234.93429879
 H     23  18  14     1.088871893291   134.19244188    12.25587044
 H     23  18  14     1.089833473518    84.85857450   125.45241208
 H     24  19  17     1.080075460327   127.28078426   178.44613241
 H     26  18  14     1.083408048706   118.76995697   244.94906660
 H     30  14  13     1.082703098730   127.99711412   279.66882698
 H     31  29  14     1.079759695488   125.22293469   180.92530585
 H     33  32  30     1.083188810873   121.01964473   180.74284758
 H     34  33  32     1.082494341787   122.70821597   180.59516895
 H     35  34  33     1.092652735319   105.73575241    97.19771933
 H     35  34  33     1.089462711615    84.05943581   206.43036958
 H     35  34  33     1.089268102902   133.08365142   318.50306270
 H     36  31  29     1.079439669458   126.61599965   178.98859863
 H     38  30  73     1.083742127999   118.77264435   359.90091293
 H     42   2   1     1.082178358682   119.31790784     3.54504881
 H     43  41  15     1.080281907652   126.36969097   182.06329380
 H     45  44  42     1.083277434455   121.10105945   179.58025624
 H     46  45  44     1.082194529648   122.72144639   179.46906377
 H     47  42   2     1.091546151109   106.65128841   315.16475048
 H     47  42   2     1.088818625851   132.46019523    94.52397119
 H     47  42   2     1.089531091801    83.63838232   206.04504406
 H     48  43  41     1.080402239909   127.23657387   181.62955349
 H     50  42   2     1.083186502870   118.77001737    94.71359229

---------------------------
INTERNAL COORDINATES (A.U.)
---------------------------
 C      0   0   0     0.000000000000     0.00000000     0.00000000
 C      1   0   0    12.273855615291     0.00000000     0.00000000
 C      1   2   0     4.560568520611    18.53838169     0.00000000
 C      3   1   2     2.652145633680    87.90616534    33.36340464
 C      4   3   1     2.609306720453   120.15463024     0.11803740
 C      5   4   3     4.624834371730   152.51815103     1.65942284
 C      2   1   3     2.585360837309     3.51576548   276.66790410
 C      7   2   4     2.710026725231   108.05010202   215.68277055
 C      2   1   3     2.710100516721   107.43340038    20.16276805
 C      1   2   7     2.610748129380    46.75188251   254.49905536
 N      1   2   7     2.554494574581    75.16522543    62.06721822
 N      9   2   1     2.600503484979   106.58526707   355.63824461
 N     12   9   2     5.527566200405   168.53581413   171.12065651
 N     13  12   9     5.583221047236    91.55032014    11.12112580
 N     14  13  12     5.528150518591    88.43092389   359.84326247
 C      8   7   2     2.654668413270   127.24786865   181.11170171
 C     13  12   9     2.582376967257    81.72106996   188.00453233
 C     14  13  12    10.882574804710    80.56209567   166.76250791
 C     17  13  12     2.757130505230   111.08861209   183.82872609
 C     18  14  13     4.558465206823    27.27532823    36.33507194
 C     20  18  14     2.650705180609    87.95206320   148.94598259
 C     21  20  18     2.611803198586   120.14573887   359.70382047
 C     18  14  13     4.623235745386   144.15733107    82.80075377
 C     19  17  13     2.557953565794   106.29293361   359.75308708
 C     13  12   9     2.582903091751   172.21332906    33.46711076
 C     18  14  13     2.609636529225    15.08449437   309.23336894
 N     22  21  20     2.556370638369   120.73759875     0.27865223
 C     25  13  17     2.666210041769   125.60330303   182.37774668
 C     14  13  12     2.601476916169    80.24689249   177.85461986
 C     14  13  12    10.892550769017   164.51507311   312.20821879
 C     29  14  13     2.712892575415   106.58649366   178.76395472
 C     30  14  13     4.560507835333    27.10625047    82.12560436
 C     32  30  14     2.652673401891    87.90059683   149.76154742
 C     33  32  30     2.609133588376   120.14881443   359.74174632
 C     34  33  32     4.627519515267   152.49203239     2.45173620
 C     31  29  14     2.585449236669   108.16950133     0.70383075
 C     14  13  12     2.600716325456   169.26375223   353.09862627
 C     30  14  13     2.609536633043    14.68948582   353.70041132
 N     34  33  32     2.556154803934   120.85575621     0.19603406
 C     37  14  29     2.654530526499   126.01551127   180.90772073
 C     15  14  13     2.582293994346    81.61824056   183.09049352
 C      2   1   3     8.029564866989   155.66022632   144.02164205
 C     41  15  14     2.758391104639   111.05201287   175.08990246
 C     42   2   1     4.559821839776    41.78584867   208.86208006
 C     44  42   2     2.652129475853    87.95153797   233.97558675
 C     45  44  42     2.611027836043   120.11137308     0.19721020
 C     42   2   1     4.629866436820   135.97209175   119.17692916
 C     43  41  15     2.559561325344   106.26758155     0.30894352
 C     15  14  13     2.584127074516   171.87382904   332.35056460
 C     42   2   1     2.611386828803    32.59078432   257.71735925
 C      9   2   1     2.655043698059   126.98745415   176.64258214
 N     42   2   1     2.556355970587   113.57249190   146.91351836
 H      1   2   7     2.047232868790   164.38610635   202.64546351
 H      2   1   3     2.040730117440   127.28608860   196.80402618
 H      4   3   1     2.047671522651   121.04458268   179.55986768
 H      5   4   3     2.044781479243   122.77134328   179.45741806
 H      6   5   4     2.063702936186   104.45847323   100.10834726
 H      6   5   4     2.059815355477    84.67504694   209.51522686
 H      6   5   4     2.057765990678   133.90095382   322.31529627
 H      7   2  54     2.040541119952   126.66122480     1.30600390
 H     10   1   2     2.048046440530   118.81324052   194.94761758
 H     12   9   2     1.920524309565   125.29023241   180.00180175
 H     14  13  12     1.917952867083    44.97226959   359.42596618
 H     18  14  13     2.046330847636   128.03556573   234.20482432
 H     19  17  13     2.042592906181   126.41830519   178.11313280
 H     21  20  18     2.047649722989   121.05669627   180.67006309
 H     22  21  20     2.045596898814   122.73097286   180.59748951
 H     23  18  14     2.063779938267   103.92715769   234.93429879
 H     23  18  14     2.057669673245   134.19244188    12.25587044
 H     23  18  14     2.059486796529    84.85857450   125.45241208
 H     24  19  17     2.041046823986   127.28078426   178.44613241
 H     26  18  14     2.047344503340   118.76995697   244.94906660
 H     30  14  13     2.046012340948   127.99711412   279.66882698
 H     31  29  14     2.040450114918   125.22293469   180.92530585
 H     33  32  30     2.046930203877   121.01964473   180.74284758
 H     34  33  32     2.045617847496   122.70821597   180.59516895
 H     35  34  33     2.064814429233   105.73575241    97.19771933
 H     35  34  33     2.058786158072    84.05943581   206.43036958
 H     35  34  33     2.058418400901   133.08365142   318.50306270
 H     36  31  29     2.039845353366   126.61599965   178.98859863
 H     38  30  73     2.047975821711   118.77264435   359.90091293
 H     42   2   1     2.045020725966   119.31790784     3.54504881
 H     43  41  15     2.041436952892   126.36969097   182.06329380
 H     45  44  42     2.047097678177   121.10105945   179.58025624
 H     46  45  44     2.045051284662   122.72144639   179.46906377
 H     47  42   2     2.062723288131   106.65128841   315.16475048
 H     47  42   2     2.057569012371   132.46019523    94.52397119
 H     47  42   2     2.058915377895    83.63838232   206.04504406
 H     48  43  41     2.041664347903   127.23657387   181.62955349
 H     50  42   2     2.046925842384   118.77001737    94.71359229

---------------------
BASIS SET INFORMATION
---------------------
There are 3 groups of distinct atoms

 Group   1 Type C   : 17s4p1d contracted to 3s2p1d pattern {881/31/1}
 Group   2 Type N   : 17s4p1d contracted to 3s2p1d pattern {881/31/1}
 Group   3 Type H   : 4s1p contracted to 2s1p pattern {31/1}

Atom   0C    basis set group =>   1
Atom   1N    basis set group =>   2
Atom   2C    basis set group =>   1
Atom   3N    basis set group =>   2
Atom   4C    basis set group =>   1
Atom   5N    basis set group =>   2
Atom   6C    basis set group =>   1
Atom   7N    basis set group =>   2
Atom   8C    basis set group =>   1
Atom   9N    basis set group =>   2
Atom  10C    basis set group =>   1
Atom  11N    basis set group =>   2
Atom  12C    basis set group =>   1
Atom  13N    basis set group =>   2
Atom  14C    basis set group =>   1
Atom  15N    basis set group =>   2
Atom  16C    basis set group =>   1
Atom  17C    basis set group =>   1
Atom  18C    basis set group =>   1
Atom  19C    basis set group =>   1
Atom  20C    basis set group =>   1
Atom  21C    basis set group =>   1
Atom  22C    basis set group =>   1
Atom  23C    basis set group =>   1
Atom  24C    basis set group =>   1
Atom  25C    basis set group =>   1
Atom  26C    basis set group =>   1
Atom  27C    basis set group =>   1
Atom  28C    basis set group =>   1
Atom  29C    basis set group =>   1
Atom  30C    basis set group =>   1
Atom  31C    basis set group =>   1
Atom  32C    basis set group =>   1
Atom  33C    basis set group =>   1
Atom  34C    basis set group =>   1
Atom  35C    basis set group =>   1
Atom  36C    basis set group =>   1
Atom  37C    basis set group =>   1
Atom  38C    basis set group =>   1
Atom  39C    basis set group =>   1
Atom  40C    basis set group =>   1
Atom  41C    basis set group =>   1
Atom  42C    basis set group =>   1
Atom  43C    basis set group =>   1
Atom  44C    basis set group =>   1
Atom  45C    basis set group =>   1
Atom  46C    basis set group =>   1
Atom  47C    basis set group =>   1
Atom  48C    basis set group =>   1
Atom  49C    basis set group =>   1
Atom  50C    basis set group =>   1
Atom  51C    basis set group =>   1
Atom  52H    basis set group =>   3
Atom  53H    basis set group =>   3
Atom  54H    basis set group =>   3
Atom  55H    basis set group =>   3
Atom  56H    basis set group =>   3
Atom  57H    basis set group =>   3
Atom  58H    basis set group =>   3
Atom  59H    basis set group =>   3
Atom  60H    basis set group =>   3
Atom  61H    basis set group =>   3
Atom  62H    basis set group =>   3
Atom  63H    basis set group =>   3
Atom  64H    basis set group =>   3
Atom  65H    basis set group =>   3
Atom  66H    basis set group =>   3
Atom  67H    basis set group =>   3
Atom  68H    basis set group =>   3
Atom  69H    basis set group =>   3
Atom  70H    basis set group =>   3
Atom  71H    basis set group =>   3
Atom  72H    basis set group =>   3
Atom  73H    basis set group =>   3
Atom  74H    basis set group =>   3
Atom  75H    basis set group =>   3
Atom  76H    basis set group =>   3
Atom  77H    basis set group =>   3
Atom  78H    basis set group =>   3
Atom  79H    basis set group =>   3
Atom  80H    basis set group =>   3
Atom  81H    basis set group =>   3
Atom  82H    basis set group =>   3
Atom  83H    basis set group =>   3
Atom  84H    basis set group =>   3
Atom  85H    basis set group =>   3
Atom  86H    basis set group =>   3
Atom  87H    basis set group =>   3
Atom  88H    basis set group =>   3
Atom  89H    basis set group =>   3


           ************************************************************
           *        Program running with 16 parallel MPI-processes    *
           *              working on a common directory               *
           ************************************************************
------------------------------------------------------------------------------
                           ORCA GTO INTEGRAL CALCULATION
------------------------------------------------------------------------------
------------------------------------------------------------------------------
                   ___                                                        
                  /   \      - P O W E R E D   B Y -                         
                 /     \                                                     
                 |  |  |   _    _      __       _____    __    __             
                 |  |  |  | |  | |    /  \     |  _  \  |  |  /  |          
                  \  \/   | |  | |   /    \    | | | |  |  | /  /          
                 / \  \   | |__| |  /  /\  \   | |_| |  |  |/  /          
                |  |  |   |  __  | /  /__\  \  |    /   |      \           
                |  |  |   | |  | | |   __   |  |    \   |  |\   \          
                \     /   | |  | | |  |  |  |  | |\  \  |  | \   \       
                 \___/    |_|  |_| |__|  |__|  |_| \__\ |__|  \__/        
                                                                              
                      - O R C A' S   B I G   F R I E N D -                    
                                      &                                       
                       - I N T E G R A L  F E E D E R -                       
                                                                              
 v1 FN, 2020, v2 2021                                                         
------------------------------------------------------------------------------


Reading SHARK input file /scratch/allen/tmpyp4_amber_gaff2/conf1/conf1/Conf163.orca.SHARKINP.tmp ... ok
----------------------
SHARK INTEGRAL PACKAGE
----------------------

Number of atoms                             ...     90
Number of basis functions                   ...   1230
Number of shells                            ...    738
Maximum angular momentum                    ...      2
Integral batch strategy                     ... SHARK/LIBINT Hybrid
RI-J (if used) integral strategy            ... SPLIT-RIJ (Revised 2003 algorithm where possible)
Printlevel                                  ...      1
Contraction scheme used                     ... PARTIAL GENERAL contraction
Coulomb Range Separation                    ... NOT USED
Exchange Range Separation                   ... NOT USED
Finite Nucleus Model                        ... NOT USED
Auxiliary Coulomb fitting basis             ... NOT available
Auxiliary J/K fitting basis                 ... NOT available
Auxiliary Correlation fitting basis         ... NOT available
Auxiliary 'external' fitting basis          ... NOT available
Integral threshold                          ...     2.500000e-11
Primitive cut-off                           ...     2.500000e-12
Primitive pair pre-selection threshold      ...     2.500000e-12

Calculating pre-screening integrals         ... done (  0.1 sec) Dimension = 738
Calculating pre-screening integrals (ORCA)  ... done (  0.3 sec) Dimension = 426
Organizing shell pair data                  ... done (  0.7 sec)
Shell pair information
Total number of shell pairs                 ...    272691
Shell pairs after pre-screening             ...     71705
Total number of primitive shell pairs       ...    422091
Primitive shell pairs kept                  ...     92608
          la=0 lb=0:  29433 shell pairs
          la=1 lb=0:  26028 shell pairs
          la=1 lb=1:   4704 shell pairs
          la=2 lb=0:   7889 shell pairs
          la=2 lb=1:   3122 shell pairs
          la=2 lb=2:    529 shell pairs

Calculating one electron integrals          ... done (  0.2 sec)
Calculating Nuclear repulsion               ... done (  0.0 sec) ENN=   6233.734240732761 Eh

SHARK setup successfully completed in   2.5 seconds

Maximum memory used throughout the entire GTOINT-calculation: 99.1 MB


           ************************************************************
           *        Program running with 16 parallel MPI-processes    *
           *              working on a common directory               *
           ************************************************************
-------------------------------------------------------------------------------
                                 ORCA SCF
-------------------------------------------------------------------------------

------------
SCF SETTINGS
------------
Hamiltonian:
 Ab initio Hamiltonian  Method          .... Hartree-Fock(GTOs)


General Settings:
 Integral files         IntName         .... /scratch/allen/tmpyp4_amber_gaff2/conf1/conf1/Conf163.orca
 Hartree-Fock type      HFTyp           .... RHF
 Total Charge           Charge          ....    0
 Multiplicity           Mult            ....    1
 Number of Electrons    NEL             ....  358
 Basis Dimension        Dim             ....  918
 Nuclear Repulsion      ENuc            ....   6233.7342407328 Eh

Convergence Acceleration:
 DIIS                   CNVDIIS         .... on
   Start iteration      DIISMaxIt       ....    12
   Startup error        DIISStart       ....  0.200000
   # of expansion vecs  DIISMaxEq       ....     5
   Bias factor          DIISBfac        ....   1.050
   Max. coefficient     DIISMaxC        ....  10.000
 Trust-Rad. Augm. Hess. CNVTRAH         .... auto
   Auto Start mean grad. ratio tolernc. ....  1.125000
   Auto Start start iteration           ....    20
   Auto Start num. interpolation iter.  ....    10
   Max. Number of Micro iterations      ....    16
   Max. Number of Macro iterations      .... Maxiter - #DIIS iter
   Number of Davidson start vectors     ....     2
   Converg. threshold I  (grad. norm)   ....   1.000e-05
   Converg. threshold II (energy diff.) ....   1.000e-08
   Grad. Scal. Fac. for Micro threshold ....   0.100
   Minimum threshold for Micro iter.    ....   0.010
   NR start threshold (gradient norm)   ....   0.001
   Initial trust radius                 ....   0.400
   Minimum AH scaling param. (alpha)    ....   1.000
   Maximum AH scaling param. (alpha)    .... 1000.000
   Orbital update algorithm             .... Taylor
   White noise on init. David. guess    .... on
   Maximum white noise                  ....   0.010
   Quad. conv. algorithm                .... NR
 SOSCF                  CNVSOSCF        .... on
   Start iteration      SOSCFMaxIt      ....   150
   Startup grad/error   SOSCFStart      ....  0.003300
 Level Shifting         CNVShift        .... on
   Level shift para.    LevelShift      ....    0.2500
   Turn off err/grad.   ShiftErr        ....    0.0010
 Zerner damping         CNVZerner       .... off
 Static damping         CNVDamp         .... on
   Fraction old density DampFac         ....    0.7000
   Max. Damping (<1)    DampMax         ....    0.9800
   Min. Damping (>=0)   DampMin         ....    0.0000
   Turn off err/grad.   DampErr         ....    0.1000
 Fernandez-Rico         CNVRico         .... off

SCF Procedure:
 Maximum # iterations   MaxIter         ....   125
 SCF integral mode      SCFMode         .... Direct
   Integral package                     .... SHARK and LIBINT hybrid scheme
 Reset frequency        DirectResetFreq ....    20
 Integral Threshold     Thresh          ....  2.500e-11 Eh
 Primitive CutOff       TCut            ....  2.500e-12 Eh

Convergence Tolerance:
 Convergence Check Mode ConvCheckMode   .... Total+1el-Energy
 Convergence forced     ConvForced      .... 1
 Energy Change          TolE            ....  1.000e-08 Eh
 1-El. energy change                    ....  1.000e-05 Eh
 Orbital Gradient       TolG            ....  1.000e-05
 Orbital Rotation angle TolX            ....  1.000e-05
 DIIS Error             TolErr          ....  5.000e-07


Diagonalization of the overlap matrix:
Smallest eigenvalue                        ... 1.929e-04
Time for diagonalization                   ...    0.445 sec
Threshold for overlap eigenvalues          ... 1.000e-08
Number of eigenvalues below threshold      ... 0
Time for construction of square roots      ...    0.266 sec
Total time needed                          ...    0.718 sec

Time for model grid setup =    1.309 sec

------------------------------
INITIAL GUESS: MODEL POTENTIAL
------------------------------
Loading Hartree-Fock densities                     ... done
Calculating cut-offs                               ... done
Initializing the effective Hamiltonian             ... done
Setting up the integral package (SHARK)            ... done
Starting the Coulomb interaction                   ... done (   1.4 sec)
Reading the grid                                   ... done
Mapping shells                                     ... done
Starting the XC term evaluation                    ... done (   0.2 sec)
Transforming the Hamiltonian                       ... done (   0.3 sec)
Diagonalizing the Hamiltonian                      ... done (   0.4 sec)
Back transforming the eigenvectors                 ... done (   0.1 sec)
Now organizing SCF variables                       ... done
                      ------------------
                      INITIAL GUESS DONE (   3.8 sec)
                      ------------------
--------------
SCF ITERATIONS
--------------
ITER       Energy         Delta-E        Max-DP      RMS-DP      [F,P]     Damp
               ***  Starting incremental Fock matrix formation  ***
  0  -2121.6562899566   0.000000000000 0.08325292  0.00124382  0.2314387 0.7000
  1  -2122.3030215130  -0.646731556490 0.06284001  0.00101232  0.1435607 0.7000
                               ***Turning on DIIS***
  2  -2122.7060280898  -0.403006576757 0.14607243  0.00230096  0.0802894 0.0000
  3  -2118.0267213409   4.679306748856 0.04457008  0.00067959  0.0435495 0.0000
  4  -2123.3951829023  -5.368461561340 0.01371772  0.00022748  0.0089864 0.0000
  5  -2123.5362830424  -0.141100140156 0.00658368  0.00013245  0.0048907 0.0000
  6  -2123.5206238523   0.015659190180 0.00390667  0.00008490  0.0021664 0.0000
  7  -2123.6143245333  -0.093700681049 0.00316911  0.00006701  0.0016183 0.0000
  8  -2123.6222431480  -0.007918614703 0.00334589  0.00006397  0.0015119 0.0000
  9  -2123.5943523099   0.027890838155 0.00267674  0.00004542  0.0012151 0.0000
 10  -2123.6025837213  -0.008231411439 0.00539913  0.00009556  0.0009479 0.0000
                      *** Initiating the SOSCF procedure ***
                           *** Shutting down DIIS ***
                      *** Re-Reading the Fockian *** 
                      *** Removing any level shift *** 
ITER      Energy       Delta-E        Grad      Rot      Max-DP    RMS-DP
 11  -2123.49614455   0.1064391667  0.000178  0.000178  0.000238  0.000005
               *** Restarting incremental Fock matrix formation ***
 12  -2123.56180635  -0.0656617950  0.000882  0.006457  0.001482  0.000035
 13  -2123.56191761  -0.0001112572  0.001097  0.031800  0.006809  0.000139
 14  -2123.56210407  -0.0001864674  0.000379  0.001752  0.000584  0.000012
 15  -2123.56211914  -0.0000150654  0.000152  0.001817  0.000544  0.000013
 16  -2123.56212606  -0.0000069189  0.000146  0.002297  0.000478  0.000008
 17  -2123.56212845  -0.0000023887  0.000109  0.001698  0.000278  0.000006
 18  -2123.56212949  -0.0000010380  0.000057  0.000472  0.000221  0.000003
 19  -2123.56212999  -0.0000005065  0.000039  0.000682  0.000179  0.000003
 20  -2123.56213022  -0.0000002329  0.000019  0.000411  0.000090  0.000002
 21  -2123.56213032  -0.0000000955  0.000020  0.000549  0.000103  0.000002
 22  -2123.56213041  -0.0000000850  0.000016  0.000582  0.000101  0.000002
 23  -2123.56213046  -0.0000000576  0.000010  0.000358  0.000064  0.000001
 24  -2123.56213050  -0.0000000329  0.000006  0.000322  0.000049  0.000001
 25  -2123.56213052  -0.0000000254  0.000006  0.000154  0.000028  0.000001
 26  -2123.56213054  -0.0000000154  0.000004  0.000118  0.000025  0.000000
 27  -2123.56213055  -0.0000000100  0.000003  0.000098  0.000020  0.000000
                 **** Energy Check signals convergence ****
              ***Rediagonalizing the Fockian in SOSCF/NRSCF***

               *****************************************************
               *                     SUCCESS                       *
               *           SCF CONVERGED AFTER  28 CYCLES          *
               *****************************************************


----------------
TOTAL SCF ENERGY
----------------

Total Energy       :        -2123.56213055 Eh          -57785.06331 eV

Components:
Nuclear Repulsion  :         6233.73424073 Eh          169628.53244 eV
Electronic Energy  :        -8357.29637128 Eh         -227413.59575 eV
One Electron Energy:       -15308.11211844 Eh         -416554.90798 eV
Two Electron Energy:         6950.81574715 Eh          189141.31224 eV

Virial components:
Potential Energy   :        -4245.92852507 Eh         -115537.58898 eV
Kinetic Energy     :         2122.36639452 Eh           57752.52568 eV
Virial Ratio       :            2.00056340


---------------
SCF CONVERGENCE
---------------

  Last Energy change         ...   -4.5875e-09  Tolerance :   1.0000e-08
  Last MAX-Density change    ...    1.1027e-05  Tolerance :   1.0000e-07
  Last RMS-Density change    ...    2.2452e-07  Tolerance :   5.0000e-09
  Last Orbital Gradient      ...    1.8819e-06  Tolerance :   1.0000e-05
  Last Orbital Rotation      ...    6.2739e-05  Tolerance :   1.0000e-05

             **** THE GBW FILE WAS UPDATED (/scratch/allen/tmpyp4_amber_gaff2/conf1/conf1/Conf163.orca.gbw) ****
             **** DENSITY /scratch/allen/tmpyp4_amber_gaff2/conf1/conf1/Conf163.orca.scfp WAS UPDATED ****
             **** ENERGY FILE WAS UPDATED (/scratch/allen/tmpyp4_amber_gaff2/conf1/conf1/Conf163.orca.en.tmp) ****
             **** THE GBW FILE WAS UPDATED (/scratch/allen/tmpyp4_amber_gaff2/conf1/conf1/Conf163.orca.gbw) ****
             **** DENSITY /scratch/allen/tmpyp4_amber_gaff2/conf1/conf1/Conf163.orca.scfp WAS UPDATED ****
----------------
ORBITAL ENERGIES
----------------

  NO   OCC          E(Eh)            E(eV) 
   0   2.0000     -15.678651      -426.6378 
   1   2.0000     -15.636082      -425.4794 
   2   2.0000     -15.629796      -425.3084 
   3   2.0000     -15.587702      -424.1629 
   4   2.0000     -15.525647      -422.4743 
   5   2.0000     -15.515499      -422.1982 
   6   2.0000     -15.453121      -420.5008 
   7   2.0000     -15.441090      -420.1734 
   8   2.0000     -11.328756      -308.2711 
   9   2.0000     -11.327222      -308.2294 
  10   2.0000     -11.327089      -308.2258 
  11   2.0000     -11.300634      -307.5059 
  12   2.0000     -11.297087      -307.4094 
  13   2.0000     -11.294695      -307.3443 
  14   2.0000     -11.289408      -307.2004 
  15   2.0000     -11.288523      -307.1763 
  16   2.0000     -11.284874      -307.0770 
  17   2.0000     -11.280998      -306.9716 
  18   2.0000     -11.270254      -306.6792 
  19   2.0000     -11.262592      -306.4707 
  20   2.0000     -11.261620      -306.4443 
  21   2.0000     -11.251964      -306.1815 
  22   2.0000     -11.250380      -306.1384 
  23   2.0000     -11.239790      -305.8502 
  24   2.0000     -11.234649      -305.7104 
  25   2.0000     -11.232762      -305.6590 
  26   2.0000     -11.232135      -305.6419 
  27   2.0000     -11.228238      -305.5359 
  28   2.0000     -11.227918      -305.5272 
  29   2.0000     -11.211769      -305.0877 
  30   2.0000     -11.210251      -305.0465 
  31   2.0000     -11.194927      -304.6295 
  32   2.0000     -11.191111      -304.5256 
  33   2.0000     -11.190084      -304.4977 
  34   2.0000     -11.188060      -304.4426 
  35   2.0000     -11.187094      -304.4163 
  36   2.0000     -11.185802      -304.3812 
  37   2.0000     -11.181192      -304.2557 
  38   2.0000     -11.180629      -304.2404 
  39   2.0000     -11.175049      -304.0885 
  40   2.0000     -11.173835      -304.0555 
  41   2.0000     -11.169402      -303.9349 
  42   2.0000     -11.169265      -303.9311 
  43   2.0000     -11.160676      -303.6974 
  44   2.0000     -11.160465      -303.6917 
  45   2.0000     -11.157927      -303.6226 
  46   2.0000     -11.155196      -303.5483 
  47   2.0000     -11.154651      -303.5335 
  48   2.0000     -11.146014      -303.2984 
  49   2.0000     -11.135475      -303.0117 
  50   2.0000     -11.131011      -302.8902 
  51   2.0000     -11.119345      -302.5728 
  52   2.0000      -1.359406       -36.9913 
  53   2.0000      -1.323043       -36.0018 
  54   2.0000      -1.317867       -35.8610 
  55   2.0000      -1.281358       -34.8675 
  56   2.0000      -1.226750       -33.3816 
  57   2.0000      -1.209898       -32.9230 
  58   2.0000      -1.172510       -31.9056 
  59   2.0000      -1.151552       -31.3353 
  60   2.0000      -1.142821       -31.0977 
  61   2.0000      -1.111685       -30.2505 
  62   2.0000      -1.107585       -30.1389 
  63   2.0000      -1.081176       -29.4203 
  64   2.0000      -1.077503       -29.3204 
  65   2.0000      -1.047159       -28.4947 
  66   2.0000      -1.042606       -28.3708 
  67   2.0000      -1.040661       -28.3178 
  68   2.0000      -1.015296       -27.6276 
  69   2.0000      -1.012134       -27.5416 
  70   2.0000      -1.008744       -27.4493 
  71   2.0000      -0.994107       -27.0510 
  72   2.0000      -0.985715       -26.8227 
  73   2.0000      -0.981610       -26.7110 
  74   2.0000      -0.972201       -26.4549 
  75   2.0000      -0.961201       -26.1556 
  76   2.0000      -0.953890       -25.9567 
  77   2.0000      -0.945696       -25.7337 
  78   2.0000      -0.935412       -25.4539 
  79   2.0000      -0.917635       -24.9701 
  80   2.0000      -0.909697       -24.7541 
  81   2.0000      -0.895773       -24.3752 
  82   2.0000      -0.876094       -23.8397 
  83   2.0000      -0.873594       -23.7717 
  84   2.0000      -0.868970       -23.6459 
  85   2.0000      -0.858061       -23.3490 
  86   2.0000      -0.839617       -22.8471 
  87   2.0000      -0.836635       -22.7660 
  88   2.0000      -0.825592       -22.4655 
  89   2.0000      -0.796999       -21.6874 
  90   2.0000      -0.789541       -21.4845 
  91   2.0000      -0.754337       -20.5265 
  92   2.0000      -0.750167       -20.4131 
  93   2.0000      -0.733929       -19.9712 
  94   2.0000      -0.725834       -19.7510 
  95   2.0000      -0.723226       -19.6800 
  96   2.0000      -0.717472       -19.5234 
  97   2.0000      -0.714976       -19.4555 
  98   2.0000      -0.709303       -19.3011 
  99   2.0000      -0.698199       -18.9990 
 100   2.0000      -0.696417       -18.9505 
 101   2.0000      -0.686008       -18.6672 
 102   2.0000      -0.683503       -18.5991 
 103   2.0000      -0.682842       -18.5811 
 104   2.0000      -0.679454       -18.4889 
 105   2.0000      -0.673366       -18.3232 
 106   2.0000      -0.671315       -18.2674 
 107   2.0000      -0.660673       -17.9778 
 108   2.0000      -0.656276       -17.8582 
 109   2.0000      -0.654254       -17.8032 
 110   2.0000      -0.650307       -17.6957 
 111   2.0000      -0.645319       -17.5600 
 112   2.0000      -0.644542       -17.5389 
 113   2.0000      -0.638053       -17.3623 
 114   2.0000      -0.636774       -17.3275 
 115   2.0000      -0.627174       -17.0663 
 116   2.0000      -0.621873       -16.9220 
 117   2.0000      -0.620163       -16.8755 
 118   2.0000      -0.614106       -16.7107 
 119   2.0000      -0.613236       -16.6870 
 120   2.0000      -0.610736       -16.6190 
 121   2.0000      -0.609872       -16.5955 
 122   2.0000      -0.599779       -16.3208 
 123   2.0000      -0.587110       -15.9761 
 124   2.0000      -0.582852       -15.8602 
 125   2.0000      -0.580548       -15.7975 
 126   2.0000      -0.579127       -15.7588 
 127   2.0000      -0.572371       -15.5750 
 128   2.0000      -0.569265       -15.4905 
 129   2.0000      -0.559354       -15.2208 
 130   2.0000      -0.552509       -15.0345 
 131   2.0000      -0.547816       -14.9068 
 132   2.0000      -0.542984       -14.7753 
 133   2.0000      -0.542364       -14.7585 
 134   2.0000      -0.539548       -14.6818 
 135   2.0000      -0.534827       -14.5534 
 136   2.0000      -0.529708       -14.4141 
 137   2.0000      -0.519287       -14.1305 
 138   2.0000      -0.518377       -14.1058 
 139   2.0000      -0.514256       -13.9936 
 140   2.0000      -0.511758       -13.9256 
 141   2.0000      -0.510728       -13.8976 
 142   2.0000      -0.510016       -13.8783 
 143   2.0000      -0.504355       -13.7242 
 144   2.0000      -0.500790       -13.6272 
 145   2.0000      -0.495721       -13.4892 
 146   2.0000      -0.491598       -13.3771 
 147   2.0000      -0.481955       -13.1146 
 148   2.0000      -0.477435       -12.9917 
 149   2.0000      -0.467390       -12.7183 
 150   2.0000      -0.466008       -12.6807 
 151   2.0000      -0.456784       -12.4297 
 152   2.0000      -0.450763       -12.2659 
 153   2.0000      -0.445586       -12.1250 
 154   2.0000      -0.439931       -11.9711 
 155   2.0000      -0.427686       -11.6379 
 156   2.0000      -0.412179       -11.2160 
 157   2.0000      -0.408111       -11.1053 
 158   2.0000      -0.404323       -11.0022 
 159   2.0000      -0.387069       -10.5327 
 160   2.0000      -0.386813       -10.5257 
 161   2.0000      -0.377871       -10.2824 
 162   2.0000      -0.371399       -10.1063 
 163   2.0000      -0.358112        -9.7447 
 164   2.0000      -0.354470        -9.6456 
 165   2.0000      -0.341093        -9.2816 
 166   2.0000      -0.337863        -9.1937 
 167   2.0000      -0.325862        -8.8672 
 168   2.0000      -0.321001        -8.7349 
 169   2.0000      -0.305954        -8.3254 
 170   2.0000      -0.299256        -8.1432 
 171   2.0000      -0.285013        -7.7556 
 172   2.0000      -0.279466        -7.6046 
 173   2.0000      -0.262909        -7.1541 
 174   2.0000      -0.241963        -6.5841 
 175   2.0000      -0.190109        -5.1731 
 176   2.0000      -0.180815        -4.9202 
 177   2.0000      -0.078879        -2.1464 
 178   2.0000      -0.059289        -1.6133 
 179   0.0000       0.028200         0.7674 
 180   0.0000       0.065326         1.7776 
 181   0.0000       0.090625         2.4660 
 182   0.0000       0.106943         2.9101 
 183   0.0000       0.113760         3.0956 
 184   0.0000       0.135751         3.6940 
 185   0.0000       0.140572         3.8252 
 186   0.0000       0.141544         3.8516 
 187   0.0000       0.163843         4.4584 
 188   0.0000       0.164641         4.4801 
 189   0.0000       0.166741         4.5373 
 190   0.0000       0.172908         4.7051 
 191   0.0000       0.180954         4.9240 
 192   0.0000       0.184381         5.0173 
 193   0.0000       0.189055         5.1444 
 194   0.0000       0.203686         5.5426 
 195   0.0000       0.206671         5.6238 
 196   0.0000       0.207046         5.6340 
 197   0.0000       0.209835         5.7099 
 198   0.0000       0.217079         5.9070 
 199   0.0000       0.228806         6.2261 
 200   0.0000       0.233577         6.3560 
 201   0.0000       0.234307         6.3758 
 202   0.0000       0.238215         6.4822 
 203   0.0000       0.240568         6.5462 
 204   0.0000       0.246347         6.7034 
 205   0.0000       0.255140         6.9427 
 206   0.0000       0.255930         6.9642 
 207   0.0000       0.257769         7.0142 
 208   0.0000       0.259720         7.0674 
 209   0.0000       0.260240         7.0815 
 210   0.0000       0.264022         7.1844 
 211   0.0000       0.266702         7.2573 
 212   0.0000       0.269403         7.3308 
 213   0.0000       0.271001         7.3743 
 214   0.0000       0.272628         7.4186 
 215   0.0000       0.276740         7.5305 
 216   0.0000       0.278667         7.5829 
 217   0.0000       0.280560         7.6344 
 218   0.0000       0.285287         7.7631 
 219   0.0000       0.288169         7.8415 
 220   0.0000       0.289157         7.8683 
 221   0.0000       0.292330         7.9547 
 222   0.0000       0.294257         8.0071 
 223   0.0000       0.295558         8.0425 
 224   0.0000       0.298622         8.1259 
 225   0.0000       0.300583         8.1793 
 226   0.0000       0.304375         8.2825 
 227   0.0000       0.309010         8.4086 
 228   0.0000       0.311135         8.4664 
 229   0.0000       0.324269         8.8238 
 230   0.0000       0.327795         8.9198 
 231   0.0000       0.333697         9.0804 
 232   0.0000       0.342635         9.3236 
 233   0.0000       0.351003         9.5513 
 234   0.0000       0.353937         9.6311 
 235   0.0000       0.359663         9.7869 
 236   0.0000       0.375650        10.2220 
 237   0.0000       0.390673        10.6307 
 238   0.0000       0.393830        10.7167 
 239   0.0000       0.396367        10.7857 
 240   0.0000       0.402606        10.9555 
 241   0.0000       0.408846        11.1253 
 242   0.0000       0.411983        11.2106 
 243   0.0000       0.419300        11.4097 
 244   0.0000       0.427924        11.6444 
 245   0.0000       0.434410        11.8209 
 246   0.0000       0.437024        11.8920 
 247   0.0000       0.439794        11.9674 
 248   0.0000       0.442466        12.0401 
 249   0.0000       0.448156        12.1949 
 250   0.0000       0.459023        12.4907 
 251   0.0000       0.465945        12.6790 
 252   0.0000       0.469626        12.7792 
 253   0.0000       0.470541        12.8041 
 254   0.0000       0.472408        12.8549 
 255   0.0000       0.474983        12.9250 
 256   0.0000       0.478296        13.0151 
 257   0.0000       0.479284        13.0420 
 258   0.0000       0.488233        13.2855 
 259   0.0000       0.495805        13.4915 
 260   0.0000       0.504070        13.7164 
 261   0.0000       0.504386        13.7250 
 262   0.0000       0.507303        13.8044 
 263   0.0000       0.510734        13.8978 
 264   0.0000       0.515838        14.0367 
 265   0.0000       0.519095        14.1253 
 266   0.0000       0.525336        14.2951 
 267   0.0000       0.527585        14.3563 
 268   0.0000       0.533457        14.5161 
 269   0.0000       0.536876        14.6091 
 270   0.0000       0.541588        14.7374 
 271   0.0000       0.545231        14.8365 
 272   0.0000       0.558162        15.1884 
 273   0.0000       0.558650        15.2016 
 274   0.0000       0.560917        15.2633 
 275   0.0000       0.566157        15.4059 
 276   0.0000       0.570354        15.5201 
 277   0.0000       0.572957        15.5909 
 278   0.0000       0.578628        15.7453 
 279   0.0000       0.586343        15.9552 
 280   0.0000       0.590438        16.0666 
 281   0.0000       0.592715        16.1286 
 282   0.0000       0.594973        16.1900 
 283   0.0000       0.595721        16.2104 
 284   0.0000       0.596998        16.2451 
 285   0.0000       0.598680        16.2909 
 286   0.0000       0.606716        16.5096 
 287   0.0000       0.611047        16.6274 
 288   0.0000       0.618819        16.8389 
 289   0.0000       0.624158        16.9842 
 290   0.0000       0.625688        17.0258 
 291   0.0000       0.630552        17.1582 
 292   0.0000       0.634526        17.2663 
 293   0.0000       0.638578        17.3766 
 294   0.0000       0.643952        17.5228 
 295   0.0000       0.648900        17.6575 
 296   0.0000       0.653034        17.7699 
 297   0.0000       0.655543        17.8382 
 298   0.0000       0.661988        18.0136 
 299   0.0000       0.665558        18.1108 
 300   0.0000       0.671412        18.2700 
 301   0.0000       0.674738        18.3606 
 302   0.0000       0.677466        18.4348 
 303   0.0000       0.678204        18.4549 
 304   0.0000       0.680964        18.5300 
 305   0.0000       0.684455        18.6250 
 306   0.0000       0.689246        18.7553 
 307   0.0000       0.691693        18.8219 
 308   0.0000       0.695927        18.9371 
 309   0.0000       0.699283        19.0285 
 310   0.0000       0.701533        19.0897 
 311   0.0000       0.704607        19.1733 
 312   0.0000       0.707460        19.2510 
 313   0.0000       0.710493        19.3335 
 314   0.0000       0.711499        19.3609 
 315   0.0000       0.714577        19.4446 
 316   0.0000       0.716461        19.4959 
 317   0.0000       0.719159        19.5693 
 318   0.0000       0.722363        19.6565 
 319   0.0000       0.726059        19.7571 
 320   0.0000       0.728880        19.8338 
 321   0.0000       0.730174        19.8690 
 322   0.0000       0.731786        19.9129 
 323   0.0000       0.732976        19.9453 
 324   0.0000       0.734988        20.0000 
 325   0.0000       0.740694        20.1553 
 326   0.0000       0.744785        20.2666 
 327   0.0000       0.747908        20.3516 
 328   0.0000       0.750265        20.4158 
 329   0.0000       0.753092        20.4927 
 330   0.0000       0.759332        20.6625 
 331   0.0000       0.760132        20.6842 
 332   0.0000       0.763577        20.7780 
 333   0.0000       0.766731        20.8638 
 334   0.0000       0.768476        20.9113 
 335   0.0000       0.772509        21.0210 
 336   0.0000       0.776885        21.1401 
 337   0.0000       0.782292        21.2872 
 338   0.0000       0.786047        21.3894 
 339   0.0000       0.788868        21.4662 
 340   0.0000       0.793604        21.5951 
 341   0.0000       0.794813        21.6280 
 342   0.0000       0.797230        21.6937 
 343   0.0000       0.803007        21.8509 
 344   0.0000       0.805565        21.9205 
 345   0.0000       0.806321        21.9411 
 346   0.0000       0.808170        21.9914 
 347   0.0000       0.812211        22.1014 
 348   0.0000       0.816407        22.2156 
 349   0.0000       0.816927        22.2297 
 350   0.0000       0.818782        22.2802 
 351   0.0000       0.820667        22.3315 
 352   0.0000       0.822404        22.3787 
 353   0.0000       0.825145        22.4533 
 354   0.0000       0.829035        22.5592 
 355   0.0000       0.832476        22.6528 
 356   0.0000       0.835853        22.7447 
 357   0.0000       0.836317        22.7574 
 358   0.0000       0.837467        22.7886 
 359   0.0000       0.839211        22.8361 
 360   0.0000       0.842589        22.9280 
 361   0.0000       0.844134        22.9700 
 362   0.0000       0.845205        22.9992 
 363   0.0000       0.846911        23.0456 
 364   0.0000       0.849381        23.1128 
 365   0.0000       0.853251        23.2181 
 366   0.0000       0.858600        23.3637 
 367   0.0000       0.863814        23.5056 
 368   0.0000       0.864508        23.5245 
 369   0.0000       0.865685        23.5565 
 370   0.0000       0.870196        23.6792 
 371   0.0000       0.871520        23.7153 
 372   0.0000       0.875414        23.8212 
 373   0.0000       0.878543        23.9064 
 374   0.0000       0.879008        23.9190 
 375   0.0000       0.882917        24.0254 
 376   0.0000       0.886714        24.1287 
 377   0.0000       0.890221        24.2241 
 378   0.0000       0.892055        24.2740 
 379   0.0000       0.893824        24.3222 
 380   0.0000       0.895974        24.3807 
 381   0.0000       0.899005        24.4632 
 382   0.0000       0.899294        24.4710 
 383   0.0000       0.901499        24.5310 
 384   0.0000       0.905239        24.6328 
 385   0.0000       0.906196        24.6588 
 386   0.0000       0.909421        24.7466 
 387   0.0000       0.909674        24.7535 
 388   0.0000       0.913815        24.8662 
 389   0.0000       0.915599        24.9147 
 390   0.0000       0.920551        25.0495 
 391   0.0000       0.925938        25.1961 
 392   0.0000       0.926753        25.2182 
 393   0.0000       0.927825        25.2474 
 394   0.0000       0.928931        25.2775 
 395   0.0000       0.932688        25.3797 
 396   0.0000       0.933954        25.4142 
 397   0.0000       0.937271        25.5044 
 398   0.0000       0.942422        25.6446 
 399   0.0000       0.945145        25.7187 
 400   0.0000       0.947190        25.7743 
 401   0.0000       0.952244        25.9119 
 402   0.0000       0.953987        25.9593 
 403   0.0000       0.955291        25.9948 
 404   0.0000       0.960482        26.1360 
 405   0.0000       0.965194        26.2643 
 406   0.0000       0.967915        26.3383 
 407   0.0000       0.977514        26.5995 
 408   0.0000       0.979592        26.6561 
 409   0.0000       0.981843        26.7173 
 410   0.0000       0.985256        26.8102 
 411   0.0000       0.986486        26.8436 
 412   0.0000       0.994283        27.0558 
 413   0.0000       1.002246        27.2725 
 414   0.0000       1.005885        27.3715 
 415   0.0000       1.010278        27.4911 
 416   0.0000       1.013404        27.5761 
 417   0.0000       1.017897        27.6984 
 418   0.0000       1.020157        27.7599 
 419   0.0000       1.027374        27.9563 
 420   0.0000       1.033115        28.1125 
 421   0.0000       1.036053        28.1924 
 422   0.0000       1.047594        28.5065 
 423   0.0000       1.049358        28.5545 
 424   0.0000       1.052582        28.6422 
 425   0.0000       1.069284        29.0967 
 426   0.0000       1.070668        29.1344 
 427   0.0000       1.074467        29.2377 
 428   0.0000       1.079899        29.3856 
 429   0.0000       1.080935        29.4137 
 430   0.0000       1.084496        29.5106 
 431   0.0000       1.085446        29.5365 
 432   0.0000       1.093663        29.7601 
 433   0.0000       1.098418        29.8895 
 434   0.0000       1.102796        30.0086 
 435   0.0000       1.105757        30.0892 
 436   0.0000       1.108078        30.1523 
 437   0.0000       1.112083        30.2613 
 438   0.0000       1.118808        30.4443 
 439   0.0000       1.120677        30.4952 
 440   0.0000       1.121799        30.5257 
 441   0.0000       1.124858        30.6089 
 442   0.0000       1.126831        30.6626 
 443   0.0000       1.131171        30.7807 
 444   0.0000       1.133794        30.8521 
 445   0.0000       1.135672        30.9032 
 446   0.0000       1.141478        31.0612 
 447   0.0000       1.149659        31.2838 
 448   0.0000       1.150084        31.2954 
 449   0.0000       1.154448        31.4141 
 450   0.0000       1.157248        31.4903 
 451   0.0000       1.159421        31.5494 
 452   0.0000       1.163260        31.6539 
 453   0.0000       1.166708        31.7478 
 454   0.0000       1.168849        31.8060 
 455   0.0000       1.173266        31.9262 
 456   0.0000       1.176752        32.0210 
 457   0.0000       1.184476        32.2312 
 458   0.0000       1.188039        32.3282 
 459   0.0000       1.195931        32.5429 
 460   0.0000       1.200093        32.6562 
 461   0.0000       1.200345        32.6631 
 462   0.0000       1.202552        32.7231 
 463   0.0000       1.204989        32.7894 
 464   0.0000       1.207854        32.8674 
 465   0.0000       1.214117        33.0378 
 466   0.0000       1.215226        33.0680 
 467   0.0000       1.218487        33.1567 
 468   0.0000       1.225308        33.3423 
 469   0.0000       1.228754        33.4361 
 470   0.0000       1.234806        33.6008 
 471   0.0000       1.235190        33.6112 
 472   0.0000       1.236416        33.6446 
 473   0.0000       1.238006        33.6879 
 474   0.0000       1.241773        33.7904 
 475   0.0000       1.243395        33.8345 
 476   0.0000       1.248149        33.9638 
 477   0.0000       1.253132        34.0995 
 478   0.0000       1.254728        34.1429 
 479   0.0000       1.255074        34.1523 
 480   0.0000       1.260862        34.3098 
 481   0.0000       1.266345        34.4590 
 482   0.0000       1.270931        34.5838 
 483   0.0000       1.273336        34.6492 
 484   0.0000       1.274534        34.6818 
 485   0.0000       1.280749        34.8510 
 486   0.0000       1.283919        34.9372 
 487   0.0000       1.285015        34.9670 
 488   0.0000       1.290534        35.1172 
 489   0.0000       1.296325        35.2748 
 490   0.0000       1.297162        35.2976 
 491   0.0000       1.300454        35.3871 
 492   0.0000       1.302545        35.4441 
 493   0.0000       1.308121        35.5958 
 494   0.0000       1.312022        35.7019 
 495   0.0000       1.316588        35.8262 
 496   0.0000       1.317918        35.8624 
 497   0.0000       1.320066        35.9208 
 498   0.0000       1.326332        36.0913 
 499   0.0000       1.327187        36.1146 
 500   0.0000       1.329244        36.1706 
 501   0.0000       1.336276        36.3619 
 502   0.0000       1.340717        36.4828 
 503   0.0000       1.343504        36.5586 
 504   0.0000       1.347710        36.6730 
 505   0.0000       1.350019        36.7359 
 506   0.0000       1.352680        36.8083 
 507   0.0000       1.355084        36.8737 
 508   0.0000       1.357549        36.9408 
 509   0.0000       1.362929        37.0872 
[...]
      pz      :     0.022115  p :     0.079783
      px      :     0.043614
      py      :     0.014053
 77 H s       :     0.884595  s :     0.884595
      pz      :     0.047977  p :     0.079288
      px      :     0.015023
      py      :     0.016287
 78 H s       :     0.884987  s :     0.884987
      pz      :     0.025880  p :     0.079249
      px      :     0.020456
      py      :     0.032914
 79 H s       :     0.910515  s :     0.910515
      pz      :     0.021802  p :     0.086333
      px      :     0.021663
      py      :     0.042868
 80 H s       :     0.864600  s :     0.864600
      pz      :     0.039382  p :     0.084831
      px      :     0.030291
      py      :     0.015158
 81 H s       :     0.887007  s :     0.887007
      pz      :     0.037811  p :     0.084112
      px      :     0.016192
      py      :     0.030109
 82 H s       :     0.916214  s :     0.916214
      pz      :     0.021971  p :     0.086719
      px      :     0.031641
      py      :     0.033108
 83 H s       :     0.873752  s :     0.873752
      pz      :     0.039242  p :     0.084060
      px      :     0.015283
      py      :     0.029535
 84 H s       :     0.887015  s :     0.887015
      pz      :     0.035748  p :     0.083438
      px      :     0.031684
      py      :     0.016006
 85 H s       :     0.893130  s :     0.893130
      pz      :     0.022483  p :     0.079771
      px      :     0.014080
      py      :     0.043208
 86 H s       :     0.891207  s :     0.891207
      pz      :     0.024722  p :     0.078810
      px      :     0.032966
      py      :     0.021122
 87 H s       :     0.890017  s :     0.890017
      pz      :     0.048003  p :     0.078724
      px      :     0.015585
      py      :     0.015136
 88 H s       :     0.910604  s :     0.910604
      pz      :     0.021663  p :     0.087040
      px      :     0.042919
      py      :     0.022458
 89 H s       :     0.871199  s :     0.871199
      pz      :     0.037949  p :     0.083837
      px      :     0.030485
      py      :     0.015403


                      *****************************
                      * MAYER POPULATION ANALYSIS *
                      *****************************

  NA   - Mulliken gross atomic population
  ZA   - Total nuclear charge
  QA   - Mulliken gross atomic charge
  VA   - Mayer's total valence
  BVA  - Mayer's bonded valence
  FA   - Mayer's free valence

  ATOM       NA         ZA         QA         VA         BVA        FA
  0 C      5.7879     6.0000     0.2121     3.8434     3.8434     0.0000
  1 N      7.4561     7.0000    -0.4561     3.3363     3.3363     0.0000
  2 C      6.0751     6.0000    -0.0751     3.9237     3.9237    -0.0000
  3 N      7.3398     7.0000    -0.3398     3.4583     3.4583     0.0000
  4 C      6.0598     6.0000    -0.0598     4.0825     4.0825    -0.0000
  5 N      7.5655     7.0000    -0.5655     3.0963     3.0963    -0.0000
  6 C      6.1240     6.0000    -0.1240     3.9649     3.9649    -0.0000
  7 N      7.3408     7.0000    -0.3408     3.4326     3.4326    -0.0000
  8 C      5.7853     6.0000     0.2147     3.8480     3.8480    -0.0000
  9 N      7.5626     7.0000    -0.5626     3.0775     3.0775     0.0000
 10 C      5.8805     6.0000     0.1195     3.9097     3.9097     0.0000
 11 N      7.4380     7.0000    -0.4380     3.3804     3.3804     0.0000
 12 C      6.0661     6.0000    -0.0661     3.8654     3.8654    -0.0000
 13 N      7.4296     7.0000    -0.4296     3.4272     3.4272     0.0000
 14 C      5.7866     6.0000     0.2134     3.7893     3.7893     0.0000
 15 N      7.4414     7.0000    -0.4414     3.3703     3.3703     0.0000
 16 C      5.7678     6.0000     0.2322     3.7768     3.7768     0.0000
 17 C      6.1203     6.0000    -0.1203     3.9658     3.9658     0.0000
 18 C      6.1553     6.0000    -0.1553     3.7505     3.7505     0.0000
 19 C      5.7972     6.0000     0.2028     3.8667     3.8667     0.0000
 20 C      5.7855     6.0000     0.2145     3.8287     3.8287    -0.0000
 21 C      6.0811     6.0000    -0.0811     3.8667     3.8667    -0.0000
 22 C      6.0892     6.0000    -0.0892     3.9819     3.9819    -0.0000
 23 C      6.0399     6.0000    -0.0399     3.9924     3.9924     0.0000
 24 C      5.8053     6.0000     0.1947     3.8211     3.8211     0.0000
 25 C      5.8857     6.0000     0.1143     3.8908     3.8908     0.0000
 26 C      6.0868     6.0000    -0.0868     3.9086     3.9086    -0.0000
 27 C      5.7866     6.0000     0.2134     3.8611     3.8611    -0.0000
 28 C      6.0613     6.0000    -0.0613     3.9888     3.9888    -0.0000
 29 C      6.1823     6.0000    -0.1823     3.7467     3.7467    -0.0000
 30 C      5.7542     6.0000     0.2458     3.7989     3.7989     0.0000
 31 C      5.7693     6.0000     0.2307     3.8176     3.8176    -0.0000
 32 C      6.0613     6.0000    -0.0613     3.9236     3.9236    -0.0000
 33 C      6.0608     6.0000    -0.0608     3.9715     3.9715     0.0000
 34 C      6.0502     6.0000    -0.0502     3.9839     3.9839     0.0000
 35 C      5.7730     6.0000     0.2270     3.8165     3.8165     0.0000
 36 C      5.8916     6.0000     0.1084     3.8751     3.8751     0.0000
 37 C      6.0643     6.0000    -0.0643     3.9176     3.9176    -0.0000
 38 C      5.7680     6.0000     0.2320     3.8020     3.8020     0.0000
 39 C      6.0585     6.0000    -0.0585     3.9832     3.9832    -0.0000
 40 C      6.1809     6.0000    -0.1809     3.7269     3.7269     0.0000
 41 C      5.7752     6.0000     0.2248     3.8868     3.8868     0.0000
 42 C      5.8031     6.0000     0.1969     3.8260     3.8260     0.0000
 43 C      6.0727     6.0000    -0.0727     3.8999     3.8999     0.0000
 44 C      6.0907     6.0000    -0.0907     3.9859     3.9859    -0.0000
 45 C      6.0615     6.0000    -0.0615     3.9920     3.9920    -0.0000
 46 C      5.7895     6.0000     0.2105     3.8288     3.8288     0.0000
 47 C      5.8844     6.0000     0.1156     3.8936     3.8936     0.0000
 48 C      6.0673     6.0000    -0.0673     3.9092     3.9092     0.0000
 49 C      5.7618     6.0000     0.2382     3.8955     3.8955     0.0000
 50 C      6.0464     6.0000    -0.0464     3.9904     3.9904    -0.0000
 51 C      6.1951     6.0000    -0.1951     3.7371     3.7371     0.0000
 52 H      0.9628     1.0000     0.0372     0.9860     0.9860     0.0000
 53 H      1.0177     1.0000    -0.0177     0.9990     0.9990    -0.0000
 54 H      0.9514     1.0000     0.0486     1.0184     1.0184    -0.0000
 55 H      0.9644     1.0000     0.0356     0.9866     0.9866    -0.0000
 56 H      0.9509     1.0000     0.0491     0.9695     0.9695     0.0000
 57 H      0.9525     1.0000     0.0475     0.9824     0.9824    -0.0000
 58 H      0.9536     1.0000     0.0464     0.9850     0.9850     0.0000
 59 H      1.0033     1.0000    -0.0033     1.0012     1.0012     0.0000
 60 H      0.9482     1.0000     0.0518     1.0233     1.0233     0.0000
 61 H      0.8290     1.0000     0.1710     1.0420     1.0420    -0.0000
 62 H      0.8243     1.0000     0.1757     1.0436     1.0436    -0.0000
 63 H      0.9439     1.0000     0.0561     0.9852     0.9852    -0.0000
 64 H      1.0081     1.0000    -0.0081     0.9949     0.9949     0.0000
 65 H      0.9529     1.0000     0.0471     1.0099     1.0099    -0.0000
 66 H      0.9438     1.0000     0.0562     0.9854     0.9854    -0.0000
 67 H      0.9369     1.0000     0.0631     0.9720     0.9720    -0.0000
 68 H      0.9424     1.0000     0.0576     0.9868     0.9868     0.0000
 69 H      0.9432     1.0000     0.0568     0.9828     0.9828     0.0000
 70 H      1.0296     1.0000    -0.0296     0.9936     0.9936    -0.0000
 71 H      0.9544     1.0000     0.0456     1.0059     1.0059     0.0000
 72 H      0.9289     1.0000     0.0711     0.9835     0.9835    -0.0000
 73 H      1.0080     1.0000    -0.0080     1.0008     1.0008    -0.0000
 74 H      0.9397     1.0000     0.0603     1.0102     1.0102     0.0000
 75 H      0.9295     1.0000     0.0705     0.9839     0.9839     0.0000
 76 H      0.9252     1.0000     0.0748     0.9721     0.9721     0.0000
 77 H      0.9321     1.0000     0.0679     0.9855     0.9855    -0.0000
 78 H      0.9329     1.0000     0.0671     0.9854     0.9854    -0.0000
 79 H      1.0162     1.0000    -0.0162     0.9977     0.9977    -0.0000
 80 H      0.9390     1.0000     0.0610     1.0072     1.0072    -0.0000
 81 H      0.9461     1.0000     0.0539     0.9857     0.9857     0.0000
 82 H      1.0253     1.0000    -0.0253     0.9933     0.9933     0.0000
 83 H      0.9588     1.0000     0.0412     1.0083     1.0083    -0.0000
 84 H      0.9465     1.0000     0.0535     0.9853     0.9853    -0.0000
 85 H      0.9397     1.0000     0.0603     0.9716     0.9716     0.0000
 86 H      0.9449     1.0000     0.0551     0.9839     0.9839     0.0000
 87 H      0.9431     1.0000     0.0569     0.9856     0.9856    -0.0000
 88 H      1.0146     1.0000    -0.0146     0.9968     0.9968     0.0000
 89 H      0.9532     1.0000     0.0468     1.0073     1.0073    -0.0000

  Mayer bond orders larger than 0.100000
B(  0-C ,  1-N ) :   1.0897 B(  0-C , 17-C ) :   1.7169 B(  0-C , 52-H ) :   0.9641 
B(  1-N ,  8-C ) :   1.0941 B(  1-N , 10-C ) :   0.9782 B(  2-C , 12-C ) :   1.4928 
B(  2-C , 16-C ) :   1.3675 B(  2-C , 53-H ) :   0.9743 B(  3-N , 14-C ) :   1.2200 
B(  3-N , 16-C ) :   1.1859 B(  3-N , 61-H ) :   0.8991 B(  4-C ,  6-C ) :   1.2127 
B(  4-C , 17-C ) :   1.2129 B(  4-C , 18-C ) :   1.4628 B(  5-N , 19-C ) :   1.4562 
B(  5-N , 27-C ) :   1.3744 B(  6-C ,  8-C ) :   1.7142 B(  6-C , 54-H ) :   0.9261 
B(  7-N , 30-C ) :   1.1944 B(  7-N , 38-C ) :   1.1907 B(  7-N , 62-H ) :   0.8966 
B(  8-C , 55-H ) :   0.9650 B(  9-N , 41-C ) :   1.3924 B(  9-N , 49-C ) :   1.4276 
B( 10-C , 56-H ) :   0.9773 B( 10-C , 57-H ) :   0.9833 B( 10-C , 58-H ) :   0.9834 
B( 11-N , 20-C ) :   1.1324 B( 11-N , 24-C ) :   1.1087 B( 11-N , 25-C ) :   0.9594 
B( 12-C , 14-C ) :   1.3588 B( 12-C , 59-H ) :   0.9575 B( 13-N , 31-C ) :   1.1618 
B( 13-N , 35-C ) :   1.1582 B( 13-N , 36-C ) :   0.9417 B( 14-C , 18-C ) :   1.1195 
B( 15-N , 42-C ) :   1.1066 B( 15-N , 46-C ) :   1.1227 B( 15-N , 47-C ) :   0.9620 
B( 16-C , 51-C ) :   1.1676 B( 17-C , 60-H ) :   0.9296 B( 18-C , 19-C ) :   1.1204 
B( 19-C , 21-C ) :   1.2499 B( 20-C , 28-C ) :   1.6268 B( 20-C , 63-H ) :   0.9702 
B( 21-C , 26-C ) :   1.5953 B( 21-C , 64-H ) :   0.9589 B( 22-C , 23-C ) :   1.2910 
B( 22-C , 28-C ) :   1.2657 B( 22-C , 29-C ) :   1.2224 B( 23-C , 24-C ) :   1.6182 
B( 23-C , 65-H ) :   0.9703 B( 24-C , 66-H ) :   0.9695 B( 25-C , 67-H ) :   0.9760 
B( 25-C , 68-H ) :   0.9828 B( 25-C , 69-H ) :   0.9823 B( 26-C , 27-C ) :   1.2505 
B( 26-C , 70-H ) :   0.9685 B( 27-C , 29-C ) :   1.2090 B( 28-C , 71-H ) :   0.9719 
B( 29-C , 30-C ) :   1.2469 B( 30-C , 32-C ) :   1.2782 B( 31-C , 39-C ) :   1.5888 
B( 31-C , 72-H ) :   0.9681 B( 32-C , 37-C ) :   1.5811 B( 32-C , 73-H ) :   0.9785 
B( 33-C , 34-C ) :   1.3076 B( 33-C , 39-C ) :   1.3026 B( 33-C , 40-C ) :   1.1763 
B( 34-C , 35-C ) :   1.5857 B( 34-C , 74-H ) :   0.9696 B( 35-C , 75-H ) :   0.9682 
B( 36-C , 76-H ) :   0.9767 B( 36-C , 77-H ) :   0.9816 B( 36-C , 78-H ) :   0.9823 
B( 37-C , 38-C ) :   1.2834 B( 37-C , 79-H ) :   0.9765 B( 38-C , 40-C ) :   1.2349 
B( 39-C , 80-H ) :   0.9706 B( 40-C , 41-C ) :   1.2499 B( 41-C , 43-C ) :   1.1865 
B( 42-C , 50-C ) :   1.6352 B( 42-C , 81-H ) :   0.9697 B( 43-C , 48-C ) :   1.6659 
B( 43-C , 82-H ) :   0.9721 B( 44-C , 45-C ) :   1.2621 B( 44-C , 50-C ) :   1.2704 
B( 44-C , 51-C ) :   1.2647 B( 45-C , 46-C ) :   1.6364 B( 45-C , 83-H ) :   0.9719 
B( 46-C , 84-H ) :   0.9701 B( 47-C , 85-H ) :   0.9762 B( 47-C , 86-H ) :   0.9829 
B( 47-C , 87-H ) :   0.9825 B( 48-C , 49-C ) :   1.1900 B( 48-C , 88-H ) :   0.9749 
B( 49-C , 51-C ) :   1.2416 B( 50-C , 89-H ) :   0.9709 

-------
TIMINGS
-------

Total SCF time: 0 days 0 hours 28 min 23 sec 

Total time                  ....    1703.010 sec
Sum of individual times     ....    1698.242 sec  ( 99.7%)

Fock matrix formation       ....    1670.434 sec  ( 98.1%)
Diagonalization             ....       8.788 sec  (  0.5%)
Density matrix formation    ....       0.539 sec  (  0.0%)
Population analysis         ....       0.586 sec  (  0.0%)
Initial guess               ....       2.515 sec  (  0.1%)
Orbital Transformation      ....       0.000 sec  (  0.0%)
Orbital Orthonormalization  ....       0.000 sec  (  0.0%)
DIIS solution               ....       3.967 sec  (  0.2%)
SOSCF solution              ....      10.104 sec  (  0.6%)

Maximum memory used throughout the entire SCF-calculation: 302.6 MB


           ************************************************************
           *        Program running with 16 parallel MPI-processes    *
           *              working on a common directory               *
           ************************************************************

------------------------------------------------------------------------------
                                ORCA  MP2 
------------------------------------------------------------------------------

Freezing NCore=104 chemical core electrons

----------
MP2 ENERGY (disk based algorithm)
----------

Dimension of the basis                    ...  918
Memory devoted to MP2                     ... 2000 MB   
Data format for buffers                   ... DOUBLE
Compression type for matrix containers    ... UNCOMPRESSED

-------------------------------
PARTIAL EXCHANGE TRANSFORMATION
-------------------------------

Transformation type                        ... one-operator
Generation of integrals (i,mue|j,nue)      ... ON
Generation of integrals (mue,kappa|nue,tau)... OFF
Generation of integrals (i,mue|a,nue)      ... OFF
Dimension of the basis                     ...  918
Number of internal MOs                     ...  127 (  52- 178)
Pair cutoff                                ... 2.500e-12 Eh
Number of AO pairs in the trafo            ... 421821
Total Number of distinct AO pairs          ... 421821
Memory devoted for trafo                   ... 2000.0 MB 
Max. Number of MO pairs treated together   ...  311      
Number Format for Storage                  ... Double (8 Byte)
Integral package used                      ... LIBINT

Starting integral evaluation:
    ... done with AO integral generation
Closing buffer AOK     (38.29 GB; CompressionRatio= 1.32)
Collecting buffer AOK 
Number of MO pairs included in the trafo   ... 8128
------------------------
SORTING OF (i,mue|j,nue)
------------------------

IBATCH = 1 of  2
IBATCH = 2 of  2
Closing buffer KAO     (51.03 GB; CompressionRatio= 1.00)
Collecting buffer KAO 
N(AO-Batches) Done                         ...  86115488 
N(AO-Batches) Skipped                      ...  82245559 
N(IJ)-pairs Skipped                        ...         0 
TOTAL TIME for half transformation         ...  2876.908 sec
AO-integral generation                     ...   211.618 sec
Half transformation                        ...   424.271 sec
K-integral sorting                         ...  2021.322 sec
Process 13:   Internal MO 156

Finished integral transformation - now doing MP2 part

OPERATOR COMBINATION   0   0: ij=( 52..178, 52..178)
Process  4:   Internal MO  84
Process  7:   Internal MO 108
Process  1:   Internal MO  60
Process 10:   Internal MO 132
Process  0:   Internal MO  54
Process  0:   Internal MO  57
Process  2:   Internal MO  69
Process  1:   Internal MO  63
Process  5:   Internal MO  93
Process  8:   Internal MO 117
Process  3:   Internal MO  78
Process  1:   Internal MO  66
Process  2:   Internal MO  72
Process  6:   Internal MO 102
Process 14:   Internal MO 165
Process  4:   Internal MO  87
Process  2:   Internal MO  75
Process  9:   Internal MO 126
Process  7:   Internal MO 111
Process  5:   Internal MO  96
Process 11:   Internal MO 141
Process  3:   Internal MO  81
Process 12:   Internal MO 150
Process  4:   Internal MO  90
Process 15:   Internal MO 174
Process  8:   Internal MO 120
Process  6:   Internal MO 105
Process 10:   Internal MO 135
Process  5:   Internal MO  99
Process  7:   Internal MO 114
Process  9:   Internal MO 129
Process 13:   Internal MO 159
Process 11:   Internal MO 144
Process 14:   Internal MO 168
Process 12:   Internal MO 153
Process  8:   Internal MO 123
Process 10:   Internal MO 138
Process 15:   Internal MO 177
Process 13:   Internal MO 162
Process 11:   Internal MO 147
Process 14:   Internal MO 171
-----------------------------------------------
 MP2 CORRELATION ENERGY   :     -7.284499571 Eh
-----------------------------------------------


-------
TIMINGS
-------
Total time                : 3155.393 sec
Integral trafo            : 2881.077 sec ( 91.3%)
K(i,j)                    :    6.275 sec (  0.2%)
T(i,j)                    :    0.178 sec (  0.0%)

---------------------------------------
MP2 TOTAL ENERGY:    -2130.846630123 Eh
---------------------------------------

Maximum memory used throughout the entire MP2-calculation: 2275.3 MB

-------------------------   --------------------
FINAL SINGLE POINT ENERGY     -2130.846630122690
-------------------------   --------------------


                            ***************************************
                            *     ORCA property calculations      *
                            ***************************************


  WARNING: The energy has been calculated at the MP2 level but the densities
           used in the property calculations are still SCF densities
           MP2 response densities have not been calculated 
           use %mp2 Density relaxed end
           or  %mp2 Density unrelaxed end

                                    ---------------------
                                    Active property flags
                                    ---------------------
   (+) Dipole Moment


------------------------------------------------------------------------------
                       ORCA ELECTRIC PROPERTIES CALCULATION
------------------------------------------------------------------------------

Dipole Moment Calculation                       ... on
Quadrupole Moment Calculation                   ... off
Polarizability Calculation                      ... off
GBWName                                         ... /scratch/allen/tmpyp4_amber_gaff2/conf1/conf1/Conf163.orca.gbw
Electron density                                ... /scratch/allen/tmpyp4_amber_gaff2/conf1/conf1/Conf163.orca.scfp
The origin for moment calculation is the CENTER OF MASS  = ( 0.003401, -0.001790  0.001262)

-------------
DIPOLE MOMENT
-------------
                                X             Y             Z
Electronic contribution:      2.53103      -4.39909      -0.22016
Nuclear contribution   :      0.04849       0.21756       0.21725
                        -----------------------------------------
Total Dipole Moment    :      2.57952      -4.18153      -0.00291
                        -----------------------------------------
Magnitude (a.u.)       :      4.91316
Magnitude (Debye)      :     12.48826



--------------------
Rotational spectrum 
--------------------
 
Rotational constants in cm-1:     0.001501     0.001479     0.000760 
Rotational constants in MHz :    44.996905    44.340107    22.790118 

 Dipole components along the rotational axes: 
x,y,z [a.u.] :     3.350056    -3.593920     0.000429 
x,y,z [Debye]:     8.515165    -9.135020     0.001091 

 

Timings for individual modules:

Sum of individual times         ...     4883.001 sec (=  81.383 min)
GTO integral calculation        ...        3.750 sec (=   0.063 min)   0.1 %
SCF iterations                  ...     1704.240 sec (=  28.404 min)  34.9 %
MP2 module                      ...     3175.011 sec (=  52.917 min)  65.0 %
                             ****ORCA TERMINATED NORMALLY****
TOTAL RUN TIME: 0 days 1 hours 21 minutes 26 seconds 680 msec
# of primitive gaussian functions

