
                                 *****************
                                 * O   R   C   A *
                                 *****************

                                            #,                                       
                                            ###                                      
                                            ####                                     
                                            #####                                    
                                            ######                                   
                                           ########,                                 
                                     ,,################,,,,,                         
                               ,,#################################,,                 
                          ,,##########################################,,             
                       ,#########################################, ''#####,          
                    ,#############################################,,   '####,        
                  ,##################################################,,,,####,       
                ,###########''''           ''''###############################       
              ,#####''   ,,,,##########,,,,          '''####'''          '####       
            ,##' ,,,,###########################,,,                        '##       
           ' ,,###''''                  '''############,,,                           
         ,,##''                                '''############,,,,        ,,,,,,###''
      ,#''                                            '''#######################'''  
     '                                                          ''''####''''         
             ,#######,   #######,   ,#######,      ##                                
            ,#'     '#,  ##    ##  ,#'     '#,    #''#        ######   ,####,        
            ##       ##  ##   ,#'  ##            #'  '#       #        #'  '#        
            ##       ##  #######   ##           ,######,      #####,   #    #        
            '#,     ,#'  ##    ##  '#,     ,#' ,#      #,         ##   #,  ,#        
             '#######'   ##     ##  '#######'  #'      '#     #####' # '####'        



                  #######################################################
                  #                        -***-                        #
                  #          Department of theory and spectroscopy      #
                  #    Directorship and core code : Frank Neese         #
                  #        Max Planck Institute fuer Kohlenforschung    #
                  #                Kaiser Wilhelm Platz 1               #
                  #                 D-45470 Muelheim/Ruhr               #
                  #                      Germany                        #
                  #                                                     #
                  #                  All rights reserved                #
                  #                        -***-                        #
                  #######################################################


                         Program Version 5.0.4 -  RELEASE  -


 With contributions from (in alphabetic order):
   Daniel Aravena         : Magnetic Suceptibility
   Michael Atanasov       : Ab Initio Ligand Field Theory (pilot matlab implementation)
   Alexander A. Auer      : GIAO ZORA, VPT2 properties, NMR spectrum
   Ute Becker             : Parallelization
   Giovanni Bistoni       : ED, misc. LED, open-shell LED, HFLD
   Martin Brehm           : Molecular dynamics
   Dmytro Bykov           : SCF Hessian
   Vijay G. Chilkuri      : MRCI spin determinant printing, contributions to CSF-ICE
   Dipayan Datta          : RHF DLPNO-CCSD density
   Achintya Kumar Dutta   : EOM-CC, STEOM-CC
   Dmitry Ganyushin       : Spin-Orbit,Spin-Spin,Magnetic field MRCI
   Miquel Garcia          : C-PCM and meta-GGA Hessian, CC/C-PCM, Gaussian charge scheme
   Yang Guo               : DLPNO-NEVPT2, F12-NEVPT2, CIM, IAO-localization
   Andreas Hansen         : Spin unrestricted coupled pair/coupled cluster methods
   Benjamin Helmich-Paris : MC-RPA, TRAH-SCF, COSX integrals
   Lee Huntington         : MR-EOM, pCC
   Robert Izsak           : Overlap fitted RIJCOSX, COSX-SCS-MP3, EOM
   Marcus Kettner         : VPT2
   Christian Kollmar      : KDIIS, OOCD, Brueckner-CCSD(T), CCSD density, CASPT2, CASPT2-K
   Simone Kossmann        : Meta GGA functionals, TD-DFT gradient, OOMP2, MP2 Hessian
   Martin Krupicka        : Initial AUTO-CI
   Lucas Lang             : DCDCAS
   Marvin Lechner         : AUTO-CI (C++ implementation), FIC-MRCC
   Dagmar Lenk            : GEPOL surface, SMD
   Dimitrios Liakos       : Extrapolation schemes; Compound Job, initial MDCI parallelization
   Dimitrios Manganas     : Further ROCIS development; embedding schemes
   Dimitrios Pantazis     : SARC Basis sets
   Anastasios Papadopoulos: AUTO-CI, single reference methods and gradients
   Taras Petrenko         : DFT Hessian,TD-DFT gradient, ASA, ECA, R-Raman, ABS, FL, XAS/XES, NRVS
   Peter Pinski           : DLPNO-MP2, DLPNO-MP2 Gradient
   Christoph Reimann      : Effective Core Potentials
   Marius Retegan         : Local ZFS, SOC
   Christoph Riplinger    : Optimizer, TS searches, QM/MM, DLPNO-CCSD(T), (RO)-DLPNO pert. Triples
   Tobias Risthaus        : Range-separated hybrids, TD-DFT gradient, RPA, STAB
   Michael Roemelt        : Original ROCIS implementation
   Masaaki Saitow         : Open-shell DLPNO-CCSD energy and density
   Barbara Sandhoefer     : DKH picture change effects
   Avijit Sen             : IP-ROCIS
   Kantharuban Sivalingam : CASSCF convergence, NEVPT2, FIC-MRCI
   Bernardo de Souza      : ESD, SOC TD-DFT
   Georgi Stoychev        : AutoAux, RI-MP2 NMR, DLPNO-MP2 response
   Willem Van den Heuvel  : Paramagnetic NMR
   Boris Wezisla          : Elementary symmetry handling
   Frank Wennmohs         : Technical directorship


 We gratefully acknowledge several colleagues who have allowed us to
 interface, adapt or use parts of their codes:
   Stefan Grimme, W. Hujo, H. Kruse, P. Pracht,  : VdW corrections, initial TS optimization,
                  C. Bannwarth, S. Ehlert          DFT functionals, gCP, sTDA/sTD-DF
   Ed Valeev, F. Pavosevic, A. Kumar             : LibInt (2-el integral package), F12 methods
   Garnet Chan, S. Sharma, J. Yang, R. Olivares  : DMRG
   Ulf Ekstrom                                   : XCFun DFT Library
   Mihaly Kallay                                 : mrcc  (arbitrary order and MRCC methods)
   Jiri Pittner, Ondrej Demel                    : Mk-CCSD
   Frank Weinhold                                : gennbo (NPA and NBO analysis)
   Christopher J. Cramer and Donald G. Truhlar   : smd solvation model
   Lars Goerigk                                  : TD-DFT with DH, B97 family of functionals
   V. Asgeirsson, H. Jonsson                     : NEB implementation
   FAccTs GmbH                                   : IRC, NEB, NEB-TS, DLPNO-Multilevel, CI-OPT
                                                   MM, QMMM, 2- and 3-layer-ONIOM, Crystal-QMMM,
                                                   LR-CPCM, SF, NACMEs, symmetry and pop. for TD-DFT,
                                                   nearIR, NL-DFT gradient (VV10), updates on ESD,
                                                   ML-optimized integration grids
   S Lehtola, MJT Oliveira, MAL Marques          : LibXC Library
   Liviu Ungur et al                             : ANISO software


 Your calculation uses the libint2 library for the computation of 2-el integrals
 For citations please refer to: http://libint.valeyev.net

 Your ORCA version has been built with support for libXC version: 5.1.0
 For citations please refer to: https://tddft.org/programs/libxc/

 This ORCA versions uses:
   CBLAS   interface :  Fast vector & matrix operations
   LAPACKE interface :  Fast linear algebra routines
   SCALAPACK package :  Parallel linear algebra routines
   Shared memory     :  Shared parallel matrices
   BLAS/LAPACK       :  OpenBLAS 0.3.15  USE64BITINT DYNAMIC_ARCH NO_AFFINITY Sandybridge SINGLE_THREADED
        Core in use  :  Sandybridge
   Copyright (c) 2011-2014, The OpenBLAS Project


================================================================================

----- Orbital basis set information -----
Your calculation utilizes the basis: cc-pVDZ 
       H, B-Ne : Obtained from the ccRepo (grant-hill.group.shef.ac.uk/ccrepo) Feb. 2017
                 T. H. Dunning, Jr., J. Chem. Phys. 90, 1007 (1989)
            He : Obtained from the ccRepo (grant-hill.group.shef.ac.uk/ccrepo) Feb. 2017
                 D. E. Woon, T. H. Dunning, Jr., J. Chem. Phys. 100, 2975 (1994)
  Li-Be, Na-Mg : Obtained from the ccRepo (grant-hill.group.shef.ac.uk/ccrepo) Feb. 2017
                 B. P. Prascher, D. E. Woon, K. A. Peterson, T. H. Dunning, Jr., A. K. Wilson, Theor. Chem. Acc. 128, 69 (2011)
         Al-Ar : Obtained from the ccRepo (grant-hill.group.shef.ac.uk/ccrepo) Feb. 2017
                 D. E. Woon, T. H. Dunning, Jr., J. Chem. Phys. 98, 1358 (1993)
            Ca : Obtained from the Peterson Research Group Website (tyr0.chem.wsu.edu/~kipeters) Feb. 2017
                 J. Koput, K. A. Peterson, J. Phys. Chem. 106, 9595 (2002)
         Sc-Zn : Obtained from the ccRepo (grant-hill.group.shef.ac.uk/ccrepo) Feb. 2017
                 N. B. Balabanov, K. A. Peterson, J. Chem. Phys. 123, 064107 (2005)
                 N. B. Balabanov, K. A. Peterson, J. Chem. Phys. 125, 074110 (2006)
         Ga-Kr : Obtained from the ccRepo (grant-hill.group.shef.ac.uk/ccrepo) Feb. 2017
                 A. K. Wilson, D. E. Woon, K. A. Peterson, T. H. Dunning, Jr., J. Chem. Phys. 110, 7667 (1999)

================================================================================
                                        WARNINGS
                       Please study these warnings very carefully!
================================================================================


WARNING: No MP2 level density has been requested!
         To caclulate MP2 level properties use
         %mp2 Density relaxed end
         or
         %mp2 Density unrelaxed end

WARNING: Post HF methods need fully converged wavefunctions
  ===> : Setting SCFConvForced true
         You can overwrite this default with %scf ConvForced false 


INFO   : the flag for use of the SHARK integral package has been found!

================================================================================
                                       INPUT FILE
================================================================================
NAME = /scratch/allen/tmpyp4_amber_gaff2/2.Mdgx/conf11/conf11/Conf16.orca
|  1> ! PAL2
|  2> ! mp2 cc-pvdz TightSCF  NoKeepInts
|  3> 
|  4> %scf
|  5>   MaxCore 2000
|  6> end
|  7> %mp2
|  8>   MaxCore 2000
|  9> end
| 10> * xyz 0 1
| 11>    C       -3.06100         6.48200        -0.17600
| 12>    C        1.47400         4.04100         0.05700
| 13>    C       -2.80200         4.09300         0.04900
| 14>    C       -4.17200         4.02400         0.34700
| 15>    C       -4.93500         5.17500         0.37100
| 16>    C       -5.23000         7.59000         0.11100
| 17>    C        0.13200         4.30700         0.06100
| 18>    C       -0.56900         3.05600         0.04700
| 19>    C        1.64900         2.61800         0.02300
| 20>    C       -2.25700         5.35900        -0.21800
| 21>    N       -4.37700         6.38100         0.11500
| 22>    N        0.38800         2.06700         0.02500
| 23>    N       -2.01000         0.39500        -0.07500
| 24>    N       -0.38800        -2.07400        -0.02700
| 25>    N        2.01000        -0.40100         0.06500
| 26>    C       -1.96000         2.86100         0.02400
| 27>    C       -2.62300         1.61500        -0.01800
| 28>    C       -5.57300        -4.32900         1.06600
| 29>    C       -4.07300         1.47100         0.05600
| 30>    C       -4.10600        -2.75600        -0.02600
| 31>    C       -4.99500        -2.75700        -1.11100
| 32>    C       -6.13200        -3.54200        -1.07600
| 33>    C       -7.65100        -5.11300         0.04000
| 34>    C       -4.32400         0.14100         0.03700
| 35>    C       -3.02500        -0.52000        -0.04800
| 36>    C       -4.42200        -3.56600         1.07500
| 37>    N       -6.40700        -4.31300         0.00100
| 38>    C       -2.86700        -1.92200        -0.04000
| 39>    C       -1.65000        -2.62400        -0.02700
| 40>    C        3.56800        -6.14200        -1.04000
| 41>    C       -1.47600        -4.04900        -0.03400
| 42>    C        2.80300        -4.09900        -0.00800
| 43>    C        3.65700        -4.38400         1.06900
| 44>    C        4.42700        -5.53000         1.05900
| 45>    C        5.24500        -7.58800         0.01400
| 46>    C       -0.13400        -4.31500        -0.02200
| 47>    C        0.56800        -3.06400        -0.02700
| 48>    C        2.77500        -5.01200        -1.07400
| 49>    N        4.37600        -6.39100         0.01700
| 50>    C        1.95900        -2.86900        -0.00900
| 51>    C        2.62100        -1.62200         0.00900
| 52>    C        5.54300         4.33900        -1.13000
| 53>    C        4.07000        -1.47900        -0.09400
| 54>    C        4.10400         2.75100        -0.02100
| 55>    C        5.02700         2.72900         1.03600
| 56>    C        6.16600         3.50900         0.97800
| 57>    C        7.61900         5.15300        -0.11500
| 58>    C        4.32100        -0.14800        -0.09200
| 59>    C        3.02500         0.51400         0.01500
| 60>    C        4.38700         3.58200        -1.11500
| 61>    C        2.86600         1.91600         0.01300
| 62>    N        6.41300         4.29600        -0.09500
| 63>    H       -2.68100         7.47900        -0.36300
| 64>    H        2.27400         4.76600         0.08100
| 65>    H       -4.65200         3.07500         0.55300
| 66>    H       -5.99500         5.17100         0.58700
| 67>    H       -5.68000         7.70500        -0.87800
| 68>    H       -6.00700         7.47400         0.86600
| 69>    H       -4.61100         8.45700         0.34300
| 70>    H       -0.33200         5.28200         0.06900
| 71>    H       -1.20400         5.47900        -0.44100
| 72>    H        0.18200         1.07200         0.00500
| 73>    H       -0.18300        -1.08000        -0.02100
| 74>    H       -5.86400        -4.96200         1.89500
| 75>    H       -4.79400         2.27200         0.13900
| 76>    H       -4.80000        -2.16000        -1.99400
| 77>    H       -6.84100        -3.58200        -1.89300
| 78>    H       -8.42800        -4.53600         0.54600
| 79>    H       -7.95600        -5.33700        -0.98100
| 80>    H       -7.45600        -6.03700         0.58400
| 81>    H       -5.28700        -0.34400         0.10000
| 82>    H       -3.78000        -3.60100         1.94700
| 83>    H        3.58700        -6.86800        -1.84300
| 84>    H       -2.27600        -4.77400        -0.05000
| 85>    H        3.71400        -3.72400         1.92600
| 86>    H        5.09200        -5.79500         1.87100
| 87>    H        6.20500        -7.32900        -0.43900
| 88>    H        5.39300        -7.91700         1.04200
| 89>    H        4.75900        -8.37300        -0.56400
| 90>    H        0.32900        -5.29000        -0.00800
| 91>    H        2.14600        -4.84200        -1.94000
| 92>    H        5.80800         4.98600        -1.95600
| 93>    H        4.78800        -2.28100        -0.18500
| 94>    H        4.86000         2.11400         1.91200
| 95>    H        6.90100         3.53100         1.77200
| 96>    H        7.38300         6.10900         0.35600
| 97>    H        8.41400         4.65200         0.43500
| 98>    H        7.92100         5.31000        -1.15000
| 99>    H        5.28300         0.33600        -0.17900
|100>    H        3.72000         3.63200        -1.96700
|101> *
|102> 
|103>                          ****END OF INPUT****
================================================================================

                       ****************************
                       * Single Point Calculation *
                       ****************************

---------------------------------
CARTESIAN COORDINATES (ANGSTROEM)
---------------------------------
  C     -3.061000    6.482000   -0.176000
  C      1.474000    4.041000    0.057000
  C     -2.802000    4.093000    0.049000
  C     -4.172000    4.024000    0.347000
  C     -4.935000    5.175000    0.371000
  C     -5.230000    7.590000    0.111000
  C      0.132000    4.307000    0.061000
  C     -0.569000    3.056000    0.047000
  C      1.649000    2.618000    0.023000
  C     -2.257000    5.359000   -0.218000
  N     -4.377000    6.381000    0.115000
  N      0.388000    2.067000    0.025000
  N     -2.010000    0.395000   -0.075000
  N     -0.388000   -2.074000   -0.027000
  N      2.010000   -0.401000    0.065000
  C     -1.960000    2.861000    0.024000
  C     -2.623000    1.615000   -0.018000
  C     -5.573000   -4.329000    1.066000
  C     -4.073000    1.471000    0.056000
  C     -4.106000   -2.756000   -0.026000
  C     -4.995000   -2.757000   -1.111000
  C     -6.132000   -3.542000   -1.076000
  C     -7.651000   -5.113000    0.040000
  C     -4.324000    0.141000    0.037000
  C     -3.025000   -0.520000   -0.048000
  C     -4.422000   -3.566000    1.075000
  N     -6.407000   -4.313000    0.001000
  C     -2.867000   -1.922000   -0.040000
  C     -1.650000   -2.624000   -0.027000
  C      3.568000   -6.142000   -1.040000
  C     -1.476000   -4.049000   -0.034000
  C      2.803000   -4.099000   -0.008000
  C      3.657000   -4.384000    1.069000
  C      4.427000   -5.530000    1.059000
  C      5.245000   -7.588000    0.014000
  C     -0.134000   -4.315000   -0.022000
  C      0.568000   -3.064000   -0.027000
  C      2.775000   -5.012000   -1.074000
  N      4.376000   -6.391000    0.017000
  C      1.959000   -2.869000   -0.009000
  C      2.621000   -1.622000    0.009000
  C      5.543000    4.339000   -1.130000
  C      4.070000   -1.479000   -0.094000
  C      4.104000    2.751000   -0.021000
  C      5.027000    2.729000    1.036000
  C      6.166000    3.509000    0.978000
  C      7.619000    5.153000   -0.115000
  C      4.321000   -0.148000   -0.092000
  C      3.025000    0.514000    0.015000
  C      4.387000    3.582000   -1.115000
  C      2.866000    1.916000    0.013000
  N      6.413000    4.296000   -0.095000
  H     -2.681000    7.479000   -0.363000
  H      2.274000    4.766000    0.081000
  H     -4.652000    3.075000    0.553000
  H     -5.995000    5.171000    0.587000
  H     -5.680000    7.705000   -0.878000
  H     -6.007000    7.474000    0.866000
  H     -4.611000    8.457000    0.343000
  H     -0.332000    5.282000    0.069000
  H     -1.204000    5.479000   -0.441000
  H      0.182000    1.072000    0.005000
  H     -0.183000   -1.080000   -0.021000
  H     -5.864000   -4.962000    1.895000
  H     -4.794000    2.272000    0.139000
  H     -4.800000   -2.160000   -1.994000
  H     -6.841000   -3.582000   -1.893000
  H     -8.428000   -4.536000    0.546000
  H     -7.956000   -5.337000   -0.981000
  H     -7.456000   -6.037000    0.584000
  H     -5.287000   -0.344000    0.100000
  H     -3.780000   -3.601000    1.947000
  H      3.587000   -6.868000   -1.843000
  H     -2.276000   -4.774000   -0.050000
  H      3.714000   -3.724000    1.926000
  H      5.092000   -5.795000    1.871000
  H      6.205000   -7.329000   -0.439000
  H      5.393000   -7.917000    1.042000
  H      4.759000   -8.373000   -0.564000
  H      0.329000   -5.290000   -0.008000
  H      2.146000   -4.842000   -1.940000
  H      5.808000    4.986000   -1.956000
  H      4.788000   -2.281000   -0.185000
  H      4.860000    2.114000    1.912000
  H      6.901000    3.531000    1.772000
  H      7.383000    6.109000    0.356000
  H      8.414000    4.652000    0.435000
  H      7.921000    5.310000   -1.150000
  H      5.283000    0.336000   -0.179000
  H      3.720000    3.632000   -1.967000

----------------------------
CARTESIAN COORDINATES (A.U.)
----------------------------
  NO LB      ZA    FRAG     MASS         X           Y           Z
   0 C     6.0000    0    12.011   -5.784452   12.249205   -0.332592
   1 C     6.0000    0    12.011    2.785456    7.636383    0.107714
   2 C     6.0000    0    12.011   -5.295013    7.734649    0.092597
   3 C     6.0000    0    12.011   -7.883937    7.604258    0.655735
   4 C     6.0000    0    12.011   -9.325798    9.779333    0.701088
   5 C     6.0000    0    12.011   -9.883268   14.343021    0.209760
   6 C     6.0000    0    12.011    0.249444    8.139050    0.115273
   7 C     6.0000    0    12.011   -1.075254    5.775003    0.088817
   8 C     6.0000    0    12.011    3.116158    4.947303    0.043464
   9 C     6.0000    0    12.011   -4.265112   10.127042   -0.411960
  10 N     7.0000    0    14.007   -8.271331   12.058342    0.217319
  11 N     7.0000    0    14.007    0.733214    3.906064    0.047243
  12 N     7.0000    0    14.007   -3.798350    0.746442   -0.141729
  13 N     7.0000    0    14.007   -0.733214   -3.919292   -0.051023
  14 N     7.0000    0    14.007    3.798350   -0.757780    0.122832
  15 C     6.0000    0    12.011   -3.703863    5.406506    0.045353
  16 C     6.0000    0    12.011   -4.956752    3.051908   -0.034015
  17 C     6.0000    0    12.011  -10.531444   -8.180624    2.014448
  18 C     6.0000    0    12.011   -7.696855    2.779787    0.105825
  19 C     6.0000    0    12.011   -7.759216   -5.208085   -0.049133
  20 C     6.0000    0    12.011   -9.439182   -5.209975   -2.099486
  21 C     6.0000    0    12.011  -11.587801   -6.693410   -2.033345
  22 C     6.0000    0    12.011  -14.458295   -9.662170    0.075589
  23 C     6.0000    0    12.011   -8.171176    0.266451    0.069920
  24 C     6.0000    0    12.011   -5.716422   -0.982658   -0.090707
  25 C     6.0000    0    12.011   -8.356369   -6.738763    2.031456
  26 N     7.0000    0    14.007  -12.107475   -8.150389    0.001890
  27 C     6.0000    0    12.011   -5.417845   -3.632054   -0.075589
  28 C     6.0000    0    12.011   -3.118048   -4.958641   -0.051023
  29 C     6.0000    0    12.011    6.742543  -11.606698   -1.965315
  30 C     6.0000    0    12.011   -2.789236   -7.651501   -0.064251
  31 C     6.0000    0    12.011    5.296902   -7.745987   -0.015118
  32 C     6.0000    0    12.011    6.910728   -8.284559    2.020117
  33 C     6.0000    0    12.011    8.365818  -10.450186    2.001220
  34 C     6.0000    0    12.011    9.911614  -14.339242    0.026456
  35 C     6.0000    0    12.011   -0.253223   -8.154168   -0.041574
  36 C     6.0000    0    12.011    1.073364   -5.790121   -0.051023
  37 C     6.0000    0    12.011    5.243990   -9.471307   -2.029566
  38 N     7.0000    0    14.007    8.269442  -12.077240    0.032125
  39 C     6.0000    0    12.011    3.701973   -5.421624   -0.017008
  40 C     6.0000    0    12.011    4.952972   -3.065136    0.017008
  41 C     6.0000    0    12.011   10.474752    8.199522   -2.135391
  42 C     6.0000    0    12.011    7.691185   -2.794905   -0.177634
  43 C     6.0000    0    12.011    7.755436    5.198637   -0.039684
  44 C     6.0000    0    12.011    9.499653    5.157063    1.957756
  45 C     6.0000    0    12.011   11.652051    6.631049    1.848152
  46 C     6.0000    0    12.011   14.397823    9.737759   -0.217319
  47 C     6.0000    0    12.011    8.165507   -0.279679   -0.173855
  48 C     6.0000    0    12.011    5.716422    0.971319    0.028346
  49 C     6.0000    0    12.011    8.290229    6.768999   -2.107045
  50 C     6.0000    0    12.011    5.415955    3.620715    0.024566
  51 N     7.0000    0    14.007   12.118814    8.118263   -0.179524
  52 H     1.0000    0     1.008   -5.066356   14.133262   -0.685971
  53 H     1.0000    0     1.008    4.297237    9.006435    0.153068
  54 H     1.0000    0     1.008   -8.791006    5.810908    1.045019
  55 H     1.0000    0     1.008  -11.328908    9.771774    1.109269
  56 H     1.0000    0     1.008  -10.733644   14.560340   -1.659180
  57 H     1.0000    0     1.008  -11.351585   14.123813    1.636503
  58 H     1.0000    0     1.008   -8.713527   15.981414    0.648176
  59 H     1.0000    0     1.008   -0.627389    9.981533    0.130391
  60 H     1.0000    0     1.008   -2.275230   10.353809   -0.833369
  61 H     1.0000    0     1.008    0.343930    2.025786    0.009449
  62 H     1.0000    0     1.008   -0.345820   -2.040904   -0.039684
  63 H     1.0000    0     1.008  -11.081354   -9.376821    3.581031
  64 H     1.0000    0     1.008   -9.059347    4.293458    0.262672
  65 H     1.0000    0     1.008   -9.070685   -4.081808   -3.768114
  66 H     1.0000    0     1.008  -12.927616   -6.768999   -3.577252
  67 H     1.0000    0     1.008  -15.926612   -8.571798    1.031790
  68 H     1.0000    0     1.008  -15.034661  -10.085468   -1.853821
  69 H     1.0000    0     1.008  -14.089798  -11.408277    1.103600
  70 H     1.0000    0     1.008   -9.990982   -0.650066    0.188973
  71 H     1.0000    0     1.008   -7.143165   -6.804904    3.679297
  72 H     1.0000    0     1.008    6.778448  -12.978639   -3.482765
  73 H     1.0000    0     1.008   -4.301017   -9.021553   -0.094486
  74 H     1.0000    0     1.008    7.018443   -7.037340    3.639613
  75 H     1.0000    0     1.008    9.622485  -10.950963    3.535678
  76 H     1.0000    0     1.008   11.725751  -13.849803   -0.829590
  77 H     1.0000    0     1.008   10.191293  -14.960962    1.969095
  78 H     1.0000    0     1.008    8.993207  -15.822677   -1.065806
  79 H     1.0000    0     1.008    0.621720   -9.996651   -0.015118
  80 H     1.0000    0     1.008    4.055352   -9.150054   -3.666069
  81 H     1.0000    0     1.008   10.975529    9.422175   -3.696304
  82 H     1.0000    0     1.008    9.048009   -4.310465   -0.349599
  83 H     1.0000    0     1.008    9.184069    3.994881    3.613156
  84 H     1.0000    0     1.008   13.041000    6.672623    3.348595
  85 H     1.0000    0     1.008   13.951848   11.544337    0.672743
  86 H     1.0000    0     1.008   15.900156    8.791006    0.822031
  87 H     1.0000    0     1.008   14.968521   10.034446   -2.173185
  88 H     1.0000    0     1.008    9.983423    0.634948   -0.338261
  89 H     1.0000    0     1.008    7.029781    6.863485   -3.717091

--------------------------------
INTERNAL COORDINATES (ANGSTROEM)
--------------------------------
 C      0   0   0     0.000000000000     0.00000000     0.00000000
 C      1   0   0     5.155482033719     0.00000000     0.00000000
 C      1   2   0     2.413509270751    55.43931320     0.00000000
 C      3   1   2     1.403732524379    87.92042622   168.01856338
 C      4   3   1     1.381139384711   120.12524421     0.12380593
 C      5   4   3     2.446804037924   152.53547670     1.68506007
 C      2   1   3     1.368114030335    17.29612677   355.78807572
 C      7   2   1     1.434084376876   108.05010202   170.06884481
 C      2   1   3     1.434123425651   125.17475355     8.20491567
 C      1   2   3     1.381777478467    26.45802076   346.12726941
 N      1   2   3     1.351568718194   144.23139889    20.85209475
 N      9   2   1     1.376127174356   106.58526707   355.37842056
 N     12   9   2     2.925062050624   168.53581413   171.12065651
 N     13  12   9     2.954513327098    91.55032014    11.12112580
 N     14  13  12     2.925371258490    88.43092389   359.84326247
 C      8   7   2     1.404790019896   127.24786865   181.11170171
 C     13  12   9     1.366535034311    81.72106996   188.00453233
 C     14  13  12     5.758810554272    80.56209567   166.76250791
 C     17  13  12     1.459010623676   111.08861209   183.82872609
 C     18  14  13     2.412235892279    27.27532823    36.33507194
 C     20  18  14     1.402692767501    87.95206320   148.94598259
 C     21  20  18     1.382106725257   120.14573887   359.70382047
 C     18  14  13     2.446510985056   144.15733107    82.80075377
 C     19  17  13     1.353610726908   106.29293361   359.75308708
 C     13  12   9     1.366813447402   172.21332906    33.46711076
 C     18  14  13     1.380960173213    15.08449437   309.23336894
 N     22  21  20     1.352773077792   120.73759875     0.27865223
 C     25  13  17     1.410897586645   125.60330303   182.37774668
 C     14  13  12     1.376642291955    80.24689249   177.85461986
 C     14  13  12     5.764089607215   164.51507311   312.20821879
 C     29  14  13     1.435600919476   106.58649366   178.76395472
 C     30  14  13     2.413316804732    27.10625047    82.12560436
 C     32  30  14     1.403734305344    87.90059683   149.76154742
 C     33  32  30     1.380694028378   120.14881443   359.74174632
 C     34  33  32     2.448777858443   152.49203239     2.45173620
 C     31  29  14     1.368160809262   108.16950133     0.70383075
 C     14  13  12     1.376239804685   169.26375223   353.09862627
 C     30  14  13     1.380907310430    14.68948582   353.70041132
 N     34  33  32     1.352658863128   120.85575621     0.19603406
 C     37  14  29     1.404717053360   126.01551127   180.90772073
 C     15  14  13     1.366491126938    81.61824056   183.09049352
 C      2   1   3     4.249062720177   142.80072803   153.23680449
 C     41  15  14     1.459677704153   111.05201287   175.08990246
 C     42   2   1     2.412953791518    41.78584867   184.33482585
 C     44  42   2     1.403446472082    87.95153797   233.97558675
 C     45  44  42     1.381696421071   120.11137308     0.19721020
 C     42   2   1     2.450019795838   135.97209175    94.64967495
 C     43  41  15     1.354461516618   106.26758155     0.30894352
 C     15  14  13     1.367461151185   171.87382904   332.35056460
 C     42   2   1     1.381886391857    32.59078432   233.19010504
 C      9   2   1     1.404988612053   126.98745415   176.38275809
 N     42   2   1     1.352765315936   113.57249190   122.38626414
 H      1   2   3     1.083225738247    97.75896819   184.97317515
 H      2   1   3     1.079907866440   109.55913378   185.14420796
 H      4   3   1     1.083252971378   121.05731396   179.59623124
 H      5   4   3     1.081791107377   122.79960908   179.46884544
 H      6   5   4     1.092632600649   104.46092401   100.04979513
 H      6   5   4     1.089591666635    84.67920581   209.53178257
 H      6   5   4     1.090263270958   133.93337245   322.32121625
 H      7   2   1     1.079807853278   126.66122480   350.30725859
 H     60   7   2     1.029219607275   122.22351622   143.91988721
 H     12   9   2     1.016297692608   125.29023241   180.00180175
 H     14  13  12     1.014936943854    44.97226959   359.42596618
 H     18  14  13     1.082871645210   128.03556573   234.20482432
 H     55   4   3     0.914532120814   138.75860840   300.81854869
 H     21  20  18     1.083569563987   121.05669627   180.67006309
 H     22  21  20     1.082483256222   122.73097286   180.59748951
 H     23  18  14     1.092105306278   103.92715769   234.93429879
 H     23  18  14     1.088871893291   134.19244188    12.25587044
 H     23  18  14     1.089833473518    84.85857450   125.45241208
 H     24  19  17     1.080075460327   127.28078426   178.44613241
 H     26  18  14     1.083408048706   118.76995697   244.94906660
 H     30  14  13     1.082703098730   127.99711412   279.66882698
 H     31  29  14     1.079759695488   125.22293469   180.92530585
 H     33  32  30     1.083188810873   121.01964473   180.74284758
 H     34  33  32     1.082494341787   122.70821597   180.59516895
 H     35  34  33     1.092652735319   105.73575241    97.19771933
 H     35  34  33     1.089462711615    84.05943581   206.43036958
 H     35  34  33     1.089268102902   133.08365142   318.50306270
 H     36  31  29     1.079439669458   126.61599965   178.98859863
 H     38  30  73     1.083742127999   118.77264435   359.90091293
 H     42   2   1     1.082178358682   119.31790784   339.01779460
 H     43  41  15     1.080281907652   126.36969097   182.06329380
 H     45  44  42     1.083277434455   121.10105945   179.58025624
 H     46  45  44     1.082194529648   122.72144639   179.46906377
 H     47  42   2     1.091546151109   106.65128841   315.16475048
 H     47  42   2     1.088818625851   132.46019523    94.52397119
 H     47  42   2     1.089531091801    83.63838232   206.04504406
 H     48  43  41     1.080402239909   127.23657387   181.62955349
 H     50  42   2     1.083186502870   118.77001737    94.71359229

---------------------------
INTERNAL COORDINATES (A.U.)
---------------------------
 C      0   0   0     0.000000000000     0.00000000     0.00000000
 C      1   0   0     9.742449132080     0.00000000     0.00000000
 C      1   2   0     4.560871543399    55.43931320     0.00000000
 C      3   1   2     2.652670036355    87.92042622   168.01856338
 C      4   3   1     2.609975189876   120.12524421     0.12380593
 C      5   4   3     4.623789535049   152.53547670     1.68506007
 C      2   1   3     2.585360837309    17.29612677   355.78807572
 C      7   2   1     2.710026725231   108.05010202   170.06884481
 C      2   1   3     2.710100516721   125.17475355     8.20491567
 C      1   2   3     2.611181012324    26.45802076   346.12726941
 N      1   2   3     2.554094728561   144.23139889    20.85209475
 N      9   2   1     2.600503484979   106.58526707   355.37842056
 N     12   9   2     5.527566200405   168.53581413   171.12065651
 N     13  12   9     5.583221047236    91.55032014    11.12112580
 N     14  13  12     5.528150518591    88.43092389   359.84326247
 C      8   7   2     2.654668413270   127.24786865   181.11170171
 C     13  12   9     2.582376967257    81.72106996   188.00453233
 C     14  13  12    10.882574804710    80.56209567   166.76250791
 C     17  13  12     2.757130505230   111.08861209   183.82872609
 C     18  14  13     4.558465206823    27.27532823    36.33507194
 C     20  18  14     2.650705180609    87.95206320   148.94598259
 C     21  20  18     2.611803198586   120.14573887   359.70382047
 C     18  14  13     4.623235745386   144.15733107    82.80075377
 C     19  17  13     2.557953565794   106.29293361   359.75308708
 C     13  12   9     2.582903091751   172.21332906    33.46711076
 C     18  14  13     2.609636529225    15.08449437   309.23336894
 N     22  21  20     2.556370638369   120.73759875     0.27865223
 C     25  13  17     2.666210041769   125.60330303   182.37774668
 C     14  13  12     2.601476916169    80.24689249   177.85461986
 C     14  13  12    10.892550769017   164.51507311   312.20821879
 C     29  14  13     2.712892575415   106.58649366   178.76395472
 C     30  14  13     4.560507835333    27.10625047    82.12560436
 C     32  30  14     2.652673401891    87.90059683   149.76154742
 C     33  32  30     2.609133588376   120.14881443   359.74174632
 C     34  33  32     4.627519515267   152.49203239     2.45173620
 C     31  29  14     2.585449236669   108.16950133     0.70383075
 C     14  13  12     2.600716325456   169.26375223   353.09862627
 C     30  14  13     2.609536633043    14.68948582   353.70041132
 N     34  33  32     2.556154803934   120.85575621     0.19603406
 C     37  14  29     2.654530526499   126.01551127   180.90772073
 C     15  14  13     2.582293994346    81.61824056   183.09049352
 C      2   1   3     8.029564866989   142.80072803   153.23680449
 C     41  15  14     2.758391104639   111.05201287   175.08990246
 C     42   2   1     4.559821839776    41.78584867   184.33482585
 C     44  42   2     2.652129475853    87.95153797   233.97558675
 C     45  44  42     2.611027836043   120.11137308     0.19721020
 C     42   2   1     4.629866436820   135.97209175    94.64967495
 C     43  41  15     2.559561325344   106.26758155     0.30894352
 C     15  14  13     2.584127074516   171.87382904   332.35056460
 C     42   2   1     2.611386828803    32.59078432   233.19010504
 C      9   2   1     2.655043698059   126.98745415   176.38275809
 N     42   2   1     2.556355970587   113.57249190   122.38626414
 H      1   2   3     2.046999986501    97.75896819   184.97317515
 H      2   1   3     2.040730117440   109.55913378   185.14420796
 H      4   3   1     2.047051449661   121.05731396   179.59623124
 H      5   4   3     2.044288927054   122.79960908   179.46884544
 H      6   5   4     2.064776380220   104.46092401   100.04979513
 H      6   5   4     2.059029847743    84.67920581   209.53178257
 H      6   5   4     2.060298995984   133.93337245   322.32121625
 H      7   2   1     2.040541119952   126.66122480   350.30725859
 H     60   7   2     1.944943189412   122.22351622   143.91988721
 H     12   9   2     1.920524309565   125.29023241   180.00180175
 H     14  13  12     1.917952867083    44.97226959   359.42596618
 H     18  14  13     2.046330847636   128.03556573   234.20482432
 H     55   4   3     1.728215249012   138.75860840   300.81854869
 H     21  20  18     2.047649722989   121.05669627   180.67006309
 H     22  21  20     2.045596898814   122.73097286   180.59748951
 H     23  18  14     2.063779938267   103.92715769   234.93429879
 H     23  18  14     2.057669673245   134.19244188    12.25587044
 H     23  18  14     2.059486796529    84.85857450   125.45241208
 H     24  19  17     2.041046823986   127.28078426   178.44613241
 H     26  18  14     2.047344503340   118.76995697   244.94906660
 H     30  14  13     2.046012340948   127.99711412   279.66882698
 H     31  29  14     2.040450114918   125.22293469   180.92530585
 H     33  32  30     2.046930203877   121.01964473   180.74284758
 H     34  33  32     2.045617847496   122.70821597   180.59516895
 H     35  34  33     2.064814429233   105.73575241    97.19771933
 H     35  34  33     2.058786158072    84.05943581   206.43036958
 H     35  34  33     2.058418400901   133.08365142   318.50306270
 H     36  31  29     2.039845353366   126.61599965   178.98859863
 H     38  30  73     2.047975821711   118.77264435   359.90091293
 H     42   2   1     2.045020725966   119.31790784   339.01779460
 H     43  41  15     2.041436952892   126.36969097   182.06329380
 H     45  44  42     2.047097678177   121.10105945   179.58025624
 H     46  45  44     2.045051284662   122.72144639   179.46906377
 H     47  42   2     2.062723288131   106.65128841   315.16475048
 H     47  42   2     2.057569012371   132.46019523    94.52397119
 H     47  42   2     2.058915377895    83.63838232   206.04504406
 H     48  43  41     2.041664347903   127.23657387   181.62955349
 H     50  42   2     2.046925842384   118.77001737    94.71359229

---------------------
BASIS SET INFORMATION
---------------------
There are 3 groups of distinct atoms

 Group   1 Type C   : 17s4p1d contracted to 3s2p1d pattern {881/31/1}
 Group   2 Type N   : 17s4p1d contracted to 3s2p1d pattern {881/31/1}
 Group   3 Type H   : 4s1p contracted to 2s1p pattern {31/1}

Atom   0C    basis set group =>   1
Atom   1N    basis set group =>   2
Atom   2C    basis set group =>   1
Atom   3N    basis set group =>   2
Atom   4C    basis set group =>   1
Atom   5N    basis set group =>   2
Atom   6C    basis set group =>   1
Atom   7N    basis set group =>   2
Atom   8C    basis set group =>   1
Atom   9N    basis set group =>   2
Atom  10C    basis set group =>   1
Atom  11N    basis set group =>   2
Atom  12C    basis set group =>   1
Atom  13N    basis set group =>   2
Atom  14C    basis set group =>   1
Atom  15N    basis set group =>   2
Atom  16C    basis set group =>   1
Atom  17C    basis set group =>   1
Atom  18C    basis set group =>   1
Atom  19C    basis set group =>   1
Atom  20C    basis set group =>   1
Atom  21C    basis set group =>   1
Atom  22C    basis set group =>   1
Atom  23C    basis set group =>   1
Atom  24C    basis set group =>   1
Atom  25C    basis set group =>   1
Atom  26C    basis set group =>   1
Atom  27C    basis set group =>   1
Atom  28C    basis set group =>   1
Atom  29C    basis set group =>   1
Atom  30C    basis set group =>   1
Atom  31C    basis set group =>   1
Atom  32C    basis set group =>   1
Atom  33C    basis set group =>   1
Atom  34C    basis set group =>   1
Atom  35C    basis set group =>   1
Atom  36C    basis set group =>   1
Atom  37C    basis set group =>   1
Atom  38C    basis set group =>   1
Atom  39C    basis set group =>   1
Atom  40C    basis set group =>   1
Atom  41C    basis set group =>   1
Atom  42C    basis set group =>   1
Atom  43C    basis set group =>   1
Atom  44C    basis set group =>   1
Atom  45C    basis set group =>   1
Atom  46C    basis set group =>   1
Atom  47C    basis set group =>   1
Atom  48C    basis set group =>   1
Atom  49C    basis set group =>   1
Atom  50C    basis set group =>   1
Atom  51C    basis set group =>   1
Atom  52H    basis set group =>   3
Atom  53H    basis set group =>   3
Atom  54H    basis set group =>   3
Atom  55H    basis set group =>   3
Atom  56H    basis set group =>   3
Atom  57H    basis set group =>   3
Atom  58H    basis set group =>   3
Atom  59H    basis set group =>   3
Atom  60H    basis set group =>   3
Atom  61H    basis set group =>   3
Atom  62H    basis set group =>   3
Atom  63H    basis set group =>   3
Atom  64H    basis set group =>   3
Atom  65H    basis set group =>   3
Atom  66H    basis set group =>   3
Atom  67H    basis set group =>   3
Atom  68H    basis set group =>   3
Atom  69H    basis set group =>   3
Atom  70H    basis set group =>   3
Atom  71H    basis set group =>   3
Atom  72H    basis set group =>   3
Atom  73H    basis set group =>   3
Atom  74H    basis set group =>   3
Atom  75H    basis set group =>   3
Atom  76H    basis set group =>   3
Atom  77H    basis set group =>   3
Atom  78H    basis set group =>   3
Atom  79H    basis set group =>   3
Atom  80H    basis set group =>   3
Atom  81H    basis set group =>   3
Atom  82H    basis set group =>   3
Atom  83H    basis set group =>   3
Atom  84H    basis set group =>   3
Atom  85H    basis set group =>   3
Atom  86H    basis set group =>   3
Atom  87H    basis set group =>   3
Atom  88H    basis set group =>   3
Atom  89H    basis set group =>   3


           ************************************************************
           *        Program running with 16 parallel MPI-processes    *
           *              working on a common directory               *
           ************************************************************
------------------------------------------------------------------------------
                           ORCA GTO INTEGRAL CALCULATION
------------------------------------------------------------------------------
------------------------------------------------------------------------------
                   ___                                                        
                  /   \      - P O W E R E D   B Y -                         
                 /     \                                                     
                 |  |  |   _    _      __       _____    __    __             
                 |  |  |  | |  | |    /  \     |  _  \  |  |  /  |          
                  \  \/   | |  | |   /    \    | | | |  |  | /  /          
                 / \  \   | |__| |  /  /\  \   | |_| |  |  |/  /          
                |  |  |   |  __  | /  /__\  \  |    /   |      \           
                |  |  |   | |  | | |   __   |  |    \   |  |\   \          
                \     /   | |  | | |  |  |  |  | |\  \  |  | \   \       
                 \___/    |_|  |_| |__|  |__|  |_| \__\ |__|  \__/        
                                                                              
                      - O R C A' S   B I G   F R I E N D -                    
                                      &                                       
                       - I N T E G R A L  F E E D E R -                       
                                                                              
 v1 FN, 2020, v2 2021                                                         
------------------------------------------------------------------------------


Reading SHARK input file /scratch/allen/tmpyp4_amber_gaff2/conf1/conf1/Conf16.orca.SHARKINP.tmp ... ok
----------------------
SHARK INTEGRAL PACKAGE
----------------------

Number of atoms                             ...     90
Number of basis functions                   ...   1230
Number of shells                            ...    738
Maximum angular momentum                    ...      2
Integral batch strategy                     ... SHARK/LIBINT Hybrid
RI-J (if used) integral strategy            ... SPLIT-RIJ (Revised 2003 algorithm where possible)
Printlevel                                  ...      1
Contraction scheme used                     ... PARTIAL GENERAL contraction
Coulomb Range Separation                    ... NOT USED
Exchange Range Separation                   ... NOT USED
Finite Nucleus Model                        ... NOT USED
Auxiliary Coulomb fitting basis             ... NOT available
Auxiliary J/K fitting basis                 ... NOT available
Auxiliary Correlation fitting basis         ... NOT available
Auxiliary 'external' fitting basis          ... NOT available
Integral threshold                          ...     2.500000e-11
Primitive cut-off                           ...     2.500000e-12
Primitive pair pre-selection threshold      ...     2.500000e-12

Calculating pre-screening integrals         ... done (  0.1 sec) Dimension = 738
Calculating pre-screening integrals (ORCA)  ... done (  0.3 sec) Dimension = 426
Organizing shell pair data                  ... done (  0.5 sec)
Shell pair information
Total number of shell pairs                 ...    272691
Shell pairs after pre-screening             ...     71728
Total number of primitive shell pairs       ...    422091
Primitive shell pairs kept                  ...     92628
          la=0 lb=0:  29445 shell pairs
          la=1 lb=0:  26035 shell pairs
          la=1 lb=1:   4701 shell pairs
          la=2 lb=0:   7891 shell pairs
          la=2 lb=1:   3127 shell pairs
          la=2 lb=2:    529 shell pairs

Calculating one electron integrals          ... done (  0.2 sec)
Calculating Nuclear repulsion               ... done (  0.0 sec) ENN=   6234.791000735759 Eh

SHARK setup successfully completed in   1.7 seconds

Maximum memory used throughout the entire GTOINT-calculation: 99.1 MB


           ************************************************************
           *        Program running with 16 parallel MPI-processes    *
           *              working on a common directory               *
           ************************************************************
-------------------------------------------------------------------------------
                                 ORCA SCF
-------------------------------------------------------------------------------

------------
SCF SETTINGS
------------
Hamiltonian:
 Ab initio Hamiltonian  Method          .... Hartree-Fock(GTOs)


General Settings:
 Integral files         IntName         .... /scratch/allen/tmpyp4_amber_gaff2/conf1/conf1/Conf16.orca
 Hartree-Fock type      HFTyp           .... RHF
 Total Charge           Charge          ....    0
 Multiplicity           Mult            ....    1
 Number of Electrons    NEL             ....  358
 Basis Dimension        Dim             ....  918
 Nuclear Repulsion      ENuc            ....   6234.7910007358 Eh

Convergence Acceleration:
 DIIS                   CNVDIIS         .... on
   Start iteration      DIISMaxIt       ....    12
   Startup error        DIISStart       ....  0.200000
   # of expansion vecs  DIISMaxEq       ....     5
   Bias factor          DIISBfac        ....   1.050
   Max. coefficient     DIISMaxC        ....  10.000
 Trust-Rad. Augm. Hess. CNVTRAH         .... auto
   Auto Start mean grad. ratio tolernc. ....  1.125000
   Auto Start start iteration           ....    20
   Auto Start num. interpolation iter.  ....    10
   Max. Number of Micro iterations      ....    16
   Max. Number of Macro iterations      .... Maxiter - #DIIS iter
   Number of Davidson start vectors     ....     2
   Converg. threshold I  (grad. norm)   ....   1.000e-05
   Converg. threshold II (energy diff.) ....   1.000e-08
   Grad. Scal. Fac. for Micro threshold ....   0.100
   Minimum threshold for Micro iter.    ....   0.010
   NR start threshold (gradient norm)   ....   0.001
   Initial trust radius                 ....   0.400
   Minimum AH scaling param. (alpha)    ....   1.000
   Maximum AH scaling param. (alpha)    .... 1000.000
   Orbital update algorithm             .... Taylor
   White noise on init. David. guess    .... on
   Maximum white noise                  ....   0.010
   Quad. conv. algorithm                .... NR
 SOSCF                  CNVSOSCF        .... on
   Start iteration      SOSCFMaxIt      ....   150
   Startup grad/error   SOSCFStart      ....  0.003300
 Level Shifting         CNVShift        .... on
   Level shift para.    LevelShift      ....    0.2500
   Turn off err/grad.   ShiftErr        ....    0.0010
 Zerner damping         CNVZerner       .... off
 Static damping         CNVDamp         .... on
   Fraction old density DampFac         ....    0.7000
   Max. Damping (<1)    DampMax         ....    0.9800
   Min. Damping (>=0)   DampMin         ....    0.0000
   Turn off err/grad.   DampErr         ....    0.1000
 Fernandez-Rico         CNVRico         .... off

SCF Procedure:
 Maximum # iterations   MaxIter         ....   125
 SCF integral mode      SCFMode         .... Direct
   Integral package                     .... SHARK and LIBINT hybrid scheme
 Reset frequency        DirectResetFreq ....    20
 Integral Threshold     Thresh          ....  2.500e-11 Eh
 Primitive CutOff       TCut            ....  2.500e-12 Eh

Convergence Tolerance:
 Convergence Check Mode ConvCheckMode   .... Total+1el-Energy
 Convergence forced     ConvForced      .... 1
 Energy Change          TolE            ....  1.000e-08 Eh
 1-El. energy change                    ....  1.000e-05 Eh
 Orbital Gradient       TolG            ....  1.000e-05
 Orbital Rotation angle TolX            ....  1.000e-05
 DIIS Error             TolErr          ....  5.000e-07


Diagonalization of the overlap matrix:
Smallest eigenvalue                        ... 1.870e-04
Time for diagonalization                   ...    0.387 sec
Threshold for overlap eigenvalues          ... 1.000e-08
Number of eigenvalues below threshold      ... 0
Time for construction of square roots      ...    0.191 sec
Total time needed                          ...    0.583 sec

Time for model grid setup =    1.006 sec

------------------------------
INITIAL GUESS: MODEL POTENTIAL
------------------------------
Loading Hartree-Fock densities                     ... done
Calculating cut-offs                               ... done
Initializing the effective Hamiltonian             ... done
Setting up the integral package (SHARK)            ... done
Starting the Coulomb interaction                   ... done (   1.1 sec)
Reading the grid                                   ... done
Mapping shells                                     ... done
Starting the XC term evaluation                    ... done (   0.2 sec)
Transforming the Hamiltonian                       ... done (   0.2 sec)
Diagonalizing the Hamiltonian                      ... done (   0.3 sec)
Back transforming the eigenvectors                 ... done (   0.1 sec)
Now organizing SCF variables                       ... done
                      ------------------
                      INITIAL GUESS DONE (   2.9 sec)
                      ------------------
--------------
SCF ITERATIONS
--------------
ITER       Energy         Delta-E        Max-DP      RMS-DP      [F,P]     Damp
               ***  Starting incremental Fock matrix formation  ***
  0  -2121.6072758244   0.000000000000 0.07434554  0.00127433  0.2312887 0.7000
  1  -2122.2501196271  -0.642843802629 0.06609559  0.00104202  0.1435059 0.7000
                               ***Turning on DIIS***
  2  -2122.6511307398  -0.401011112741 0.13202155  0.00235585  0.0802988 0.0000
  3  -2118.0227626028   4.628368136991 0.08602192  0.00072286  0.0434830 0.0000
  4  -2123.3466461527  -5.323883549887 0.02461026  0.00023570  0.0092106 0.0000
  5  -2123.4796831817  -0.133037029027 0.01148505  0.00013550  0.0048428 0.0000
  6  -2123.4637707042   0.015912477545 0.00705897  0.00008664  0.0022316 0.0000
  7  -2123.5561801384  -0.092409434232 0.00429262  0.00006796  0.0016141 0.0000
  8  -2123.5629917399  -0.006811601505 0.00334824  0.00006480  0.0015122 0.0000
  9  -2123.5361916671   0.026800072812 0.00264993  0.00004611  0.0012159 0.0000
 10  -2123.5438354563  -0.007643789226 0.00531849  0.00009645  0.0009515 0.0000
                      *** Initiating the SOSCF procedure ***
                           *** Shutting down DIIS ***
                      *** Re-Reading the Fockian *** 
                      *** Removing any level shift *** 
ITER      Energy       Delta-E        Grad      Rot      Max-DP    RMS-DP
 11  -2123.43814013   0.1056953265  0.000180  0.000180  0.000245  0.000005
               *** Restarting incremental Fock matrix formation ***
 12  -2123.50386004  -0.0657199124  0.000918  0.006153  0.001471  0.000035
 13  -2123.50397188  -0.0001118328  0.001132  0.030538  0.006658  0.000138
 14  -2123.50415843  -0.0001865574  0.000382  0.001731  0.000589  0.000012
 15  -2123.50417377  -0.0000153412  0.000193  0.002473  0.000530  0.000014
 16  -2123.50418110  -0.0000073306  0.000136  0.002198  0.000471  0.000009
 17  -2123.50418391  -0.0000028047  0.000136  0.002134  0.000312  0.000008
 18  -2123.50418531  -0.0000014047  0.000062  0.001273  0.000234  0.000005
 19  -2123.50418616  -0.0000008483  0.000047  0.001747  0.000270  0.000006
 20  -2123.50418670  -0.0000005355  0.000029  0.001074  0.000155  0.000004
 21  -2123.50418696  -0.0000002621  0.000028  0.001293  0.000186  0.000004
 22  -2123.50418721  -0.0000002532  0.000026  0.001060  0.000162  0.000003
 23  -2123.50418736  -0.0000001493  0.000016  0.000427  0.000070  0.000002
 24  -2123.50418742  -0.0000000576  0.000009  0.000281  0.000057  0.000001
 25  -2123.50418745  -0.0000000325  0.000009  0.000145  0.000044  0.000001
 26  -2123.50418746  -0.0000000114  0.000006  0.000090  0.000031  0.000000
 27  -2123.50418746   0.0000000012  0.000003  0.000064  0.000022  0.000000
                  ***Gradient check signals convergence***
              ***Rediagonalizing the Fockian in SOSCF/NRSCF***

               *****************************************************
               *                     SUCCESS                       *
               *           SCF CONVERGED AFTER  28 CYCLES          *
               *****************************************************


----------------
TOTAL SCF ENERGY
----------------

Total Energy       :        -2123.50418746 Eh          -57783.48660 eV

Components:
Nuclear Repulsion  :         6234.79100074 Eh          169657.28834 eV
Electronic Energy  :        -8358.29518820 Eh         -227440.77494 eV
One Electron Energy:       -15310.09317961 Eh         -416608.81540 eV
Two Electron Energy:         6951.79799142 Eh          189168.04046 eV

Virial components:
Potential Energy   :        -4246.01715999 Eh         -115540.00086 eV
Kinetic Energy     :         2122.51297253 Eh           57756.51427 eV
Virial Ratio       :            2.00046700


---------------
SCF CONVERGENCE
---------------

  Last Energy change         ...    1.6917e-09  Tolerance :   1.0000e-08
  Last MAX-Density change    ...    9.5532e-06  Tolerance :   1.0000e-07
  Last RMS-Density change    ...    1.8313e-07  Tolerance :   5.0000e-09
  Last Orbital Gradient      ...    1.9745e-06  Tolerance :   1.0000e-05
  Last Orbital Rotation      ...    3.7299e-05  Tolerance :   1.0000e-05

             **** THE GBW FILE WAS UPDATED (/scratch/allen/tmpyp4_amber_gaff2/conf1/conf1/Conf16.orca.gbw) ****
             **** DENSITY /scratch/allen/tmpyp4_amber_gaff2/conf1/conf1/Conf16.orca.scfp WAS UPDATED ****
             **** ENERGY FILE WAS UPDATED (/scratch/allen/tmpyp4_amber_gaff2/conf1/conf1/Conf16.orca.en.tmp) ****
             **** THE GBW FILE WAS UPDATED (/scratch/allen/tmpyp4_amber_gaff2/conf1/conf1/Conf16.orca.gbw) ****
             **** DENSITY /scratch/allen/tmpyp4_amber_gaff2/conf1/conf1/Conf16.orca.scfp WAS UPDATED ****
----------------
ORBITAL ENERGIES
----------------

  NO   OCC          E(Eh)            E(eV) 
   0   2.0000     -15.679576      -426.6630 
   1   2.0000     -15.632875      -425.3921 
   2   2.0000     -15.632839      -425.3912 
   3   2.0000     -15.588521      -424.1852 
   4   2.0000     -15.524850      -422.4526 
   5   2.0000     -15.515633      -422.2018 
   6   2.0000     -15.454057      -420.5263 
   7   2.0000     -15.439481      -420.1296 
   8   2.0000     -11.329115      -308.2809 
   9   2.0000     -11.328321      -308.2593 
  10   2.0000     -11.327800      -308.2451 
  11   2.0000     -11.299011      -307.4617 
  12   2.0000     -11.298619      -307.4510 
  13   2.0000     -11.292088      -307.2733 
  14   2.0000     -11.292055      -307.2724 
  15   2.0000     -11.287428      -307.1465 
  16   2.0000     -11.285569      -307.0959 
  17   2.0000     -11.281835      -306.9943 
  18   2.0000     -11.270209      -306.6780 
  19   2.0000     -11.263218      -306.4877 
  20   2.0000     -11.262217      -306.4605 
  21   2.0000     -11.252405      -306.1935 
  22   2.0000     -11.248941      -306.0992 
  23   2.0000     -11.237598      -305.7906 
  24   2.0000     -11.236645      -305.7647 
  25   2.0000     -11.230513      -305.5978 
  26   2.0000     -11.230360      -305.5936 
  27   2.0000     -11.230286      -305.5916 
  28   2.0000     -11.229512      -305.5705 
  29   2.0000     -11.210599      -305.0559 
  30   2.0000     -11.209311      -305.0209 
  31   2.0000     -11.194597      -304.6205 
  32   2.0000     -11.191418      -304.5340 
  33   2.0000     -11.191406      -304.5337 
  34   2.0000     -11.188804      -304.4628 
  35   2.0000     -11.188398      -304.4518 
  36   2.0000     -11.187394      -304.4245 
  37   2.0000     -11.177844      -304.1646 
  38   2.0000     -11.174363      -304.0699 
  39   2.0000     -11.172532      -304.0201 
  40   2.0000     -11.171432      -303.9901 
  41   2.0000     -11.171374      -303.9885 
  42   2.0000     -11.167813      -303.8916 
  43   2.0000     -11.162210      -303.7392 
  44   2.0000     -11.160298      -303.6872 
  45   2.0000     -11.157141      -303.6012 
  46   2.0000     -11.156302      -303.5784 
  47   2.0000     -11.152476      -303.4743 
  48   2.0000     -11.147255      -303.3322 
  49   2.0000     -11.135440      -303.0107 
  50   2.0000     -11.129131      -302.8390 
  51   2.0000     -11.116899      -302.5062 
  52   2.0000      -1.360199       -37.0129 
  53   2.0000      -1.320509       -35.9329 
  54   2.0000      -1.320245       -35.9257 
  55   2.0000      -1.281254       -34.8647 
  56   2.0000      -1.225874       -33.3577 
  57   2.0000      -1.210382       -32.9362 
  58   2.0000      -1.173743       -31.9392 
  59   2.0000      -1.150468       -31.3058 
  60   2.0000      -1.143522       -31.1168 
  61   2.0000      -1.110357       -30.2144 
  62   2.0000      -1.108786       -30.1716 
  63   2.0000      -1.081905       -29.4401 
  64   2.0000      -1.077427       -29.3183 
  65   2.0000      -1.045116       -28.4390 
  66   2.0000      -1.044475       -28.4216 
  67   2.0000      -1.041024       -28.3277 
  68   2.0000      -1.014913       -27.6172 
  69   2.0000      -1.013531       -27.5796 
  70   2.0000      -1.009081       -27.4585 
  71   2.0000      -0.993255       -27.0278 
  72   2.0000      -0.985764       -26.8240 
  73   2.0000      -0.981568       -26.7098 
  74   2.0000      -0.973048       -26.4780 
  75   2.0000      -0.962337       -26.1865 
  76   2.0000      -0.954833       -25.9823 
  77   2.0000      -0.945891       -25.7390 
  78   2.0000      -0.937840       -25.5199 
  79   2.0000      -0.917142       -24.9567 
  80   2.0000      -0.910366       -24.7723 
  81   2.0000      -0.896891       -24.4056 
  82   2.0000      -0.876643       -23.8547 
  83   2.0000      -0.871617       -23.7179 
  84   2.0000      -0.870984       -23.7007 
  85   2.0000      -0.860006       -23.4020 
  86   2.0000      -0.843871       -22.9629 
  87   2.0000      -0.835891       -22.7457 
  88   2.0000      -0.827714       -22.5232 
  89   2.0000      -0.796673       -21.6786 
  90   2.0000      -0.789233       -21.4761 
  91   2.0000      -0.764067       -20.7913 
  92   2.0000      -0.752732       -20.4829 
  93   2.0000      -0.733475       -19.9589 
  94   2.0000      -0.726964       -19.7817 
  95   2.0000      -0.723904       -19.6984 
  96   2.0000      -0.719167       -19.5695 
  97   2.0000      -0.716853       -19.5066 
  98   2.0000      -0.713091       -19.4042 
  99   2.0000      -0.698199       -18.9990 
 100   2.0000      -0.697708       -18.9856 
 101   2.0000      -0.693263       -18.8646 
 102   2.0000      -0.685175       -18.6446 
 103   2.0000      -0.684203       -18.6181 
 104   2.0000      -0.678621       -18.4662 
 105   2.0000      -0.674530       -18.3549 
 106   2.0000      -0.672551       -18.3011 
 107   2.0000      -0.660656       -17.9774 
 108   2.0000      -0.658092       -17.9076 
 109   2.0000      -0.652763       -17.7626 
 110   2.0000      -0.652034       -17.7428 
 111   2.0000      -0.646006       -17.5787 
 112   2.0000      -0.645395       -17.5621 
 113   2.0000      -0.637577       -17.3494 
 114   2.0000      -0.636360       -17.3162 
 115   2.0000      -0.628463       -17.1014 
 116   2.0000      -0.623062       -16.9544 
 117   2.0000      -0.621195       -16.9036 
 118   2.0000      -0.612922       -16.6785 
 119   2.0000      -0.612267       -16.6606 
 120   2.0000      -0.611522       -16.6403 
 121   2.0000      -0.611131       -16.6297 
 122   2.0000      -0.601476       -16.3670 
 123   2.0000      -0.588188       -16.0054 
 124   2.0000      -0.581399       -15.8207 
 125   2.0000      -0.580854       -15.8058 
 126   2.0000      -0.580002       -15.7827 
 127   2.0000      -0.571181       -15.5426 
 128   2.0000      -0.567871       -15.4526 
 129   2.0000      -0.559936       -15.2366 
 130   2.0000      -0.554199       -15.0805 
 131   2.0000      -0.547847       -14.9077 
 132   2.0000      -0.542620       -14.7654 
 133   2.0000      -0.540802       -14.7160 
 134   2.0000      -0.538221       -14.6457 
 135   2.0000      -0.536419       -14.5967 
 136   2.0000      -0.531177       -14.4541 
 137   2.0000      -0.519077       -14.1248 
 138   2.0000      -0.516468       -14.0538 
 139   2.0000      -0.514901       -14.0112 
 140   2.0000      -0.512418       -13.9436 
 141   2.0000      -0.510282       -13.8855 
 142   2.0000      -0.508127       -13.8268 
 143   2.0000      -0.505029       -13.7425 
 144   2.0000      -0.502519       -13.6742 
 145   2.0000      -0.495893       -13.4939 
 146   2.0000      -0.488786       -13.3006 
 147   2.0000      -0.481522       -13.1029 
 148   2.0000      -0.477714       -12.9993 
 149   2.0000      -0.467687       -12.7264 
 150   2.0000      -0.466394       -12.6912 
 151   2.0000      -0.456923       -12.4335 
 152   2.0000      -0.451793       -12.2939 
 153   2.0000      -0.444759       -12.1025 
 154   2.0000      -0.438513       -11.9325 
 155   2.0000      -0.427459       -11.6317 
 156   2.0000      -0.409925       -11.1546 
 157   2.0000      -0.401749       -10.9322 
 158   2.0000      -0.390519       -10.6266 
 159   2.0000      -0.387529       -10.5452 
 160   2.0000      -0.378884       -10.3100 
 161   2.0000      -0.376635       -10.2488 
 162   2.0000      -0.368317       -10.0224 
 163   2.0000      -0.356693        -9.7061 
 164   2.0000      -0.355758        -9.6807 
 165   2.0000      -0.342107        -9.3092 
 166   2.0000      -0.337636        -9.1876 
 167   2.0000      -0.324488        -8.8298 
 168   2.0000      -0.321364        -8.7448 
 169   2.0000      -0.305024        -8.3001 
 170   2.0000      -0.299500        -8.1498 
 171   2.0000      -0.285524        -7.7695 
 172   2.0000      -0.278938        -7.5903 
 173   2.0000      -0.263888        -7.1808 
 174   2.0000      -0.241505        -6.5717 
 175   2.0000      -0.189940        -5.1685 
 176   2.0000      -0.180976        -4.9246 
 177   2.0000      -0.079231        -2.1560 
 178   2.0000      -0.059644        -1.6230 
 179   0.0000       0.028344         0.7713 
 180   0.0000       0.065366         1.7787 
 181   0.0000       0.090247         2.4557 
 182   0.0000       0.106394         2.8951 
 183   0.0000       0.115193         3.1346 
 184   0.0000       0.137187         3.7331 
 185   0.0000       0.139308         3.7908 
 186   0.0000       0.141054         3.8383 
 187   0.0000       0.163994         4.4625 
 188   0.0000       0.165136         4.4936 
 189   0.0000       0.165680         4.5084 
 190   0.0000       0.172968         4.7067 
 191   0.0000       0.180483         4.9112 
 192   0.0000       0.183883         5.0037 
 193   0.0000       0.189045         5.1442 
 194   0.0000       0.204858         5.5745 
 195   0.0000       0.205617         5.5951 
 196   0.0000       0.208076         5.6620 
 197   0.0000       0.208867         5.6836 
 198   0.0000       0.216644         5.8952 
 199   0.0000       0.228556         6.2193 
 200   0.0000       0.233640         6.3577 
 201   0.0000       0.233870         6.3639 
 202   0.0000       0.238972         6.5028 
 203   0.0000       0.239766         6.5244 
 204   0.0000       0.246323         6.7028 
 205   0.0000       0.255137         6.9426 
 206   0.0000       0.256273         6.9735 
 207   0.0000       0.257650         7.0110 
 208   0.0000       0.258877         7.0444 
 209   0.0000       0.260511         7.0889 
 210   0.0000       0.263341         7.1659 
 211   0.0000       0.265723         7.2307 
 212   0.0000       0.268747         7.3130 
 213   0.0000       0.271510         7.3882 
 214   0.0000       0.272854         7.4247 
 215   0.0000       0.275806         7.5051 
 216   0.0000       0.277840         7.5604 
 217   0.0000       0.282787         7.6950 
 218   0.0000       0.286669         7.8007 
 219   0.0000       0.287464         7.8223 
 220   0.0000       0.289897         7.8885 
 221   0.0000       0.292054         7.9472 
 222   0.0000       0.294962         8.0263 
 223   0.0000       0.296699         8.0736 
 224   0.0000       0.297103         8.0846 
 225   0.0000       0.300788         8.1849 
 226   0.0000       0.304973         8.2987 
 227   0.0000       0.308655         8.3989 
 228   0.0000       0.312876         8.5138 
 229   0.0000       0.324530         8.8309 
 230   0.0000       0.327962         8.9243 
 231   0.0000       0.334784         9.1099 
 232   0.0000       0.343278         9.3411 
 233   0.0000       0.355694         9.6789 
 234   0.0000       0.363117         9.8809 
 235   0.0000       0.367136         9.9903 
 236   0.0000       0.376217        10.2374 
 237   0.0000       0.390446        10.6246 
 238   0.0000       0.395542        10.7632 
 239   0.0000       0.400214        10.8904 
 240   0.0000       0.407350        11.0846 
 241   0.0000       0.411300        11.1920 
 242   0.0000       0.413585        11.2542 
 243   0.0000       0.418349        11.3838 
 244   0.0000       0.429586        11.6896 
 245   0.0000       0.434757        11.8303 
 246   0.0000       0.437500        11.9050 
 247   0.0000       0.440477        11.9860 
 248   0.0000       0.442393        12.0381 
 249   0.0000       0.448462        12.2033 
 250   0.0000       0.455147        12.3852 
 251   0.0000       0.465908        12.6780 
 252   0.0000       0.467829        12.7303 
 253   0.0000       0.468347        12.7444 
 254   0.0000       0.470929        12.8146 
 255   0.0000       0.474934        12.9236 
 256   0.0000       0.476259        12.9597 
 257   0.0000       0.479779        13.0554 
 258   0.0000       0.489329        13.3153 
 259   0.0000       0.495970        13.4960 
 260   0.0000       0.503717        13.7068 
 261   0.0000       0.505035        13.7427 
 262   0.0000       0.506457        13.7814 
 263   0.0000       0.512137        13.9360 
 264   0.0000       0.516798        14.0628 
 265   0.0000       0.520768        14.1708 
 266   0.0000       0.523068        14.2334 
 267   0.0000       0.528343        14.3769 
 268   0.0000       0.532298        14.4846 
 269   0.0000       0.535926        14.5833 
 270   0.0000       0.544072        14.8050 
 271   0.0000       0.549634        14.9563 
 272   0.0000       0.558224        15.1901 
 273   0.0000       0.559605        15.2276 
 274   0.0000       0.562796        15.3145 
 275   0.0000       0.566162        15.4061 
 276   0.0000       0.571940        15.5633 
 277   0.0000       0.573939        15.6177 
 278   0.0000       0.579820        15.7777 
 279   0.0000       0.586280        15.9535 
 280   0.0000       0.592435        16.1210 
 281   0.0000       0.593377        16.1466 
 282   0.0000       0.593910        16.1611 
 283   0.0000       0.595918        16.2158 
 284   0.0000       0.598448        16.2846 
 285   0.0000       0.600095        16.3294 
 286   0.0000       0.604679        16.4541 
 287   0.0000       0.610811        16.6210 
 288   0.0000       0.616851        16.7854 
 289   0.0000       0.624083        16.9822 
 290   0.0000       0.625354        17.0167 
 291   0.0000       0.628088        17.0911 
 292   0.0000       0.633665        17.2429 
 293   0.0000       0.635646        17.2968 
 294   0.0000       0.645277        17.5589 
 295   0.0000       0.648084        17.6353 
 296   0.0000       0.652377        17.7521 
 297   0.0000       0.655270        17.8308 
 298   0.0000       0.661326        17.9956 
 299   0.0000       0.666044        18.1240 
 300   0.0000       0.671035        18.2598 
 301   0.0000       0.675230        18.3739 
 302   0.0000       0.677570        18.4376 
 303   0.0000       0.679702        18.4956 
 304   0.0000       0.681274        18.5384 
 305   0.0000       0.685212        18.6456 
 306   0.0000       0.688610        18.7380 
 307   0.0000       0.692120        18.8335 
 308   0.0000       0.695308        18.9203 
 309   0.0000       0.699981        19.0474 
 310   0.0000       0.702555        19.1175 
 311   0.0000       0.703854        19.1528 
 312   0.0000       0.706164        19.2157 
 313   0.0000       0.711321        19.3560 
 314   0.0000       0.712217        19.3804 
 315   0.0000       0.715967        19.4825 
 316   0.0000       0.716990        19.5103 
 317   0.0000       0.718152        19.5419 
 318   0.0000       0.724410        19.7122 
 319   0.0000       0.727604        19.7991 
 320   0.0000       0.728215        19.8157 
 321   0.0000       0.728842        19.8328 
 322   0.0000       0.731032        19.8924 
 323   0.0000       0.732605        19.9352 
 324   0.0000       0.735444        20.0124 
 325   0.0000       0.740527        20.1508 
 326   0.0000       0.743813        20.2402 
 327   0.0000       0.749202        20.3868 
 328   0.0000       0.753183        20.4952 
 329   0.0000       0.756359        20.5816 
 330   0.0000       0.757686        20.6177 
 331   0.0000       0.762851        20.7582 
 332   0.0000       0.766191        20.8491 
 333   0.0000       0.766999        20.8711 
 334   0.0000       0.768943        20.9240 
 335   0.0000       0.774350        21.0711 
 336   0.0000       0.778945        21.1962 
 337   0.0000       0.781311        21.2605 
 338   0.0000       0.784631        21.3509 
 339   0.0000       0.789875        21.4936 
 340   0.0000       0.792766        21.5723 
 341   0.0000       0.794517        21.6199 
 342   0.0000       0.800563        21.7844 
 343   0.0000       0.803256        21.8577 
 344   0.0000       0.806112        21.9354 
 345   0.0000       0.808082        21.9890 
 346   0.0000       0.810580        22.0570 
 347   0.0000       0.815042        22.1784 
 348   0.0000       0.815554        22.1924 
 349   0.0000       0.817162        22.2361 
 350   0.0000       0.819743        22.3063 
 351   0.0000       0.822690        22.3865 
 352   0.0000       0.824462        22.4348 
 353   0.0000       0.826893        22.5009 
 354   0.0000       0.830482        22.5986 
 355   0.0000       0.832736        22.6599 
 356   0.0000       0.834374        22.7045 
 357   0.0000       0.836609        22.7653 
 358   0.0000       0.838539        22.8178 
 359   0.0000       0.840049        22.8589 
 360   0.0000       0.842345        22.9214 
 361   0.0000       0.843566        22.9546 
 362   0.0000       0.845500        23.0072 
 363   0.0000       0.849300        23.1106 
 364   0.0000       0.851601        23.1733 
 365   0.0000       0.856166        23.2975 
 366   0.0000       0.858533        23.3619 
 367   0.0000       0.861837        23.4518 
 368   0.0000       0.867777        23.6134 
 369   0.0000       0.870185        23.6789 
 370   0.0000       0.870470        23.6867 
 371   0.0000       0.873207        23.7612 
 372   0.0000       0.875716        23.8295 
 373   0.0000       0.877570        23.8799 
 374   0.0000       0.878976        23.9181 
 375   0.0000       0.882703        24.0196 
 376   0.0000       0.889218        24.1969 
 377   0.0000       0.889632        24.2081 
 378   0.0000       0.892558        24.2877 
 379   0.0000       0.893894        24.3241 
 380   0.0000       0.897187        24.4137 
 381   0.0000       0.898503        24.4495 
 382   0.0000       0.900386        24.5007 
 383   0.0000       0.900824        24.5127 
 384   0.0000       0.905835        24.6490 
 385   0.0000       0.906670        24.6718 
 386   0.0000       0.908442        24.7200 
 387   0.0000       0.911104        24.7924 
 388   0.0000       0.915416        24.9097 
 389   0.0000       0.917968        24.9792 
 390   0.0000       0.920506        25.0483 
 391   0.0000       0.925683        25.1891 
 392   0.0000       0.926857        25.2211 
 393   0.0000       0.928210        25.2579 
 394   0.0000       0.929699        25.2984 
 395   0.0000       0.931831        25.3564 
 396   0.0000       0.935188        25.4477 
 397   0.0000       0.941028        25.6067 
 398   0.0000       0.943406        25.6714 
 399   0.0000       0.944042        25.6887 
 400   0.0000       0.948601        25.8128 
 401   0.0000       0.953878        25.9564 
 402   0.0000       0.955107        25.9898 
 403   0.0000       0.957839        26.0641 
 404   0.0000       0.960656        26.1408 
 405   0.0000       0.962614        26.1941 
 406   0.0000       0.971355        26.4319 
 407   0.0000       0.978186        26.6178 
 408   0.0000       0.982070        26.7235 
 409   0.0000       0.986781        26.8517 
 410   0.0000       0.987956        26.8837 
 411   0.0000       0.992869        27.0173 
 412   0.0000       0.998666        27.1751 
 413   0.0000       1.002382        27.2762 
 414   0.0000       1.006885        27.3987 
 415   0.0000       1.010129        27.4870 
 416   0.0000       1.015990        27.6465 
 417   0.0000       1.018365        27.7111 
 418   0.0000       1.027161        27.9505 
 419   0.0000       1.032265        28.0894 
 420   0.0000       1.034310        28.1450 
 421   0.0000       1.038065        28.2472 
 422   0.0000       1.043504        28.3952 
 423   0.0000       1.052883        28.6504 
 424   0.0000       1.061480        28.8843 
 425   0.0000       1.066736        29.0274 
 426   0.0000       1.070693        29.1350 
 427   0.0000       1.075472        29.2651 
 428   0.0000       1.078085        29.3362 
 429   0.0000       1.087158        29.5831 
 430   0.0000       1.088707        29.6252 
 431   0.0000       1.091674        29.7060 
 432   0.0000       1.099335        29.9144 
 433   0.0000       1.101992        29.9867 
 434   0.0000       1.106480        30.1088 
 435   0.0000       1.109910        30.2022 
 436   0.0000       1.113103        30.2891 
 437   0.0000       1.116542        30.3826 
 438   0.0000       1.120026        30.4775 
 439   0.0000       1.121276        30.5115 
 440   0.0000       1.124377        30.5959 
 441   0.0000       1.128478        30.7074 
 442   0.0000       1.130798        30.7706 
 443   0.0000       1.134090        30.8602 
 444   0.0000       1.137319        30.9480 
 445   0.0000       1.139140        30.9976 
 446   0.0000       1.146132        31.1878 
 447   0.0000       1.150228        31.2993 
 448   0.0000       1.151994        31.3473 
 449   0.0000       1.155926        31.4544 
 450   0.0000       1.159416        31.5493 
 451   0.0000       1.161251        31.5993 
 452   0.0000       1.165737        31.7213 
 453   0.0000       1.168174        31.7876 
 454   0.0000       1.169090        31.8126 
 455   0.0000       1.172014        31.8921 
 456   0.0000       1.182794        32.1855 
 457   0.0000       1.183393        32.2018 
 458   0.0000       1.192678        32.4544 
 459   0.0000       1.197425        32.5836 
 460   0.0000       1.202464        32.7207 
 461   0.0000       1.202633        32.7253 
 462   0.0000       1.206037        32.8179 
 463   0.0000       1.208332        32.8804 
 464   0.0000       1.209700        32.9176 
 465   0.0000       1.216910        33.1138 
 466   0.0000       1.217613        33.1329 
 467   0.0000       1.225298        33.3420 
 468   0.0000       1.227290        33.3963 
 469   0.0000       1.229117        33.4460 
 470   0.0000       1.231367        33.5072 
 471   0.0000       1.235991        33.6330 
 472   0.0000       1.239680        33.7334 
 473   0.0000       1.243023        33.8244 
 474   0.0000       1.244096        33.8536 
 475   0.0000       1.248638        33.9772 
 476   0.0000       1.250950        34.0401 
 477   0.0000       1.251602        34.0578 
 478   0.0000       1.252793        34.0902 
 479   0.0000       1.259763        34.2799 
 480   0.0000       1.261409        34.3247 
 481   0.0000       1.263597        34.3842 
 482   0.0000       1.269673        34.5496 
 483   0.0000       1.271071        34.5876 
 484   0.0000       1.278725        34.7959 
 485   0.0000       1.282094        34.8876 
 486   0.0000       1.283453        34.9245 
 487   0.0000       1.289049        35.0768 
 488   0.0000       1.291420        35.1413 
 489   0.0000       1.292955        35.1831 
 490   0.0000       1.299984        35.3744 
 491   0.0000       1.300460        35.3873 
 492   0.0000       1.305857        35.5342 
 493   0.0000       1.311447        35.6863 
 494   0.0000       1.313106        35.7314 
 495   0.0000       1.319049        35.8931 
 496   0.0000       1.321480        35.9593 
 497   0.0000       1.324397        36.0387 
 498   0.0000       1.327810        36.1315 
 499   0.0000       1.330875        36.2150 
 500   0.0000       1.336479        36.3675 
 501   0.0000       1.339844        36.4590 
 502   0.0000       1.341467        36.5032 
 503   0.0000       1.343800        36.5667 
 504   0.0000       1.347586        36.6697 
 505   0.0000       1.350465        36.7480 
 506   0.0000       1.351956        36.7886 
 507   0.0000       1.358268        36.9604 
 508   0.0000       1.360513        37.0215 
 509   0.0000       1.362623        37.0789 
[...]
      pz      :     0.022122  p :     0.079779
      px      :     0.043610
      py      :     0.014048
 77 H s       :     0.884494  s :     0.884494
      pz      :     0.047977  p :     0.079293
      px      :     0.015024
      py      :     0.016292
 78 H s       :     0.884815  s :     0.884815
      pz      :     0.025885  p :     0.079267
      px      :     0.020455
      py      :     0.032927
 79 H s       :     0.910851  s :     0.910851
      pz      :     0.021787  p :     0.086286
      px      :     0.021659
      py      :     0.042841
 80 H s       :     0.864340  s :     0.864340
      pz      :     0.039393  p :     0.084827
      px      :     0.030281
      py      :     0.015153
 81 H s       :     0.886616  s :     0.886616
      pz      :     0.037838  p :     0.084131
      px      :     0.016169
      py      :     0.030124
 82 H s       :     0.915932  s :     0.915932
      pz      :     0.021944  p :     0.086731
      px      :     0.031659
      py      :     0.033128
 83 H s       :     0.873191  s :     0.873191
      pz      :     0.039297  p :     0.084124
      px      :     0.015270
      py      :     0.029557
 84 H s       :     0.886457  s :     0.886457
      pz      :     0.035783  p :     0.083427
      px      :     0.031705
      py      :     0.015938
 85 H s       :     0.892608  s :     0.892608
      pz      :     0.022495  p :     0.079796
      px      :     0.014060
      py      :     0.043240
 86 H s       :     0.890846  s :     0.890846
      pz      :     0.024736  p :     0.078841
      px      :     0.032991
      py      :     0.021114
 87 H s       :     0.889713  s :     0.889713
      pz      :     0.048028  p :     0.078753
      px      :     0.015586
      py      :     0.015139
 88 H s       :     0.910550  s :     0.910550
      pz      :     0.021604  p :     0.087008
      px      :     0.042950
      py      :     0.022454
 89 H s       :     0.871002  s :     0.871002
      pz      :     0.037968  p :     0.083867
      px      :     0.030509
      py      :     0.015390


                      *****************************
                      * MAYER POPULATION ANALYSIS *
                      *****************************

  NA   - Mulliken gross atomic population
  ZA   - Total nuclear charge
  QA   - Mulliken gross atomic charge
  VA   - Mayer's total valence
  BVA  - Mayer's bonded valence
  FA   - Mayer's free valence

  ATOM       NA         ZA         QA         VA         BVA        FA
  0 C      5.7823     6.0000     0.2177     3.8481     3.8481     0.0000
  1 N      7.4547     7.0000    -0.4547     3.3439     3.3439    -0.0000
  2 C      6.0722     6.0000    -0.0722     3.9235     3.9235    -0.0000
  3 N      7.3409     7.0000    -0.3409     3.4550     3.4550     0.0000
  4 C      6.0648     6.0000    -0.0648     4.1037     4.1037    -0.0000
  5 N      7.5680     7.0000    -0.5680     3.0951     3.0951     0.0000
  6 C      6.1044     6.0000    -0.1044     3.9354     3.9354    -0.0000
  7 N      7.3409     7.0000    -0.3409     3.4325     3.4325    -0.0000
  8 C      5.7887     6.0000     0.2113     3.8494     3.8494    -0.0000
  9 N      7.5621     7.0000    -0.5621     3.0768     3.0768    -0.0000
 10 C      5.8812     6.0000     0.1188     3.9092     3.9092     0.0000
 11 N      7.4387     7.0000    -0.4387     3.3769     3.3769    -0.0000
 12 C      6.0605     6.0000    -0.0605     3.8562     3.8562    -0.0000
 13 N      7.4294     7.0000    -0.4294     3.4282     3.4282     0.0000
 14 C      5.7779     6.0000     0.2221     3.7949     3.7949    -0.0000
 15 N      7.4407     7.0000    -0.4407     3.3737     3.3737    -0.0000
 16 C      5.7692     6.0000     0.2308     3.7759     3.7759    -0.0000
 17 C      6.1190     6.0000    -0.1190     3.9541     3.9541     0.0000
 18 C      6.1826     6.0000    -0.1826     3.7586     3.7586     0.0000
 19 C      5.7844     6.0000     0.2156     3.8729     3.8729    -0.0000
 20 C      5.7868     6.0000     0.2132     3.8293     3.8293     0.0000
 21 C      6.0607     6.0000    -0.0607     3.8228     3.8228    -0.0000
 22 C      6.0912     6.0000    -0.0912     3.9830     3.9830    -0.0000
 23 C      6.0395     6.0000    -0.0395     3.9927     3.9927    -0.0000
 24 C      5.8069     6.0000     0.1931     3.8212     3.8212    -0.0000
 25 C      5.8853     6.0000     0.1147     3.8920     3.8920     0.0000
 26 C      6.0906     6.0000    -0.0906     3.9097     3.9097    -0.0000
 27 C      5.7840     6.0000     0.2160     3.8621     3.8621     0.0000
 28 C      6.0619     6.0000    -0.0619     3.9888     3.9888     0.0000
 29 C      6.1819     6.0000    -0.1819     3.7459     3.7459     0.0000
 30 C      5.7538     6.0000     0.2462     3.8013     3.8013    -0.0000
 31 C      5.7702     6.0000     0.2298     3.8170     3.8170    -0.0000
 32 C      6.0619     6.0000    -0.0619     3.9229     3.9229     0.0000
 33 C      6.0602     6.0000    -0.0602     3.9713     3.9713    -0.0000
 34 C      6.0516     6.0000    -0.0516     3.9834     3.9834     0.0000
 35 C      5.7711     6.0000     0.2289     3.8166     3.8166     0.0000
 36 C      5.8918     6.0000     0.1082     3.8748     3.8748     0.0000
 37 C      6.0642     6.0000    -0.0642     3.9179     3.9179    -0.0000
 38 C      5.7694     6.0000     0.2306     3.8004     3.8004    -0.0000
 39 C      6.0573     6.0000    -0.0573     3.9831     3.9831    -0.0000
 40 C      6.1815     6.0000    -0.1815     3.7268     3.7268    -0.0000
 41 C      5.7736     6.0000     0.2264     3.8877     3.8877    -0.0000
 42 C      5.8023     6.0000     0.1977     3.8255     3.8255    -0.0000
 43 C      6.0723     6.0000    -0.0723     3.9000     3.9000    -0.0000
 44 C      6.0890     6.0000    -0.0890     3.9849     3.9849    -0.0000
 45 C      6.0615     6.0000    -0.0615     3.9919     3.9919    -0.0000
 46 C      5.7877     6.0000     0.2123     3.8283     3.8283    -0.0000
 47 C      5.8848     6.0000     0.1152     3.8924     3.8924     0.0000
 48 C      6.0666     6.0000    -0.0666     3.9095     3.9095     0.0000
 49 C      5.7611     6.0000     0.2389     3.8941     3.8941    -0.0000
 50 C      6.0461     6.0000    -0.0461     3.9903     3.9903    -0.0000
 51 C      6.1927     6.0000    -0.1927     3.7367     3.7367    -0.0000
 52 H      0.9640     1.0000     0.0360     0.9856     0.9856    -0.0000
 53 H      1.0180     1.0000    -0.0180     0.9987     0.9987    -0.0000
 54 H      0.9551     1.0000     0.0449     1.0175     1.0175    -0.0000
 55 H      0.9656     1.0000     0.0344     0.9863     0.9863    -0.0000
 56 H      0.9505     1.0000     0.0495     0.9695     0.9695     0.0000
 57 H      0.9523     1.0000     0.0477     0.9826     0.9826     0.0000
 58 H      0.9532     1.0000     0.0468     0.9847     0.9847     0.0000
 59 H      1.0091     1.0000    -0.0091     0.9976     0.9976    -0.0000
 60 H      0.9575     1.0000     0.0425     1.0153     1.0153    -0.0000
 61 H      0.8288     1.0000     0.1712     1.0422     1.0422    -0.0000
 62 H      0.8246     1.0000     0.1754     1.0436     1.0436    -0.0000
 63 H      0.9452     1.0000     0.0548     0.9853     0.9853     0.0000
 64 H      1.0294     1.0000    -0.0294     0.9923     0.9923    -0.0000
 65 H      0.9531     1.0000     0.0469     1.0099     1.0099     0.0000
 66 H      0.9448     1.0000     0.0552     0.9855     0.9855    -0.0000
 67 H      0.9379     1.0000     0.0621     0.9719     0.9719    -0.0000
 68 H      0.9430     1.0000     0.0570     0.9868     0.9868     0.0000
 69 H      0.9439     1.0000     0.0561     0.9828     0.9828     0.0000
 70 H      1.0305     1.0000    -0.0305     0.9942     0.9942    -0.0000
 71 H      0.9557     1.0000     0.0443     1.0059     1.0059     0.0000
 72 H      0.9286     1.0000     0.0714     0.9836     0.9836    -0.0000
 73 H      1.0080     1.0000    -0.0080     1.0010     1.0010     0.0000
 74 H      0.9396     1.0000     0.0604     1.0100     1.0100     0.0000
 75 H      0.9291     1.0000     0.0709     0.9838     0.9838    -0.0000
 76 H      0.9250     1.0000     0.0750     0.9721     0.9721     0.0000
 77 H      0.9319     1.0000     0.0681     0.9855     0.9855    -0.0000
 78 H      0.9326     1.0000     0.0674     0.9854     0.9854    -0.0000
 79 H      1.0168     1.0000    -0.0168     0.9974     0.9974    -0.0000
 80 H      0.9385     1.0000     0.0615     1.0072     1.0072    -0.0000
 81 H      0.9452     1.0000     0.0548     0.9856     0.9856    -0.0000
 82 H      1.0247     1.0000    -0.0247     0.9935     0.9935    -0.0000
 83 H      0.9576     1.0000     0.0424     1.0082     1.0082     0.0000
 84 H      0.9453     1.0000     0.0547     0.9852     0.9852    -0.0000
 85 H      0.9387     1.0000     0.0613     0.9716     0.9716     0.0000
 86 H      0.9442     1.0000     0.0558     0.9839     0.9839    -0.0000
 87 H      0.9425     1.0000     0.0575     0.9857     0.9857    -0.0000
 88 H      1.0144     1.0000    -0.0144     0.9968     0.9968    -0.0000
 89 H      0.9529     1.0000     0.0471     1.0076     1.0076    -0.0000

  Mayer bond orders larger than 0.100000
B(  0-C ,  1-N ) :   1.1013 B(  0-C , 17-C ) :   1.7102 B(  0-C , 52-H ) :   0.9633 
B(  1-N ,  8-C ) :   1.0892 B(  1-N , 10-C ) :   0.9774 B(  2-C , 12-C ) :   1.4922 
B(  2-C , 16-C ) :   1.3695 B(  2-C , 53-H ) :   0.9727 B(  3-N , 14-C ) :   1.2218 
B(  3-N , 16-C ) :   1.1812 B(  3-N , 61-H ) :   0.8987 B(  4-C ,  6-C ) :   1.2157 
B(  4-C , 17-C ) :   1.2172 B(  4-C , 18-C ) :   1.4704 B(  5-N , 19-C ) :   1.4585 
B(  5-N , 27-C ) :   1.3715 B(  6-C ,  8-C ) :   1.7225 B(  6-C , 54-H ) :   0.8829 
B(  7-N , 30-C ) :   1.1960 B(  7-N , 38-C ) :   1.1890 B(  7-N , 62-H ) :   0.8968 
B(  8-C , 55-H ) :   0.9628 B(  9-N , 41-C ) :   1.3951 B(  9-N , 49-C ) :   1.4243 
B( 10-C , 56-H ) :   0.9775 B( 10-C , 57-H ) :   0.9822 B( 10-C , 58-H ) :   0.9841 
B( 11-N , 20-C ) :   1.1303 B( 11-N , 24-C ) :   1.1059 B( 11-N , 25-C ) :   0.9607 
B( 12-C , 14-C ) :   1.3569 B( 12-C , 59-H ) :   0.9417 B( 13-N , 31-C ) :   1.1610 
B( 13-N , 35-C ) :   1.1609 B( 13-N , 36-C ) :   0.9413 B( 14-C , 18-C ) :   1.1205 
B( 15-N , 42-C ) :   1.1085 B( 15-N , 46-C ) :   1.1255 B( 15-N , 47-C ) :   0.9608 
B( 16-C , 51-C ) :   1.1685 B( 17-C , 60-H ) :   0.9090 B( 18-C , 19-C ) :   1.1188 
B( 19-C , 21-C ) :   1.2537 B( 20-C , 28-C ) :   1.6298 B( 20-C , 63-H ) :   0.9703 
B( 21-C , 26-C ) :   1.5794 B( 21-C , 64-H ) :   0.9169 B( 22-C , 23-C ) :   1.2883 
B( 22-C , 28-C ) :   1.2628 B( 22-C , 29-C ) :   1.2278 B( 23-C , 24-C ) :   1.6214 
B( 23-C , 65-H ) :   0.9703 B( 24-C , 66-H ) :   0.9696 B( 25-C , 67-H ) :   0.9761 
B( 25-C , 68-H ) :   0.9828 B( 25-C , 69-H ) :   0.9824 B( 26-C , 27-C ) :   1.2622 
B( 26-C , 70-H ) :   0.9676 B( 27-C , 29-C ) :   1.2048 B( 28-C , 71-H ) :   0.9720 
B( 29-C , 30-C ) :   1.2464 B( 30-C , 32-C ) :   1.2793 B( 31-C , 39-C ) :   1.5876 
B( 31-C , 72-H ) :   0.9681 B( 32-C , 37-C ) :   1.5792 B( 32-C , 73-H ) :   0.9787 
B( 33-C , 34-C ) :   1.3065 B( 33-C , 39-C ) :   1.3046 B( 33-C , 40-C ) :   1.1764 
B( 34-C , 35-C ) :   1.5855 B( 34-C , 74-H ) :   0.9696 B( 35-C , 75-H ) :   0.9681 
B( 36-C , 76-H ) :   0.9768 B( 36-C , 77-H ) :   0.9816 B( 36-C , 78-H ) :   0.9823 
B( 37-C , 38-C ) :   1.2857 B( 37-C , 79-H ) :   0.9764 B( 38-C , 40-C ) :   1.2335 
B( 39-C , 80-H ) :   0.9705 B( 40-C , 41-C ) :   1.2508 B( 41-C , 43-C ) :   1.1835 
B( 42-C , 50-C ) :   1.6318 B( 42-C , 81-H ) :   0.9696 B( 43-C , 48-C ) :   1.6696 
B( 43-C , 82-H ) :   0.9721 B( 44-C , 45-C ) :   1.2644 B( 44-C , 50-C ) :   1.2736 
B( 44-C , 51-C ) :   1.2584 B( 45-C , 46-C ) :   1.6334 B( 45-C , 83-H ) :   0.9718 
B( 46-C , 84-H ) :   0.9699 B( 47-C , 85-H ) :   0.9762 B( 47-C , 86-H ) :   0.9829 
B( 47-C , 87-H ) :   0.9824 B( 48-C , 49-C ) :   1.1869 B( 48-C , 88-H ) :   0.9748 
B( 49-C , 51-C ) :   1.2459 B( 50-C , 89-H ) :   0.9708 

-------
TIMINGS
-------

Total SCF time: 0 days 0 hours 22 min 48 sec 

Total time                  ....    1368.971 sec
Sum of individual times     ....    1365.257 sec  ( 99.7%)

Fock matrix formation       ....    1344.966 sec  ( 98.2%)
Diagonalization             ....       6.598 sec  (  0.5%)
Density matrix formation    ....       0.348 sec  (  0.0%)
Population analysis         ....       0.423 sec  (  0.0%)
Initial guess               ....       1.915 sec  (  0.1%)
Orbital Transformation      ....       0.000 sec  (  0.0%)
Orbital Orthonormalization  ....       0.000 sec  (  0.0%)
DIIS solution               ....       2.859 sec  (  0.2%)
SOSCF solution              ....       7.143 sec  (  0.5%)

Maximum memory used throughout the entire SCF-calculation: 302.7 MB


           ************************************************************
           *        Program running with 16 parallel MPI-processes    *
           *              working on a common directory               *
           ************************************************************

------------------------------------------------------------------------------
                                ORCA  MP2 
------------------------------------------------------------------------------

Freezing NCore=104 chemical core electrons

----------
MP2 ENERGY (disk based algorithm)
----------

Dimension of the basis                    ...  918
Memory devoted to MP2                     ... 2000 MB   
Data format for buffers                   ... DOUBLE
Compression type for matrix containers    ... UNCOMPRESSED

-------------------------------
PARTIAL EXCHANGE TRANSFORMATION
-------------------------------

Transformation type                        ... one-operator
Generation of integrals (i,mue|j,nue)      ... ON
Generation of integrals (mue,kappa|nue,tau)... OFF
Generation of integrals (i,mue|a,nue)      ... OFF
Dimension of the basis                     ...  918
Number of internal MOs                     ...  127 (  52- 178)
Pair cutoff                                ... 2.500e-12 Eh
Number of AO pairs in the trafo            ... 421821
Total Number of distinct AO pairs          ... 421821
Memory devoted for trafo                   ... 2000.0 MB 
Max. Number of MO pairs treated together   ...  311      
Number Format for Storage                  ... Double (8 Byte)
Integral package used                      ... LIBINT

Starting integral evaluation:
    ... done with AO integral generation
Closing buffer AOK     (38.31 GB; CompressionRatio= 1.32)
Collecting buffer AOK 
Number of MO pairs included in the trafo   ... 8128
------------------------
SORTING OF (i,mue|j,nue)
------------------------

IBATCH = 1 of  2
IBATCH = 2 of  2
Closing buffer KAO     (51.03 GB; CompressionRatio= 1.00)
Collecting buffer KAO 
N(AO-Batches) Done                         ...  86107946 
N(AO-Batches) Skipped                      ...  82370665 
N(IJ)-pairs Skipped                        ...         0 
TOTAL TIME for half transformation         ...  2575.145 sec
AO-integral generation                     ...   177.522 sec
Half transformation                        ...   315.881 sec
K-integral sorting                         ...  1938.103 sec
Process 10:   Internal MO 132
Process 13:   Internal MO 156

Finished integral transformation - now doing MP2 part

Process  1:   Internal MO  60
OPERATOR COMBINATION   0   0: ij=( 52..178, 52..178)
Process  7:   Internal MO 108
Process  4:   Internal MO  84
Process  0:   Internal MO  54
Process  2:   Internal MO  69
Process  0:   Internal MO  57
Process  1:   Internal MO  63
Process  5:   Internal MO  93
Process  3:   Internal MO  78
Process  8:   Internal MO 117
Process  2:   Internal MO  72
Process  6:   Internal MO 102
Process  1:   Internal MO  66
Process 11:   Internal MO 141
Process 14:   Internal MO 165
Process  2:   Internal MO  75
Process  4:   Internal MO  87
Process  3:   Internal MO  81
Process  5:   Internal MO  96
Process  7:   Internal MO 111
Process  9:   Internal MO 126
Process  4:   Internal MO  90
Process  6:   Internal MO 105
Process  8:   Internal MO 120
Process 12:   Internal MO 150
Process 15:   Internal MO 174
Process 10:   Internal MO 135
Process  5:   Internal MO  99
Process 13:   Internal MO 159
Process  7:   Internal MO 114
Process 11:   Internal MO 144
Process  9:   Internal MO 129
Process  8:   Internal MO 123
Process 14:   Internal MO 168
Process 10:   Internal MO 138
Process 12:   Internal MO 153
Process 15:   Internal MO 177
Process 13:   Internal MO 162
Process 11:   Internal MO 147
Process 14:   Internal MO 171
-----------------------------------------------
 MP2 CORRELATION ENERGY   :     -7.289524717 Eh
-----------------------------------------------


-------
TIMINGS
-------
Total time                : 2860.118 sec
Integral trafo            : 2577.010 sec ( 90.1%)
K(i,j)                    :    7.160 sec (  0.3%)
T(i,j)                    :    0.334 sec (  0.0%)

---------------------------------------
MP2 TOTAL ENERGY:    -2130.793712178 Eh
---------------------------------------

Maximum memory used throughout the entire MP2-calculation: 2275.3 MB

-------------------------   --------------------
FINAL SINGLE POINT ENERGY     -2130.793712177520
-------------------------   --------------------


                            ***************************************
                            *     ORCA property calculations      *
                            ***************************************


  WARNING: The energy has been calculated at the MP2 level but the densities
           used in the property calculations are still SCF densities
           MP2 response densities have not been calculated 
           use %mp2 Density relaxed end
           or  %mp2 Density unrelaxed end

                                    ---------------------
                                    Active property flags
                                    ---------------------
   (+) Dipole Moment


------------------------------------------------------------------------------
                       ORCA ELECTRIC PROPERTIES CALCULATION
------------------------------------------------------------------------------

Dipole Moment Calculation                       ... on
Quadrupole Moment Calculation                   ... off
Polarizability Calculation                      ... off
GBWName                                         ... /scratch/allen/tmpyp4_amber_gaff2/conf1/conf1/Conf16.orca.gbw
Electron density                                ... /scratch/allen/tmpyp4_amber_gaff2/conf1/conf1/Conf16.orca.scfp
The origin for moment calculation is the CENTER OF MASS  = (-0.001032, -0.004841  0.002714)

-------------
DIPOLE MOMENT
-------------
                                X             Y             Z
Electronic contribution:      2.94110      -4.20886      -0.09898
Nuclear contribution   :     -0.04427       0.15688       0.11493
                        -----------------------------------------
Total Dipole Moment    :      2.89683      -4.05198       0.01595
                        -----------------------------------------
Magnitude (a.u.)       :      4.98100
Magnitude (Debye)      :     12.66071



--------------------
Rotational spectrum 
--------------------
 
Rotational constants in cm-1:     0.001503     0.001478     0.000760 
Rotational constants in MHz :    45.062305    44.295666    22.785055 

 Dipole components along the rotational axes: 
x,y,z [a.u.] :     3.585558     3.457423     0.020216 
x,y,z [Debye]:     9.113763     8.788072     0.051385 

 

Timings for individual modules:

Sum of individual times         ...     4250.620 sec (=  70.844 min)
GTO integral calculation        ...        2.635 sec (=   0.044 min)   0.1 %
SCF iterations                  ...     1369.910 sec (=  22.832 min)  32.2 %
MP2 module                      ...     2878.074 sec (=  47.968 min)  67.7 %
                             ****ORCA TERMINATED NORMALLY****
TOTAL RUN TIME: 0 days 1 hours 10 minutes 53 seconds 814 msec
# of primitive gaussian functions

