
                                 *****************
                                 * O   R   C   A *
                                 *****************

                                            #,                                       
                                            ###                                      
                                            ####                                     
                                            #####                                    
                                            ######                                   
                                           ########,                                 
                                     ,,################,,,,,                         
                               ,,#################################,,                 
                          ,,##########################################,,             
                       ,#########################################, ''#####,          
                    ,#############################################,,   '####,        
                  ,##################################################,,,,####,       
                ,###########''''           ''''###############################       
              ,#####''   ,,,,##########,,,,          '''####'''          '####       
            ,##' ,,,,###########################,,,                        '##       
           ' ,,###''''                  '''############,,,                           
         ,,##''                                '''############,,,,        ,,,,,,###''
      ,#''                                            '''#######################'''  
     '                                                          ''''####''''         
             ,#######,   #######,   ,#######,      ##                                
            ,#'     '#,  ##    ##  ,#'     '#,    #''#        ######   ,####,        
            ##       ##  ##   ,#'  ##            #'  '#       #        #'  '#        
            ##       ##  #######   ##           ,######,      #####,   #    #        
            '#,     ,#'  ##    ##  '#,     ,#' ,#      #,         ##   #,  ,#        
             '#######'   ##     ##  '#######'  #'      '#     #####' # '####'        



                  #######################################################
                  #                        -***-                        #
                  #          Department of theory and spectroscopy      #
                  #    Directorship and core code : Frank Neese         #
                  #        Max Planck Institute fuer Kohlenforschung    #
                  #                Kaiser Wilhelm Platz 1               #
                  #                 D-45470 Muelheim/Ruhr               #
                  #                      Germany                        #
                  #                                                     #
                  #                  All rights reserved                #
                  #                        -***-                        #
                  #######################################################


                         Program Version 5.0.4 -  RELEASE  -


 With contributions from (in alphabetic order):
   Daniel Aravena         : Magnetic Suceptibility
   Michael Atanasov       : Ab Initio Ligand Field Theory (pilot matlab implementation)
   Alexander A. Auer      : GIAO ZORA, VPT2 properties, NMR spectrum
   Ute Becker             : Parallelization
   Giovanni Bistoni       : ED, misc. LED, open-shell LED, HFLD
   Martin Brehm           : Molecular dynamics
   Dmytro Bykov           : SCF Hessian
   Vijay G. Chilkuri      : MRCI spin determinant printing, contributions to CSF-ICE
   Dipayan Datta          : RHF DLPNO-CCSD density
   Achintya Kumar Dutta   : EOM-CC, STEOM-CC
   Dmitry Ganyushin       : Spin-Orbit,Spin-Spin,Magnetic field MRCI
   Miquel Garcia          : C-PCM and meta-GGA Hessian, CC/C-PCM, Gaussian charge scheme
   Yang Guo               : DLPNO-NEVPT2, F12-NEVPT2, CIM, IAO-localization
   Andreas Hansen         : Spin unrestricted coupled pair/coupled cluster methods
   Benjamin Helmich-Paris : MC-RPA, TRAH-SCF, COSX integrals
   Lee Huntington         : MR-EOM, pCC
   Robert Izsak           : Overlap fitted RIJCOSX, COSX-SCS-MP3, EOM
   Marcus Kettner         : VPT2
   Christian Kollmar      : KDIIS, OOCD, Brueckner-CCSD(T), CCSD density, CASPT2, CASPT2-K
   Simone Kossmann        : Meta GGA functionals, TD-DFT gradient, OOMP2, MP2 Hessian
   Martin Krupicka        : Initial AUTO-CI
   Lucas Lang             : DCDCAS
   Marvin Lechner         : AUTO-CI (C++ implementation), FIC-MRCC
   Dagmar Lenk            : GEPOL surface, SMD
   Dimitrios Liakos       : Extrapolation schemes; Compound Job, initial MDCI parallelization
   Dimitrios Manganas     : Further ROCIS development; embedding schemes
   Dimitrios Pantazis     : SARC Basis sets
   Anastasios Papadopoulos: AUTO-CI, single reference methods and gradients
   Taras Petrenko         : DFT Hessian,TD-DFT gradient, ASA, ECA, R-Raman, ABS, FL, XAS/XES, NRVS
   Peter Pinski           : DLPNO-MP2, DLPNO-MP2 Gradient
   Christoph Reimann      : Effective Core Potentials
   Marius Retegan         : Local ZFS, SOC
   Christoph Riplinger    : Optimizer, TS searches, QM/MM, DLPNO-CCSD(T), (RO)-DLPNO pert. Triples
   Tobias Risthaus        : Range-separated hybrids, TD-DFT gradient, RPA, STAB
   Michael Roemelt        : Original ROCIS implementation
   Masaaki Saitow         : Open-shell DLPNO-CCSD energy and density
   Barbara Sandhoefer     : DKH picture change effects
   Avijit Sen             : IP-ROCIS
   Kantharuban Sivalingam : CASSCF convergence, NEVPT2, FIC-MRCI
   Bernardo de Souza      : ESD, SOC TD-DFT
   Georgi Stoychev        : AutoAux, RI-MP2 NMR, DLPNO-MP2 response
   Willem Van den Heuvel  : Paramagnetic NMR
   Boris Wezisla          : Elementary symmetry handling
   Frank Wennmohs         : Technical directorship


 We gratefully acknowledge several colleagues who have allowed us to
 interface, adapt or use parts of their codes:
   Stefan Grimme, W. Hujo, H. Kruse, P. Pracht,  : VdW corrections, initial TS optimization,
                  C. Bannwarth, S. Ehlert          DFT functionals, gCP, sTDA/sTD-DF
   Ed Valeev, F. Pavosevic, A. Kumar             : LibInt (2-el integral package), F12 methods
   Garnet Chan, S. Sharma, J. Yang, R. Olivares  : DMRG
   Ulf Ekstrom                                   : XCFun DFT Library
   Mihaly Kallay                                 : mrcc  (arbitrary order and MRCC methods)
   Jiri Pittner, Ondrej Demel                    : Mk-CCSD
   Frank Weinhold                                : gennbo (NPA and NBO analysis)
   Christopher J. Cramer and Donald G. Truhlar   : smd solvation model
   Lars Goerigk                                  : TD-DFT with DH, B97 family of functionals
   V. Asgeirsson, H. Jonsson                     : NEB implementation
   FAccTs GmbH                                   : IRC, NEB, NEB-TS, DLPNO-Multilevel, CI-OPT
                                                   MM, QMMM, 2- and 3-layer-ONIOM, Crystal-QMMM,
                                                   LR-CPCM, SF, NACMEs, symmetry and pop. for TD-DFT,
                                                   nearIR, NL-DFT gradient (VV10), updates on ESD,
                                                   ML-optimized integration grids
   S Lehtola, MJT Oliveira, MAL Marques          : LibXC Library
   Liviu Ungur et al                             : ANISO software


 Your calculation uses the libint2 library for the computation of 2-el integrals
 For citations please refer to: http://libint.valeyev.net

 Your ORCA version has been built with support for libXC version: 5.1.0
 For citations please refer to: https://tddft.org/programs/libxc/

 This ORCA versions uses:
   CBLAS   interface :  Fast vector & matrix operations
   LAPACKE interface :  Fast linear algebra routines
   SCALAPACK package :  Parallel linear algebra routines
   Shared memory     :  Shared parallel matrices
   BLAS/LAPACK       :  OpenBLAS 0.3.15  USE64BITINT DYNAMIC_ARCH NO_AFFINITY Sandybridge SINGLE_THREADED
        Core in use  :  Sandybridge
   Copyright (c) 2011-2014, The OpenBLAS Project


================================================================================

----- Orbital basis set information -----
Your calculation utilizes the basis: cc-pVDZ 
       H, B-Ne : Obtained from the ccRepo (grant-hill.group.shef.ac.uk/ccrepo) Feb. 2017
                 T. H. Dunning, Jr., J. Chem. Phys. 90, 1007 (1989)
            He : Obtained from the ccRepo (grant-hill.group.shef.ac.uk/ccrepo) Feb. 2017
                 D. E. Woon, T. H. Dunning, Jr., J. Chem. Phys. 100, 2975 (1994)
  Li-Be, Na-Mg : Obtained from the ccRepo (grant-hill.group.shef.ac.uk/ccrepo) Feb. 2017
                 B. P. Prascher, D. E. Woon, K. A. Peterson, T. H. Dunning, Jr., A. K. Wilson, Theor. Chem. Acc. 128, 69 (2011)
         Al-Ar : Obtained from the ccRepo (grant-hill.group.shef.ac.uk/ccrepo) Feb. 2017
                 D. E. Woon, T. H. Dunning, Jr., J. Chem. Phys. 98, 1358 (1993)
            Ca : Obtained from the Peterson Research Group Website (tyr0.chem.wsu.edu/~kipeters) Feb. 2017
                 J. Koput, K. A. Peterson, J. Phys. Chem. 106, 9595 (2002)
         Sc-Zn : Obtained from the ccRepo (grant-hill.group.shef.ac.uk/ccrepo) Feb. 2017
                 N. B. Balabanov, K. A. Peterson, J. Chem. Phys. 123, 064107 (2005)
                 N. B. Balabanov, K. A. Peterson, J. Chem. Phys. 125, 074110 (2006)
         Ga-Kr : Obtained from the ccRepo (grant-hill.group.shef.ac.uk/ccrepo) Feb. 2017
                 A. K. Wilson, D. E. Woon, K. A. Peterson, T. H. Dunning, Jr., J. Chem. Phys. 110, 7667 (1999)

================================================================================
                                        WARNINGS
                       Please study these warnings very carefully!
================================================================================


WARNING: No MP2 level density has been requested!
         To caclulate MP2 level properties use
         %mp2 Density relaxed end
         or
         %mp2 Density unrelaxed end

WARNING: Post HF methods need fully converged wavefunctions
  ===> : Setting SCFConvForced true
         You can overwrite this default with %scf ConvForced false 


INFO   : the flag for use of the SHARK integral package has been found!

================================================================================
                                       INPUT FILE
================================================================================
NAME = /scratch/allen/tmpyp4_amber_gaff2/2.Mdgx/conf11/conf11/Conf29.orca
|  1> ! PAL2
|  2> ! mp2 cc-pvdz TightSCF  NoKeepInts
|  3> 
|  4> %scf
|  5>   MaxCore 2000
|  6> end
|  7> %mp2
|  8>   MaxCore 2000
|  9> end
| 10> * xyz 0 1
| 11>    C       -3.13800         6.43400        -0.43100
| 12>    C        1.47400         4.04100         0.05700
| 13>    C       -2.80200         4.09300         0.04900
| 14>    C       -4.08900         4.07600         0.60900
| 15>    C       -4.85200         5.22600         0.62900
| 16>    C       -5.23100         7.59000         0.11800
| 17>    C        0.13200         4.30700         0.06100
| 18>    C       -0.56900         3.05600         0.04700
| 19>    C        1.64900         2.61800         0.02300
| 20>    C       -2.33900         5.30800        -0.47900
| 21>    N       -4.37300         6.38400         0.11700
| 22>    N        0.38800         2.06700         0.02500
| 23>    N       -2.01000         0.39500        -0.07500
| 24>    N       -0.38800        -2.07400        -0.02700
| 25>    N        2.01000        -0.40100         0.06500
| 26>    C       -1.96000         2.86100         0.02400
| 27>    C       -2.62300         1.61500        -0.01800
| 28>    C       -5.57300        -4.32900         1.06600
| 29>    C       -4.07300         1.47100         0.05600
| 30>    C       -4.10600        -2.75600        -0.02600
| 31>    C       -4.99500        -2.75700        -1.11100
| 32>    C       -6.13200        -3.54200        -1.07600
| 33>    C       -7.65100        -5.11300         0.04000
| 34>    C       -4.32400         0.14100         0.03700
| 35>    C       -3.02500        -0.52000        -0.04800
| 36>    C       -4.42200        -3.56600         1.07500
| 37>    N       -6.40700        -4.31300         0.00100
| 38>    C       -2.86700        -1.92200        -0.04000
| 39>    C       -1.65000        -2.62400        -0.02700
| 40>    C        3.56800        -6.14200        -1.04000
| 41>    C       -1.47600        -4.04900        -0.03400
| 42>    C        2.80300        -4.09900        -0.00800
| 43>    C        3.65700        -4.38400         1.06900
| 44>    C        4.42700        -5.53000         1.05900
| 45>    C        5.24500        -7.58800         0.01400
| 46>    C       -0.13400        -4.31500        -0.02200
| 47>    C        0.56800        -3.06400        -0.02700
| 48>    C        2.77500        -5.01200        -1.07400
| 49>    N        4.37600        -6.39100         0.01700
| 50>    C        1.95900        -2.86900        -0.00900
| 51>    C        2.62100        -1.62200         0.00900
| 52>    C        5.54300         4.33900        -1.13000
| 53>    C        4.07000        -1.47900        -0.09400
| 54>    C        4.10400         2.75100        -0.02100
| 55>    C        5.02700         2.72900         1.03600
| 56>    C        6.16600         3.50900         0.97800
| 57>    C        7.61900         5.15300        -0.11500
| 58>    C        4.32100        -0.14800        -0.09200
| 59>    C        3.02500         0.51400         0.01500
| 60>    C        4.38700         3.58200        -1.11500
| 61>    C        2.86600         1.91600         0.01300
| 62>    N        6.41300         4.29600        -0.09500
| 63>    H       -2.81700         7.39500        -0.81500
| 64>    H        2.27400         4.76600         0.08100
| 65>    H       -4.50600         3.16600         1.02400
| 66>    H       -5.85200         5.25900         1.04200
| 67>    H       -5.86300         7.57800        -0.77300
| 68>    H       -5.84900         7.58000         1.01600
| 69>    H       -4.59300         8.47300         0.11400
| 70>    H       -0.33200         5.28200         0.06900
| 71>    H       -1.34900         5.38900        -0.91200
| 72>    H        0.18200         1.07200         0.00500
| 73>    H       -0.18300        -1.08000        -0.02100
| 74>    H       -5.86400        -4.96200         1.89500
| 75>    H       -4.79400         2.27200         0.13900
| 76>    H       -4.80000        -2.16000        -1.99400
| 77>    H       -6.84100        -3.58200        -1.89300
| 78>    H       -8.42800        -4.53600         0.54600
| 79>    H       -7.95600        -5.33700        -0.98100
| 80>    H       -7.45600        -6.03700         0.58400
| 81>    H       -5.28700        -0.34400         0.10000
| 82>    H       -3.78000        -3.60100         1.94700
| 83>    H        3.58700        -6.86800        -1.84300
| 84>    H       -2.27600        -4.77400        -0.05000
| 85>    H        3.71400        -3.72400         1.92600
| 86>    H        5.09200        -5.79500         1.87100
| 87>    H        6.20500        -7.32900        -0.43900
| 88>    H        5.39300        -7.91700         1.04200
| 89>    H        4.75900        -8.37300        -0.56400
| 90>    H        0.32900        -5.29000        -0.00800
| 91>    H        2.14600        -4.84200        -1.94000
| 92>    H        5.80800         4.98600        -1.95600
| 93>    H        4.78800        -2.28100        -0.18500
| 94>    H        4.86000         2.11400         1.91200
| 95>    H        6.90100         3.53100         1.77200
| 96>    H        7.38300         6.10900         0.35600
| 97>    H        8.41400         4.65200         0.43500
| 98>    H        7.92100         5.31000        -1.15000
| 99>    H        5.28300         0.33600        -0.17900
|100>    H        3.72000         3.63200        -1.96700
|101> *
|102> 
|103>                          ****END OF INPUT****
================================================================================

                       ****************************
                       * Single Point Calculation *
                       ****************************

---------------------------------
CARTESIAN COORDINATES (ANGSTROEM)
---------------------------------
  C     -3.138000    6.434000   -0.431000
  C      1.474000    4.041000    0.057000
  C     -2.802000    4.093000    0.049000
  C     -4.089000    4.076000    0.609000
  C     -4.852000    5.226000    0.629000
  C     -5.231000    7.590000    0.118000
  C      0.132000    4.307000    0.061000
  C     -0.569000    3.056000    0.047000
  C      1.649000    2.618000    0.023000
  C     -2.339000    5.308000   -0.479000
  N     -4.373000    6.384000    0.117000
  N      0.388000    2.067000    0.025000
  N     -2.010000    0.395000   -0.075000
  N     -0.388000   -2.074000   -0.027000
  N      2.010000   -0.401000    0.065000
  C     -1.960000    2.861000    0.024000
  C     -2.623000    1.615000   -0.018000
  C     -5.573000   -4.329000    1.066000
  C     -4.073000    1.471000    0.056000
  C     -4.106000   -2.756000   -0.026000
  C     -4.995000   -2.757000   -1.111000
  C     -6.132000   -3.542000   -1.076000
  C     -7.651000   -5.113000    0.040000
  C     -4.324000    0.141000    0.037000
  C     -3.025000   -0.520000   -0.048000
  C     -4.422000   -3.566000    1.075000
  N     -6.407000   -4.313000    0.001000
  C     -2.867000   -1.922000   -0.040000
  C     -1.650000   -2.624000   -0.027000
  C      3.568000   -6.142000   -1.040000
  C     -1.476000   -4.049000   -0.034000
  C      2.803000   -4.099000   -0.008000
  C      3.657000   -4.384000    1.069000
  C      4.427000   -5.530000    1.059000
  C      5.245000   -7.588000    0.014000
  C     -0.134000   -4.315000   -0.022000
  C      0.568000   -3.064000   -0.027000
  C      2.775000   -5.012000   -1.074000
  N      4.376000   -6.391000    0.017000
  C      1.959000   -2.869000   -0.009000
  C      2.621000   -1.622000    0.009000
  C      5.543000    4.339000   -1.130000
  C      4.070000   -1.479000   -0.094000
  C      4.104000    2.751000   -0.021000
  C      5.027000    2.729000    1.036000
  C      6.166000    3.509000    0.978000
  C      7.619000    5.153000   -0.115000
  C      4.321000   -0.148000   -0.092000
  C      3.025000    0.514000    0.015000
  C      4.387000    3.582000   -1.115000
  C      2.866000    1.916000    0.013000
  N      6.413000    4.296000   -0.095000
  H     -2.817000    7.395000   -0.815000
  H      2.274000    4.766000    0.081000
  H     -4.506000    3.166000    1.024000
  H     -5.852000    5.259000    1.042000
  H     -5.863000    7.578000   -0.773000
  H     -5.849000    7.580000    1.016000
  H     -4.593000    8.473000    0.114000
  H     -0.332000    5.282000    0.069000
  H     -1.349000    5.389000   -0.912000
  H      0.182000    1.072000    0.005000
  H     -0.183000   -1.080000   -0.021000
  H     -5.864000   -4.962000    1.895000
  H     -4.794000    2.272000    0.139000
  H     -4.800000   -2.160000   -1.994000
  H     -6.841000   -3.582000   -1.893000
  H     -8.428000   -4.536000    0.546000
  H     -7.956000   -5.337000   -0.981000
  H     -7.456000   -6.037000    0.584000
  H     -5.287000   -0.344000    0.100000
  H     -3.780000   -3.601000    1.947000
  H      3.587000   -6.868000   -1.843000
  H     -2.276000   -4.774000   -0.050000
  H      3.714000   -3.724000    1.926000
  H      5.092000   -5.795000    1.871000
  H      6.205000   -7.329000   -0.439000
  H      5.393000   -7.917000    1.042000
  H      4.759000   -8.373000   -0.564000
  H      0.329000   -5.290000   -0.008000
  H      2.146000   -4.842000   -1.940000
  H      5.808000    4.986000   -1.956000
  H      4.788000   -2.281000   -0.185000
  H      4.860000    2.114000    1.912000
  H      6.901000    3.531000    1.772000
  H      7.383000    6.109000    0.356000
  H      8.414000    4.652000    0.435000
  H      7.921000    5.310000   -1.150000
  H      5.283000    0.336000   -0.179000
  H      3.720000    3.632000   -1.967000

----------------------------
CARTESIAN COORDINATES (A.U.)
----------------------------
  NO LB      ZA    FRAG     MASS         X           Y           Z
   0 C     6.0000    0    12.011   -5.929961   12.158498   -0.814472
   1 C     6.0000    0    12.011    2.785456    7.636383    0.107714
   2 C     6.0000    0    12.011   -5.295013    7.734649    0.092597
   3 C     6.0000    0    12.011   -7.727090    7.702524    1.150843
   4 C     6.0000    0    12.011   -9.168951    9.875709    1.188638
   5 C     6.0000    0    12.011   -9.885157   14.343021    0.222988
   6 C     6.0000    0    12.011    0.249444    8.139050    0.115273
   7 C     6.0000    0    12.011   -1.075254    5.775003    0.088817
   8 C     6.0000    0    12.011    3.116158    4.947303    0.043464
   9 C     6.0000    0    12.011   -4.420069   10.030666   -0.905179
  10 N     7.0000    0    14.007   -8.263772   12.064012    0.221098
  11 N     7.0000    0    14.007    0.733214    3.906064    0.047243
  12 N     7.0000    0    14.007   -3.798350    0.746442   -0.141729
  13 N     7.0000    0    14.007   -0.733214   -3.919292   -0.051023
  14 N     7.0000    0    14.007    3.798350   -0.757780    0.122832
  15 C     6.0000    0    12.011   -3.703863    5.406506    0.045353
  16 C     6.0000    0    12.011   -4.956752    3.051908   -0.034015
  17 C     6.0000    0    12.011  -10.531444   -8.180624    2.014448
  18 C     6.0000    0    12.011   -7.696855    2.779787    0.105825
  19 C     6.0000    0    12.011   -7.759216   -5.208085   -0.049133
  20 C     6.0000    0    12.011   -9.439182   -5.209975   -2.099486
  21 C     6.0000    0    12.011  -11.587801   -6.693410   -2.033345
  22 C     6.0000    0    12.011  -14.458295   -9.662170    0.075589
  23 C     6.0000    0    12.011   -8.171176    0.266451    0.069920
  24 C     6.0000    0    12.011   -5.716422   -0.982658   -0.090707
  25 C     6.0000    0    12.011   -8.356369   -6.738763    2.031456
  26 N     7.0000    0    14.007  -12.107475   -8.150389    0.001890
  27 C     6.0000    0    12.011   -5.417845   -3.632054   -0.075589
  28 C     6.0000    0    12.011   -3.118048   -4.958641   -0.051023
  29 C     6.0000    0    12.011    6.742543  -11.606698   -1.965315
  30 C     6.0000    0    12.011   -2.789236   -7.651501   -0.064251
  31 C     6.0000    0    12.011    5.296902   -7.745987   -0.015118
  32 C     6.0000    0    12.011    6.910728   -8.284559    2.020117
  33 C     6.0000    0    12.011    8.365818  -10.450186    2.001220
  34 C     6.0000    0    12.011    9.911614  -14.339242    0.026456
  35 C     6.0000    0    12.011   -0.253223   -8.154168   -0.041574
  36 C     6.0000    0    12.011    1.073364   -5.790121   -0.051023
  37 C     6.0000    0    12.011    5.243990   -9.471307   -2.029566
  38 N     7.0000    0    14.007    8.269442  -12.077240    0.032125
  39 C     6.0000    0    12.011    3.701973   -5.421624   -0.017008
  40 C     6.0000    0    12.011    4.952972   -3.065136    0.017008
  41 C     6.0000    0    12.011   10.474752    8.199522   -2.135391
  42 C     6.0000    0    12.011    7.691185   -2.794905   -0.177634
  43 C     6.0000    0    12.011    7.755436    5.198637   -0.039684
  44 C     6.0000    0    12.011    9.499653    5.157063    1.957756
  45 C     6.0000    0    12.011   11.652051    6.631049    1.848152
  46 C     6.0000    0    12.011   14.397823    9.737759   -0.217319
  47 C     6.0000    0    12.011    8.165507   -0.279679   -0.173855
  48 C     6.0000    0    12.011    5.716422    0.971319    0.028346
  49 C     6.0000    0    12.011    8.290229    6.768999   -2.107045
  50 C     6.0000    0    12.011    5.415955    3.620715    0.024566
  51 N     7.0000    0    14.007   12.118814    8.118263   -0.179524
  52 H     1.0000    0     1.008   -5.323359   13.974525   -1.540127
  53 H     1.0000    0     1.008    4.297237    9.006435    0.153068
  54 H     1.0000    0     1.008   -8.515106    5.982873    1.935080
  55 H     1.0000    0     1.008  -11.058677    9.938070    1.969095
  56 H     1.0000    0     1.008  -11.079464   14.320345   -1.460758
  57 H     1.0000    0     1.008  -11.053008   14.324124    1.919962
  58 H     1.0000    0     1.008   -8.679512   16.011650    0.215429
  59 H     1.0000    0     1.008   -0.627389    9.981533    0.130391
  60 H     1.0000    0     1.008   -2.549241   10.183734   -1.723430
  61 H     1.0000    0     1.008    0.343930    2.025786    0.009449
  62 H     1.0000    0     1.008   -0.345820   -2.040904   -0.039684
  63 H     1.0000    0     1.008  -11.081354   -9.376821    3.581031
  64 H     1.0000    0     1.008   -9.059347    4.293458    0.262672
  65 H     1.0000    0     1.008   -9.070685   -4.081808   -3.768114
  66 H     1.0000    0     1.008  -12.927616   -6.768999   -3.577252
  67 H     1.0000    0     1.008  -15.926612   -8.571798    1.031790
  68 H     1.0000    0     1.008  -15.034661  -10.085468   -1.853821
  69 H     1.0000    0     1.008  -14.089798  -11.408277    1.103600
  70 H     1.0000    0     1.008   -9.990982   -0.650066    0.188973
  71 H     1.0000    0     1.008   -7.143165   -6.804904    3.679297
  72 H     1.0000    0     1.008    6.778448  -12.978639   -3.482765
  73 H     1.0000    0     1.008   -4.301017   -9.021553   -0.094486
  74 H     1.0000    0     1.008    7.018443   -7.037340    3.639613
  75 H     1.0000    0     1.008    9.622485  -10.950963    3.535678
  76 H     1.0000    0     1.008   11.725751  -13.849803   -0.829590
  77 H     1.0000    0     1.008   10.191293  -14.960962    1.969095
  78 H     1.0000    0     1.008    8.993207  -15.822677   -1.065806
  79 H     1.0000    0     1.008    0.621720   -9.996651   -0.015118
  80 H     1.0000    0     1.008    4.055352   -9.150054   -3.666069
  81 H     1.0000    0     1.008   10.975529    9.422175   -3.696304
  82 H     1.0000    0     1.008    9.048009   -4.310465   -0.349599
  83 H     1.0000    0     1.008    9.184069    3.994881    3.613156
  84 H     1.0000    0     1.008   13.041000    6.672623    3.348595
  85 H     1.0000    0     1.008   13.951848   11.544337    0.672743
  86 H     1.0000    0     1.008   15.900156    8.791006    0.822031
  87 H     1.0000    0     1.008   14.968521   10.034446   -2.173185
  88 H     1.0000    0     1.008    9.983423    0.634948   -0.338261
  89 H     1.0000    0     1.008    7.029781    6.863485   -3.717091

--------------------------------
INTERNAL COORDINATES (ANGSTROEM)
--------------------------------
 C      0   0   0     0.000000000000     0.00000000     0.00000000
 C      1   0   0     5.218729443073     0.00000000     0.00000000
 C      1   2   0     2.413208859589    54.09337531     0.00000000
 C      3   1   2     1.403658790447    87.90489223   157.16460178
 C      4   3   1     1.380242370021   120.16871334     0.09726003
 C      5   4   3     2.448113150980   152.51310212     1.75307801
 C      2   1   3     1.368114030335    17.10810888   351.92268838
 C      7   2   1     1.434084376876   108.05010202   160.24790577
 C      2   1   3     1.434123425651   124.09773841    15.58916932
 C      1   2   3     1.381514024540    28.16455790   335.26961547
 N      1   2   3     1.352046227020   138.79671969    36.20039961
 N      9   2   1     1.376127174356   106.58526707   352.09607100
 N     12   9   2     2.925062050624   168.53581413   171.12065651
 N     13  12   9     2.954513327098    91.55032014    11.12112580
 N     14  13  12     2.925371258490    88.43092389   359.84326247
 C      8   7   2     1.404790019896   127.24786865   181.11170171
 C     13  12   9     1.366535034311    81.72106996   188.00453233
 C     14  13  12     5.758810554272    80.56209567   166.76250791
 C     17  13  12     1.459010623676   111.08861209   183.82872609
 C     18  14  13     2.412235892279    27.27532823    36.33507194
 C     20  18  14     1.402692767501    87.95206320   148.94598259
 C     21  20  18     1.382106725257   120.14573887   359.70382047
 C     18  14  13     2.446510985056   144.15733107    82.80075377
 C     19  17  13     1.353610726908   106.29293361   359.75308708
 C     13  12   9     1.366813447402   172.21332906    33.46711076
 C     18  14  13     1.380960173213    15.08449437   309.23336894
 N     22  21  20     1.352773077792   120.73759875     0.27865223
 C     25  13  17     1.410897586645   125.60330303   182.37774668
 C     14  13  12     1.376642291955    80.24689249   177.85461986
 C     14  13  12     5.764089607215   164.51507311   312.20821879
 C     29  14  13     1.435600919476   106.58649366   178.76395472
 C     30  14  13     2.413316804732    27.10625047    82.12560436
 C     32  30  14     1.403734305344    87.90059683   149.76154742
 C     33  32  30     1.380694028378   120.14881443   359.74174632
 C     34  33  32     2.448777858443   152.49203239     2.45173620
 C     31  29  14     1.368160809262   108.16950133     0.70383075
 C     14  13  12     1.376239804685   169.26375223   353.09862627
 C     30  14  13     1.380907310430    14.68948582   353.70041132
 N     34  33  32     1.352658863128   120.85575621     0.19603406
 C     37  14  29     1.404717053360   126.01551127   180.90772073
 C     15  14  13     1.366491126938    81.61824056   183.09049352
 C      2   1   3     4.249062720177   141.99978625   155.12434529
 C     41  15  14     1.459677704153   111.05201287   175.08990246
 C     42   2   1     2.412953791518    41.78584867   188.91634890
 C     44  42   2     1.403446472082    87.95153797   233.97558675
 C     45  44  42     1.381696421071   120.11137308     0.19721020
 C     42   2   1     2.450019795838   135.97209175    99.23119800
 C     43  41  15     1.354461516618   106.26758155     0.30894352
 C     15  14  13     1.367461151185   171.87382904   332.35056460
 C     42   2   1     1.381886391857    32.59078432   237.77162809
 C      9   2   1     1.404988612053   126.98745415   173.10040853
 N     42   2   1     1.352765315936   113.57249190   126.96778719
 H      1   2   3     1.083521111931   100.25425060   189.87538874
 H      2   1   3     1.079907866440   110.42086126   189.65214803
 H      4   3   1     1.083611554017   121.05122576   179.56342270
 H      5   4   3     1.082431522083   122.79490232   179.45595006
 H      6   5   4     1.092450914229   104.42994935   100.01950349
 H      6   5   4     1.090150448333    84.66170031   209.43904961
 H      6   5   4     1.089380098955   133.85239752   322.21933233
 H      7   2   1     1.079807853278   126.66122480   340.48631956
 H     10   1   2     1.083582022738   118.77425898   318.82463031
 H     12   9   2     1.016297692608   125.29023241   180.00180175
 H     14  13  12     1.014936943854    44.97226959   359.42596618
 H     18  14  13     1.082871645210   128.03556573   234.20482432
 H     19  17  13     1.080893611786   126.41830519   178.11313280
 H     21  20  18     1.083569563987   121.05669627   180.67006309
 H     22  21  20     1.082483256222   122.73097286   180.59748951
 H     23  18  14     1.092105306278   103.92715769   234.93429879
 H     23  18  14     1.088871893291   134.19244188    12.25587044
 H     23  18  14     1.089833473518    84.85857450   125.45241208
 H     24  19  17     1.080075460327   127.28078426   178.44613241
 H     26  18  14     1.083408048706   118.76995697   244.94906660
 H     30  14  13     1.082703098730   127.99711412   279.66882698
 H     31  29  14     1.079759695488   125.22293469   180.92530585
 H     33  32  30     1.083188810873   121.01964473   180.74284758
 H     34  33  32     1.082494341787   122.70821597   180.59516895
 H     35  34  33     1.092652735319   105.73575241    97.19771933
 H     35  34  33     1.089462711615    84.05943581   206.43036958
 H     35  34  33     1.089268102902   133.08365142   318.50306270
 H     36  31  29     1.079439669458   126.61599965   178.98859863
 H     38  30  73     1.083742127999   118.77264435   359.90091293
 H     42   2   1     1.082178358682   119.31790784   343.59931765
 H     43  41  15     1.080281907652   126.36969097   182.06329380
 H     45  44  42     1.083277434455   121.10105945   179.58025624
 H     46  45  44     1.082194529648   122.72144639   179.46906377
 H     47  42   2     1.091546151109   106.65128841   315.16475048
 H     47  42   2     1.088818625851   132.46019523    94.52397119
 H     47  42   2     1.089531091801    83.63838232   206.04504406
 H     48  43  41     1.080402239909   127.23657387   181.62955349
 H     50  42   2     1.083186502870   118.77001737    94.71359229

---------------------------
INTERNAL COORDINATES (A.U.)
---------------------------
 C      0   0   0     0.000000000000     0.00000000     0.00000000
 C      1   0   0     9.861969414440     0.00000000     0.00000000
 C      1   2   0     4.560303848576    54.09337531     0.00000000
 C      3   1   2     2.652530699417    87.90489223   157.16460178
 C      4   3   1     2.608280077773   120.16871334     0.09726003
 C      5   4   3     4.626263400203   152.51310212     1.75307801
 C      2   1   3     2.585360837309    17.10810888   351.92268838
 C      7   2   1     2.710026725231   108.05010202   160.24790577
 C      2   1   3     2.710100516721   124.09773841    15.58916932
 C      1   2   3     2.610683156551    28.16455790   335.26961547
 N      1   2   3     2.554997089470   138.79671969    36.20039961
 N      9   2   1     2.600503484979   106.58526707   352.09607100
 N     12   9   2     5.527566200405   168.53581413   171.12065651
 N     13  12   9     5.583221047236    91.55032014    11.12112580
 N     14  13  12     5.528150518591    88.43092389   359.84326247
 C      8   7   2     2.654668413270   127.24786865   181.11170171
 C     13  12   9     2.582376967257    81.72106996   188.00453233
 C     14  13  12    10.882574804710    80.56209567   166.76250791
 C     17  13  12     2.757130505230   111.08861209   183.82872609
 C     18  14  13     4.558465206823    27.27532823    36.33507194
 C     20  18  14     2.650705180609    87.95206320   148.94598259
 C     21  20  18     2.611803198586   120.14573887   359.70382047
 C     18  14  13     4.623235745386   144.15733107    82.80075377
 C     19  17  13     2.557953565794   106.29293361   359.75308708
 C     13  12   9     2.582903091751   172.21332906    33.46711076
 C     18  14  13     2.609636529225    15.08449437   309.23336894
 N     22  21  20     2.556370638369   120.73759875     0.27865223
 C     25  13  17     2.666210041769   125.60330303   182.37774668
 C     14  13  12     2.601476916169    80.24689249   177.85461986
 C     14  13  12    10.892550769017   164.51507311   312.20821879
 C     29  14  13     2.712892575415   106.58649366   178.76395472
 C     30  14  13     4.560507835333    27.10625047    82.12560436
 C     32  30  14     2.652673401891    87.90059683   149.76154742
 C     33  32  30     2.609133588376   120.14881443   359.74174632
 C     34  33  32     4.627519515267   152.49203239     2.45173620
 C     31  29  14     2.585449236669   108.16950133     0.70383075
 C     14  13  12     2.600716325456   169.26375223   353.09862627
 C     30  14  13     2.609536633043    14.68948582   353.70041132
 N     34  33  32     2.556154803934   120.85575621     0.19603406
 C     37  14  29     2.654530526499   126.01551127   180.90772073
 C     15  14  13     2.582293994346    81.61824056   183.09049352
 C      2   1   3     8.029564866989   141.99978625   155.12434529
 C     41  15  14     2.758391104639   111.05201287   175.08990246
 C     42   2   1     4.559821839776    41.78584867   188.91634890
 C     44  42   2     2.652129475853    87.95153797   233.97558675
 C     45  44  42     2.611027836043   120.11137308     0.19721020
 C     42   2   1     4.629866436820   135.97209175    99.23119800
 C     43  41  15     2.559561325344   106.26758155     0.30894352
 C     15  14  13     2.584127074516   171.87382904   332.35056460
 C     42   2   1     2.611386828803    32.59078432   237.77162809
 C      9   2   1     2.655043698059   126.98745415   173.10040853
 N     42   2   1     2.556355970587   113.57249190   126.96778719
 H      1   2   3     2.047558161871   100.25425060   189.87538874
 H      2   1   3     2.040730117440   110.42086126   189.65214803
 H      4   3   1     2.047729072646   121.05122576   179.56342270
 H      5   4   3     2.045499135461   122.79490232   179.45595006
 H      6   5   4     2.064433042645   104.42994935   100.01950349
 H      6   5   4     2.060085792120    84.66170031   209.43904961
 H      6   5   4     2.058630042770   133.85239752   322.21933233
 H      7   2   1     2.040541119952   126.66122480   340.48631956
 H     10   1   2     2.047673266614   118.77425898   318.82463031
 H     12   9   2     1.920524309565   125.29023241   180.00180175
 H     14  13  12     1.917952867083    44.97226959   359.42596618
 H     18  14  13     2.046330847636   128.03556573   234.20482432
 H     19  17  13     2.042592906181   126.41830519   178.11313280
 H     21  20  18     2.047649722989   121.05669627   180.67006309
 H     22  21  20     2.045596898814   122.73097286   180.59748951
 H     23  18  14     2.063779938267   103.92715769   234.93429879
 H     23  18  14     2.057669673245   134.19244188    12.25587044
 H     23  18  14     2.059486796529    84.85857450   125.45241208
 H     24  19  17     2.041046823986   127.28078426   178.44613241
 H     26  18  14     2.047344503340   118.76995697   244.94906660
 H     30  14  13     2.046012340948   127.99711412   279.66882698
 H     31  29  14     2.040450114918   125.22293469   180.92530585
 H     33  32  30     2.046930203877   121.01964473   180.74284758
 H     34  33  32     2.045617847496   122.70821597   180.59516895
 H     35  34  33     2.064814429233   105.73575241    97.19771933
 H     35  34  33     2.058786158072    84.05943581   206.43036958
 H     35  34  33     2.058418400901   133.08365142   318.50306270
 H     36  31  29     2.039845353366   126.61599965   178.98859863
 H     38  30  73     2.047975821711   118.77264435   359.90091293
 H     42   2   1     2.045020725966   119.31790784   343.59931765
 H     43  41  15     2.041436952892   126.36969097   182.06329380
 H     45  44  42     2.047097678177   121.10105945   179.58025624
 H     46  45  44     2.045051284662   122.72144639   179.46906377
 H     47  42   2     2.062723288131   106.65128841   315.16475048
 H     47  42   2     2.057569012371   132.46019523    94.52397119
 H     47  42   2     2.058915377895    83.63838232   206.04504406
 H     48  43  41     2.041664347903   127.23657387   181.62955349
 H     50  42   2     2.046925842384   118.77001737    94.71359229

---------------------
BASIS SET INFORMATION
---------------------
There are 3 groups of distinct atoms

 Group   1 Type C   : 17s4p1d contracted to 3s2p1d pattern {881/31/1}
 Group   2 Type N   : 17s4p1d contracted to 3s2p1d pattern {881/31/1}
 Group   3 Type H   : 4s1p contracted to 2s1p pattern {31/1}

Atom   0C    basis set group =>   1
Atom   1N    basis set group =>   2
Atom   2C    basis set group =>   1
Atom   3N    basis set group =>   2
Atom   4C    basis set group =>   1
Atom   5N    basis set group =>   2
Atom   6C    basis set group =>   1
Atom   7N    basis set group =>   2
Atom   8C    basis set group =>   1
Atom   9N    basis set group =>   2
Atom  10C    basis set group =>   1
Atom  11N    basis set group =>   2
Atom  12C    basis set group =>   1
Atom  13N    basis set group =>   2
Atom  14C    basis set group =>   1
Atom  15N    basis set group =>   2
Atom  16C    basis set group =>   1
Atom  17C    basis set group =>   1
Atom  18C    basis set group =>   1
Atom  19C    basis set group =>   1
Atom  20C    basis set group =>   1
Atom  21C    basis set group =>   1
Atom  22C    basis set group =>   1
Atom  23C    basis set group =>   1
Atom  24C    basis set group =>   1
Atom  25C    basis set group =>   1
Atom  26C    basis set group =>   1
Atom  27C    basis set group =>   1
Atom  28C    basis set group =>   1
Atom  29C    basis set group =>   1
Atom  30C    basis set group =>   1
Atom  31C    basis set group =>   1
Atom  32C    basis set group =>   1
Atom  33C    basis set group =>   1
Atom  34C    basis set group =>   1
Atom  35C    basis set group =>   1
Atom  36C    basis set group =>   1
Atom  37C    basis set group =>   1
Atom  38C    basis set group =>   1
Atom  39C    basis set group =>   1
Atom  40C    basis set group =>   1
Atom  41C    basis set group =>   1
Atom  42C    basis set group =>   1
Atom  43C    basis set group =>   1
Atom  44C    basis set group =>   1
Atom  45C    basis set group =>   1
Atom  46C    basis set group =>   1
Atom  47C    basis set group =>   1
Atom  48C    basis set group =>   1
Atom  49C    basis set group =>   1
Atom  50C    basis set group =>   1
Atom  51C    basis set group =>   1
Atom  52H    basis set group =>   3
Atom  53H    basis set group =>   3
Atom  54H    basis set group =>   3
Atom  55H    basis set group =>   3
Atom  56H    basis set group =>   3
Atom  57H    basis set group =>   3
Atom  58H    basis set group =>   3
Atom  59H    basis set group =>   3
Atom  60H    basis set group =>   3
Atom  61H    basis set group =>   3
Atom  62H    basis set group =>   3
Atom  63H    basis set group =>   3
Atom  64H    basis set group =>   3
Atom  65H    basis set group =>   3
Atom  66H    basis set group =>   3
Atom  67H    basis set group =>   3
Atom  68H    basis set group =>   3
Atom  69H    basis set group =>   3
Atom  70H    basis set group =>   3
Atom  71H    basis set group =>   3
Atom  72H    basis set group =>   3
Atom  73H    basis set group =>   3
Atom  74H    basis set group =>   3
Atom  75H    basis set group =>   3
Atom  76H    basis set group =>   3
Atom  77H    basis set group =>   3
Atom  78H    basis set group =>   3
Atom  79H    basis set group =>   3
Atom  80H    basis set group =>   3
Atom  81H    basis set group =>   3
Atom  82H    basis set group =>   3
Atom  83H    basis set group =>   3
Atom  84H    basis set group =>   3
Atom  85H    basis set group =>   3
Atom  86H    basis set group =>   3
Atom  87H    basis set group =>   3
Atom  88H    basis set group =>   3
Atom  89H    basis set group =>   3


           ************************************************************
           *        Program running with 16 parallel MPI-processes    *
           *              working on a common directory               *
           ************************************************************
------------------------------------------------------------------------------
                           ORCA GTO INTEGRAL CALCULATION
------------------------------------------------------------------------------
------------------------------------------------------------------------------
                   ___                                                        
                  /   \      - P O W E R E D   B Y -                         
                 /     \                                                     
                 |  |  |   _    _      __       _____    __    __             
                 |  |  |  | |  | |    /  \     |  _  \  |  |  /  |          
                  \  \/   | |  | |   /    \    | | | |  |  | /  /          
                 / \  \   | |__| |  /  /\  \   | |_| |  |  |/  /          
                |  |  |   |  __  | /  /__\  \  |    /   |      \           
                |  |  |   | |  | | |   __   |  |    \   |  |\   \          
                \     /   | |  | | |  |  |  |  | |\  \  |  | \   \       
                 \___/    |_|  |_| |__|  |__|  |_| \__\ |__|  \__/        
                                                                              
                      - O R C A' S   B I G   F R I E N D -                    
                                      &                                       
                       - I N T E G R A L  F E E D E R -                       
                                                                              
 v1 FN, 2020, v2 2021                                                         
------------------------------------------------------------------------------


Reading SHARK input file /scratch/allen/tmpyp4_amber_gaff2/conf1/conf1/Conf29.orca.SHARKINP.tmp ... ok
----------------------
SHARK INTEGRAL PACKAGE
----------------------

Number of atoms                             ...     90
Number of basis functions                   ...   1230
Number of shells                            ...    738
Maximum angular momentum                    ...      2
Integral batch strategy                     ... SHARK/LIBINT Hybrid
RI-J (if used) integral strategy            ... SPLIT-RIJ (Revised 2003 algorithm where possible)
Printlevel                                  ...      1
Contraction scheme used                     ... PARTIAL GENERAL contraction
Coulomb Range Separation                    ... NOT USED
Exchange Range Separation                   ... NOT USED
Finite Nucleus Model                        ... NOT USED
Auxiliary Coulomb fitting basis             ... NOT available
Auxiliary J/K fitting basis                 ... NOT available
Auxiliary Correlation fitting basis         ... NOT available
Auxiliary 'external' fitting basis          ... NOT available
Integral threshold                          ...     2.500000e-11
Primitive cut-off                           ...     2.500000e-12
Primitive pair pre-selection threshold      ...     2.500000e-12

Calculating pre-screening integrals         ... done (  0.1 sec) Dimension = 738
Calculating pre-screening integrals (ORCA)  ... done (  0.3 sec) Dimension = 426
Organizing shell pair data                  ... done (  0.5 sec)
Shell pair information
Total number of shell pairs                 ...    272691
Shell pairs after pre-screening             ...     71677
Total number of primitive shell pairs       ...    422091
Primitive shell pairs kept                  ...     92549
          la=0 lb=0:  29430 shell pairs
          la=1 lb=0:  26010 shell pairs
          la=1 lb=1:   4703 shell pairs
          la=2 lb=0:   7883 shell pairs
          la=2 lb=1:   3122 shell pairs
          la=2 lb=2:    529 shell pairs

Calculating one electron integrals          ... done (  0.2 sec)
Calculating Nuclear repulsion               ... done (  0.0 sec) ENN=   6232.184037068557 Eh

SHARK setup successfully completed in   1.7 seconds

Maximum memory used throughout the entire GTOINT-calculation: 99.0 MB


           ************************************************************
           *        Program running with 16 parallel MPI-processes    *
           *              working on a common directory               *
           ************************************************************
-------------------------------------------------------------------------------
                                 ORCA SCF
-------------------------------------------------------------------------------

------------
SCF SETTINGS
------------
Hamiltonian:
 Ab initio Hamiltonian  Method          .... Hartree-Fock(GTOs)


General Settings:
 Integral files         IntName         .... /scratch/allen/tmpyp4_amber_gaff2/conf1/conf1/Conf29.orca
 Hartree-Fock type      HFTyp           .... RHF
 Total Charge           Charge          ....    0
 Multiplicity           Mult            ....    1
 Number of Electrons    NEL             ....  358
 Basis Dimension        Dim             ....  918
 Nuclear Repulsion      ENuc            ....   6232.1840370686 Eh

Convergence Acceleration:
 DIIS                   CNVDIIS         .... on
   Start iteration      DIISMaxIt       ....    12
   Startup error        DIISStart       ....  0.200000
   # of expansion vecs  DIISMaxEq       ....     5
   Bias factor          DIISBfac        ....   1.050
   Max. coefficient     DIISMaxC        ....  10.000
 Trust-Rad. Augm. Hess. CNVTRAH         .... auto
   Auto Start mean grad. ratio tolernc. ....  1.125000
   Auto Start start iteration           ....    20
   Auto Start num. interpolation iter.  ....    10
   Max. Number of Micro iterations      ....    16
   Max. Number of Macro iterations      .... Maxiter - #DIIS iter
   Number of Davidson start vectors     ....     2
   Converg. threshold I  (grad. norm)   ....   1.000e-05
   Converg. threshold II (energy diff.) ....   1.000e-08
   Grad. Scal. Fac. for Micro threshold ....   0.100
   Minimum threshold for Micro iter.    ....   0.010
   NR start threshold (gradient norm)   ....   0.001
   Initial trust radius                 ....   0.400
   Minimum AH scaling param. (alpha)    ....   1.000
   Maximum AH scaling param. (alpha)    .... 1000.000
   Orbital update algorithm             .... Taylor
   White noise on init. David. guess    .... on
   Maximum white noise                  ....   0.010
   Quad. conv. algorithm                .... NR
 SOSCF                  CNVSOSCF        .... on
   Start iteration      SOSCFMaxIt      ....   150
   Startup grad/error   SOSCFStart      ....  0.003300
 Level Shifting         CNVShift        .... on
   Level shift para.    LevelShift      ....    0.2500
   Turn off err/grad.   ShiftErr        ....    0.0010
 Zerner damping         CNVZerner       .... off
 Static damping         CNVDamp         .... on
   Fraction old density DampFac         ....    0.7000
   Max. Damping (<1)    DampMax         ....    0.9800
   Min. Damping (>=0)   DampMin         ....    0.0000
   Turn off err/grad.   DampErr         ....    0.1000
 Fernandez-Rico         CNVRico         .... off

SCF Procedure:
 Maximum # iterations   MaxIter         ....   125
 SCF integral mode      SCFMode         .... Direct
   Integral package                     .... SHARK and LIBINT hybrid scheme
 Reset frequency        DirectResetFreq ....    20
 Integral Threshold     Thresh          ....  2.500e-11 Eh
 Primitive CutOff       TCut            ....  2.500e-12 Eh

Convergence Tolerance:
 Convergence Check Mode ConvCheckMode   .... Total+1el-Energy
 Convergence forced     ConvForced      .... 1
 Energy Change          TolE            ....  1.000e-08 Eh
 1-El. energy change                    ....  1.000e-05 Eh
 Orbital Gradient       TolG            ....  1.000e-05
 Orbital Rotation angle TolX            ....  1.000e-05
 DIIS Error             TolErr          ....  5.000e-07


Diagonalization of the overlap matrix:
Smallest eigenvalue                        ... 2.160e-04
Time for diagonalization                   ...    0.357 sec
Threshold for overlap eigenvalues          ... 1.000e-08
Number of eigenvalues below threshold      ... 0
Time for construction of square roots      ...    0.192 sec
Total time needed                          ...    0.555 sec

Time for model grid setup =    1.002 sec

------------------------------
INITIAL GUESS: MODEL POTENTIAL
------------------------------
Loading Hartree-Fock densities                     ... done
Calculating cut-offs                               ... done
Initializing the effective Hamiltonian             ... done
Setting up the integral package (SHARK)            ... done
Starting the Coulomb interaction                   ... done (   1.1 sec)
Reading the grid                                   ... done
Mapping shells                                     ... done
Starting the XC term evaluation                    ... done (   0.2 sec)
Transforming the Hamiltonian                       ... done (   0.2 sec)
Diagonalizing the Hamiltonian                      ... done (   0.3 sec)
Back transforming the eigenvectors                 ... done (   0.1 sec)
Now organizing SCF variables                       ... done
                      ------------------
                      INITIAL GUESS DONE (   2.9 sec)
                      ------------------
--------------
SCF ITERATIONS
--------------
ITER       Energy         Delta-E        Max-DP      RMS-DP      [F,P]     Damp
               ***  Starting incremental Fock matrix formation  ***
  0  -2121.6718430218   0.000000000000 0.07407496  0.00122704  0.2318820 0.7000
  1  -2122.3233306309  -0.651487609093 0.05602170  0.00099876  0.1437124 0.7000
                               ***Turning on DIIS***
  2  -2122.7287036417  -0.405373010717 0.13100377  0.00226556  0.0802524 0.0000
  3  -2117.9581543096   4.770549332032 0.04478169  0.00068027  0.0437617 0.0000
  4  -2123.4082498275  -5.450095517872 0.01342370  0.00022668  0.0085251 0.0000
  5  -2123.5605437108  -0.152293883275 0.00643909  0.00013280  0.0049301 0.0000
  6  -2123.5447252330   0.015818477779 0.00377776  0.00008528  0.0020803 0.0000
  7  -2123.6408480347  -0.096122801735 0.00304959  0.00006726  0.0015819 0.0000
  8  -2123.6508779633  -0.010029928560 0.00323612  0.00006381  0.0014772 0.0000
  9  -2123.6213939919   0.029483971368 0.00258542  0.00004480  0.0011835 0.0000
 10  -2123.6304344452  -0.009040453258 0.00518385  0.00009328  0.0009184 0.0000
                      *** Initiating the SOSCF procedure ***
                           *** Shutting down DIIS ***
                      *** Re-Reading the Fockian *** 
                      *** Removing any level shift *** 
ITER      Energy       Delta-E        Grad      Rot      Max-DP    RMS-DP
 11  -2123.52174691   0.1086875391  0.000184  0.000184  0.000238  0.000005
               *** Restarting incremental Fock matrix formation ***
 12  -2123.58814700  -0.0664000910  0.000879  0.006065  0.001378  0.000034
 13  -2123.58825249  -0.0001054962  0.001093  0.030417  0.006360  0.000134
 14  -2123.58843375  -0.0001812568  0.000348  0.001823  0.000663  0.000012
 15  -2123.58844941  -0.0000156650  0.000182  0.002689  0.000684  0.000017
 16  -2123.58845852  -0.0000091057  0.000152  0.002673  0.000446  0.000010
 17  -2123.58846155  -0.0000030338  0.000141  0.001874  0.000327  0.000007
 18  -2123.58846321  -0.0000016579  0.000070  0.001001  0.000282  0.000004
 19  -2123.58846403  -0.0000008208  0.000045  0.001017  0.000198  0.000004
 20  -2123.58846438  -0.0000003502  0.000027  0.000708  0.000114  0.000003
 21  -2123.58846458  -0.0000001963  0.000024  0.000866  0.000144  0.000003
 22  -2123.58846475  -0.0000001661  0.000022  0.000756  0.000127  0.000002
 23  -2123.58846485  -0.0000000996  0.000014  0.000479  0.000080  0.000002
 24  -2123.58846490  -0.0000000517  0.000009  0.000348  0.000052  0.000001
 25  -2123.58846493  -0.0000000332  0.000009  0.000191  0.000037  0.000001
 26  -2123.58846495  -0.0000000166  0.000007  0.000149  0.000033  0.000001
 27  -2123.58846495  -0.0000000061  0.000004  0.000106  0.000023  0.000000
                  ***Gradient check signals convergence***
              ***Rediagonalizing the Fockian in SOSCF/NRSCF***

               *****************************************************
               *                     SUCCESS                       *
               *           SCF CONVERGED AFTER  28 CYCLES          *
               *****************************************************


----------------
TOTAL SCF ENERGY
----------------

Total Energy       :        -2123.58846495 Eh          -57785.77990 eV

Components:
Nuclear Repulsion  :         6232.18403707 Eh          169586.34925 eV
Electronic Energy  :        -8355.77250202 Eh         -227372.12916 eV
One Electron Energy:       -15305.08772628 Eh         -416472.61009 eV
Two Electron Energy:         6949.31522426 Eh          189100.48093 eV

Virial components:
Potential Energy   :        -4245.84268460 Eh         -115535.25315 eV
Kinetic Energy     :         2122.25421965 Eh           57749.47324 eV
Virial Ratio       :            2.00062869


---------------
SCF CONVERGENCE
---------------

  Last Energy change         ...    1.1296e-09  Tolerance :   1.0000e-08
  Last MAX-Density change    ...    1.2005e-05  Tolerance :   1.0000e-07
  Last RMS-Density change    ...    2.4503e-07  Tolerance :   5.0000e-09
  Last Orbital Gradient      ...    2.2867e-06  Tolerance :   1.0000e-05
  Last Orbital Rotation      ...    6.0448e-05  Tolerance :   1.0000e-05

             **** THE GBW FILE WAS UPDATED (/scratch/allen/tmpyp4_amber_gaff2/conf1/conf1/Conf29.orca.gbw) ****
             **** DENSITY /scratch/allen/tmpyp4_amber_gaff2/conf1/conf1/Conf29.orca.scfp WAS UPDATED ****
             **** ENERGY FILE WAS UPDATED (/scratch/allen/tmpyp4_amber_gaff2/conf1/conf1/Conf29.orca.en.tmp) ****
             **** THE GBW FILE WAS UPDATED (/scratch/allen/tmpyp4_amber_gaff2/conf1/conf1/Conf29.orca.gbw) ****
             **** DENSITY /scratch/allen/tmpyp4_amber_gaff2/conf1/conf1/Conf29.orca.scfp WAS UPDATED ****
----------------
ORBITAL ENERGIES
----------------

  NO   OCC          E(Eh)            E(eV) 
   0   2.0000     -15.674660      -426.5292 
   1   2.0000     -15.634124      -425.4261 
   2   2.0000     -15.631410      -425.3523 
   3   2.0000     -15.590774      -424.2465 
   4   2.0000     -15.524660      -422.4475 
   5   2.0000     -15.516144      -422.2158 
   6   2.0000     -15.452884      -420.4943 
   7   2.0000     -15.440953      -420.1697 
   8   2.0000     -11.325245      -308.1756 
   9   2.0000     -11.324770      -308.1626 
  10   2.0000     -11.323975      -308.1410 
  11   2.0000     -11.299422      -307.4729 
  12   2.0000     -11.298075      -307.4362 
  13   2.0000     -11.292878      -307.2948 
  14   2.0000     -11.290531      -307.2310 
  15   2.0000     -11.286961      -307.1338 
  16   2.0000     -11.286474      -307.1206 
  17   2.0000     -11.277245      -306.8694 
  18   2.0000     -11.272762      -306.7475 
  19   2.0000     -11.259801      -306.3948 
  20   2.0000     -11.258832      -306.3684 
  21   2.0000     -11.256013      -306.2917 
  22   2.0000     -11.253454      -306.2221 
  23   2.0000     -11.237819      -305.7966 
  24   2.0000     -11.236176      -305.7519 
  25   2.0000     -11.231304      -305.6193 
  26   2.0000     -11.230494      -305.5973 
  27   2.0000     -11.229438      -305.5685 
  28   2.0000     -11.229332      -305.5657 
  29   2.0000     -11.209861      -305.0358 
  30   2.0000     -11.208623      -305.0021 
  31   2.0000     -11.199107      -304.7432 
  32   2.0000     -11.190723      -304.5151 
  33   2.0000     -11.190450      -304.5076 
  34   2.0000     -11.189347      -304.4776 
  35   2.0000     -11.189139      -304.4720 
  36   2.0000     -11.187863      -304.4372 
  37   2.0000     -11.186551      -304.4015 
  38   2.0000     -11.185361      -304.3692 
  39   2.0000     -11.172862      -304.0290 
  40   2.0000     -11.172241      -304.0121 
  41   2.0000     -11.170517      -303.9652 
  42   2.0000     -11.167294      -303.8775 
  43   2.0000     -11.160881      -303.7030 
  44   2.0000     -11.159793      -303.6734 
  45   2.0000     -11.158416      -303.6359 
  46   2.0000     -11.156811      -303.5923 
  47   2.0000     -11.155031      -303.5438 
  48   2.0000     -11.148088      -303.3549 
  49   2.0000     -11.139057      -303.1092 
  50   2.0000     -11.131577      -302.9056 
  51   2.0000     -11.121201      -302.6233 
  52   2.0000      -1.356025       -36.8993 
  53   2.0000      -1.321356       -35.9559 
  54   2.0000      -1.319243       -35.8984 
  55   2.0000      -1.284347       -34.9489 
  56   2.0000      -1.225314       -33.3425 
  57   2.0000      -1.210610       -32.9424 
  58   2.0000      -1.172005       -31.8919 
  59   2.0000      -1.151701       -31.3394 
  60   2.0000      -1.140026       -31.0217 
  61   2.0000      -1.110349       -30.2141 
  62   2.0000      -1.108643       -30.1677 
  63   2.0000      -1.080337       -29.3975 
  64   2.0000      -1.078041       -29.3350 
  65   2.0000      -1.045535       -28.4505 
  66   2.0000      -1.043936       -28.4069 
  67   2.0000      -1.038694       -28.2643 
  68   2.0000      -1.014505       -27.6061 
  69   2.0000      -1.013737       -27.5852 
  70   2.0000      -1.009645       -27.4738 
  71   2.0000      -0.992738       -27.0138 
  72   2.0000      -0.986745       -26.8507 
  73   2.0000      -0.980086       -26.6695 
  74   2.0000      -0.972391       -26.4601 
  75   2.0000      -0.961127       -26.1536 
  76   2.0000      -0.953499       -25.9460 
  77   2.0000      -0.946264       -25.7492 
  78   2.0000      -0.935164       -25.4471 
  79   2.0000      -0.918976       -25.0066 
  80   2.0000      -0.906898       -24.6779 
  81   2.0000      -0.894172       -24.3317 
  82   2.0000      -0.874757       -23.8033 
  83   2.0000      -0.871829       -23.7237 
  84   2.0000      -0.869274       -23.6541 
  85   2.0000      -0.857129       -23.3237 
  86   2.0000      -0.841412       -22.8960 
  87   2.0000      -0.835820       -22.7438 
  88   2.0000      -0.824508       -22.4360 
  89   2.0000      -0.797702       -21.7066 
  90   2.0000      -0.791360       -21.5340 
  91   2.0000      -0.750984       -20.4353 
  92   2.0000      -0.744045       -20.2465 
  93   2.0000      -0.732835       -19.9415 
  94   2.0000      -0.724399       -19.7119 
  95   2.0000      -0.721913       -19.6443 
  96   2.0000      -0.716135       -19.4870 
  97   2.0000      -0.711890       -19.3715 
  98   2.0000      -0.707683       -19.2570 
  99   2.0000      -0.696807       -18.9611 
 100   2.0000      -0.696203       -18.9446 
 101   2.0000      -0.685093       -18.6423 
 102   2.0000      -0.681117       -18.5341 
 103   2.0000      -0.680673       -18.5221 
 104   2.0000      -0.678218       -18.4552 
 105   2.0000      -0.673517       -18.3273 
 106   2.0000      -0.669840       -18.2273 
 107   2.0000      -0.660587       -17.9755 
 108   2.0000      -0.656531       -17.8651 
 109   2.0000      -0.653207       -17.7747 
 110   2.0000      -0.651100       -17.7173 
 111   2.0000      -0.643465       -17.5096 
 112   2.0000      -0.642424       -17.4812 
 113   2.0000      -0.639638       -17.4054 
 114   2.0000      -0.637613       -17.3503 
 115   2.0000      -0.627795       -17.0832 
 116   2.0000      -0.624216       -16.9858 
 117   2.0000      -0.619536       -16.8584 
 118   2.0000      -0.612664       -16.6714 
 119   2.0000      -0.612268       -16.6607 
 120   2.0000      -0.611143       -16.6301 
 121   2.0000      -0.608101       -16.5473 
 122   2.0000      -0.600612       -16.3435 
 123   2.0000      -0.586555       -15.9610 
 124   2.0000      -0.581811       -15.8319 
 125   2.0000      -0.580537       -15.7972 
 126   2.0000      -0.579534       -15.7699 
 127   2.0000      -0.574441       -15.6313 
 128   2.0000      -0.567716       -15.4483 
 129   2.0000      -0.559267       -15.2184 
 130   2.0000      -0.551335       -15.0026 
 131   2.0000      -0.547600       -14.9010 
 132   2.0000      -0.542284       -14.7563 
 133   2.0000      -0.541118       -14.7246 
 134   2.0000      -0.538175       -14.6445 
 135   2.0000      -0.535761       -14.5788 
 136   2.0000      -0.528532       -14.3821 
 137   2.0000      -0.522202       -14.2098 
 138   2.0000      -0.516725       -14.0608 
 139   2.0000      -0.513952       -13.9853 
 140   2.0000      -0.512629       -13.9493 
 141   2.0000      -0.511389       -13.9156 
 142   2.0000      -0.509045       -13.8518 
 143   2.0000      -0.504083       -13.7168 
 144   2.0000      -0.501777       -13.6540 
 145   2.0000      -0.496868       -13.5205 
 146   2.0000      -0.492404       -13.3990 
 147   2.0000      -0.483492       -13.1565 
 148   2.0000      -0.479608       -13.0508 
 149   2.0000      -0.466613       -12.6972 
 150   2.0000      -0.466344       -12.6899 
 151   2.0000      -0.457254       -12.4425 
 152   2.0000      -0.450763       -12.2659 
 153   2.0000      -0.445115       -12.1122 
 154   2.0000      -0.441210       -12.0059 
 155   2.0000      -0.429397       -11.6845 
 156   2.0000      -0.427644       -11.6368 
 157   2.0000      -0.411607       -11.2004 
 158   2.0000      -0.404559       -11.0086 
 159   2.0000      -0.388416       -10.5693 
 160   2.0000      -0.384316       -10.4578 
 161   2.0000      -0.378433       -10.2977 
 162   2.0000      -0.370052       -10.0696 
 163   2.0000      -0.356744        -9.7075 
 164   2.0000      -0.355567        -9.6755 
 165   2.0000      -0.340835        -9.2746 
 166   2.0000      -0.337530        -9.1847 
 167   2.0000      -0.325808        -8.8657 
 168   2.0000      -0.324166        -8.8210 
 169   2.0000      -0.304215        -8.2781 
 170   2.0000      -0.299708        -8.1555 
 171   2.0000      -0.285843        -7.7782 
 172   2.0000      -0.281451        -7.6587 
 173   2.0000      -0.263027        -7.1573 
 174   2.0000      -0.242455        -6.5975 
 175   2.0000      -0.189881        -5.1669 
 176   2.0000      -0.180329        -4.9070 
 177   2.0000      -0.076306        -2.0764 
 178   2.0000      -0.058627        -1.5953 
 179   0.0000       0.028456         0.7743 
 180   0.0000       0.066159         1.8003 
 181   0.0000       0.091069         2.4781 
 182   0.0000       0.109530         2.9805 
 183   0.0000       0.110829         3.0158 
 184   0.0000       0.136935         3.7262 
 185   0.0000       0.139610         3.7990 
 186   0.0000       0.143598         3.9075 
 187   0.0000       0.163441         4.4475 
 188   0.0000       0.165011         4.4902 
 189   0.0000       0.165905         4.5145 
 190   0.0000       0.169978         4.6253 
 191   0.0000       0.183063         4.9814 
 192   0.0000       0.186462         5.0739 
 193   0.0000       0.187078         5.0907 
 194   0.0000       0.204811         5.5732 
 195   0.0000       0.205817         5.6006 
 196   0.0000       0.208150         5.6641 
 197   0.0000       0.208842         5.6829 
 198   0.0000       0.219021         5.9599 
 199   0.0000       0.227001         6.1770 
 200   0.0000       0.231427         6.2975 
 201   0.0000       0.236211         6.4276 
 202   0.0000       0.239120         6.5068 
 203   0.0000       0.239981         6.5302 
 204   0.0000       0.247907         6.7459 
 205   0.0000       0.256458         6.9786 
 206   0.0000       0.256983         6.9929 
 207   0.0000       0.257240         6.9998 
 208   0.0000       0.258681         7.0391 
 209   0.0000       0.261789         7.1236 
 210   0.0000       0.262838         7.1522 
 211   0.0000       0.267765         7.2863 
 212   0.0000       0.270689         7.3658 
 213   0.0000       0.272049         7.4028 
 214   0.0000       0.272763         7.4223 
 215   0.0000       0.275849         7.5062 
 216   0.0000       0.278106         7.5677 
 217   0.0000       0.282266         7.6808 
 218   0.0000       0.286255         7.7894 
 219   0.0000       0.287918         7.8346 
 220   0.0000       0.289908         7.8888 
 221   0.0000       0.292246         7.9524 
 222   0.0000       0.295235         8.0338 
 223   0.0000       0.296255         8.0615 
 224   0.0000       0.297454         8.0941 
 225   0.0000       0.298864         8.1325 
 226   0.0000       0.305597         8.3157 
 227   0.0000       0.308371         8.3912 
 228   0.0000       0.309923         8.4334 
 229   0.0000       0.324727         8.8363 
 230   0.0000       0.326976         8.8975 
 231   0.0000       0.331100         9.0097 
 232   0.0000       0.337704         9.1894 
 233   0.0000       0.342883         9.3303 
 234   0.0000       0.353367         9.6156 
 235   0.0000       0.356800         9.7090 
 236   0.0000       0.376240        10.2380 
 237   0.0000       0.380856        10.3636 
 238   0.0000       0.393557        10.7092 
 239   0.0000       0.396648        10.7933 
 240   0.0000       0.400617        10.9013 
 241   0.0000       0.410469        11.1694 
 242   0.0000       0.414315        11.2741 
 243   0.0000       0.419676        11.4200 
 244   0.0000       0.429252        11.6806 
 245   0.0000       0.433939        11.8081 
 246   0.0000       0.436368        11.8742 
 247   0.0000       0.441208        12.0059 
 248   0.0000       0.441695        12.0191 
 249   0.0000       0.448779        12.2119 
 250   0.0000       0.456906        12.4330 
 251   0.0000       0.461288        12.5523 
 252   0.0000       0.468991        12.7619 
 253   0.0000       0.470292        12.7973 
 254   0.0000       0.472206        12.8494 
 255   0.0000       0.473372        12.8811 
 256   0.0000       0.477444        12.9919 
 257   0.0000       0.481086        13.0910 
 258   0.0000       0.486787        13.2461 
 259   0.0000       0.497382        13.5344 
 260   0.0000       0.503989        13.7142 
 261   0.0000       0.505046        13.7430 
 262   0.0000       0.506794        13.7906 
 263   0.0000       0.509032        13.8515 
 264   0.0000       0.514543        14.0014 
 265   0.0000       0.519416        14.1340 
 266   0.0000       0.524581        14.2746 
 267   0.0000       0.530392        14.4327 
 268   0.0000       0.532416        14.4878 
 269   0.0000       0.537015        14.6129 
 270   0.0000       0.540614        14.7109 
 271   0.0000       0.546092        14.8599 
 272   0.0000       0.554931        15.1004 
 273   0.0000       0.559264        15.2184 
 274   0.0000       0.561720        15.2852 
 275   0.0000       0.564967        15.3735 
 276   0.0000       0.570391        15.5211 
 277   0.0000       0.572532        15.5794 
 278   0.0000       0.577532        15.7154 
 279   0.0000       0.586739        15.9660 
 280   0.0000       0.589806        16.0494 
 281   0.0000       0.593007        16.1365 
 282   0.0000       0.594671        16.1818 
 283   0.0000       0.594850        16.1867 
 284   0.0000       0.597894        16.2695 
 285   0.0000       0.600136        16.3305 
 286   0.0000       0.607313        16.5258 
 287   0.0000       0.612240        16.6599 
 288   0.0000       0.616374        16.7724 
 289   0.0000       0.622638        16.9428 
 290   0.0000       0.626774        17.0554 
 291   0.0000       0.629112        17.1190 
 292   0.0000       0.634370        17.2621 
 293   0.0000       0.639238        17.3945 
 294   0.0000       0.645332        17.5604 
 295   0.0000       0.647689        17.6245 
 296   0.0000       0.653326        17.7779 
 297   0.0000       0.655918        17.8484 
 298   0.0000       0.662676        18.0323 
 299   0.0000       0.667607        18.1665 
 300   0.0000       0.671798        18.2806 
 301   0.0000       0.675379        18.3780 
 302   0.0000       0.676545        18.4097 
 303   0.0000       0.679636        18.4938 
 304   0.0000       0.680577        18.5194 
 305   0.0000       0.685262        18.6469 
 306   0.0000       0.688034        18.7224 
 307   0.0000       0.690692        18.7947 
 308   0.0000       0.695557        18.9271 
 309   0.0000       0.697958        18.9924 
 310   0.0000       0.702648        19.1200 
 311   0.0000       0.703827        19.1521 
 312   0.0000       0.707700        19.2575 
 313   0.0000       0.711066        19.3491 
 314   0.0000       0.711536        19.3619 
 315   0.0000       0.715662        19.4741 
 316   0.0000       0.717087        19.5129 
 317   0.0000       0.718627        19.5548 
 318   0.0000       0.720998        19.6194 
 319   0.0000       0.723216        19.6797 
 320   0.0000       0.726135        19.7591 
 321   0.0000       0.730818        19.8866 
 322   0.0000       0.732884        19.9428 
 323   0.0000       0.733765        19.9668 
 324   0.0000       0.734490        19.9865 
 325   0.0000       0.740063        20.1381 
 326   0.0000       0.743765        20.2389 
 327   0.0000       0.748889        20.3783 
 328   0.0000       0.750996        20.4356 
 329   0.0000       0.752011        20.4633 
 330   0.0000       0.753887        20.5143 
 331   0.0000       0.758392        20.6369 
 332   0.0000       0.760340        20.6899 
 333   0.0000       0.765920        20.8417 
 334   0.0000       0.767456        20.8835 
 335   0.0000       0.772260        21.0143 
 336   0.0000       0.774309        21.0700 
 337   0.0000       0.781013        21.2524 
 338   0.0000       0.782233        21.2856 
 339   0.0000       0.788779        21.4638 
 340   0.0000       0.792965        21.5777 
 341   0.0000       0.794921        21.6309 
 342   0.0000       0.795485        21.6462 
 343   0.0000       0.803167        21.8553 
 344   0.0000       0.805129        21.9087 
 345   0.0000       0.807786        21.9810 
 346   0.0000       0.808558        22.0020 
 347   0.0000       0.812883        22.1197 
 348   0.0000       0.815413        22.1885 
 349   0.0000       0.818204        22.2645 
 350   0.0000       0.819154        22.2903 
 351   0.0000       0.822081        22.3699 
 352   0.0000       0.824705        22.4414 
 353   0.0000       0.826428        22.4882 
 354   0.0000       0.826647        22.4942 
 355   0.0000       0.831975        22.6392 
 356   0.0000       0.833082        22.6693 
 357   0.0000       0.836394        22.7594 
 358   0.0000       0.837290        22.7838 
 359   0.0000       0.839348        22.8398 
 360   0.0000       0.839359        22.8401 
 361   0.0000       0.842869        22.9356 
 362   0.0000       0.844341        22.9757 
 363   0.0000       0.848113        23.0783 
 364   0.0000       0.848819        23.0975 
 365   0.0000       0.854346        23.2479 
 366   0.0000       0.857143        23.3240 
 367   0.0000       0.860536        23.4164 
 368   0.0000       0.864353        23.5202 
 369   0.0000       0.867263        23.5994 
 370   0.0000       0.870946        23.6996 
 371   0.0000       0.872211        23.7341 
 372   0.0000       0.873730        23.7754 
 373   0.0000       0.875788        23.8314 
 374   0.0000       0.879084        23.9211 
 375   0.0000       0.884159        24.0592 
 376   0.0000       0.885935        24.1075 
 377   0.0000       0.889213        24.1967 
 378   0.0000       0.890269        24.2255 
 379   0.0000       0.892210        24.2783 
 380   0.0000       0.897004        24.4087 
 381   0.0000       0.899262        24.4702 
 382   0.0000       0.900157        24.4945 
 383   0.0000       0.901114        24.5206 
 384   0.0000       0.904527        24.6134 
 385   0.0000       0.905263        24.6335 
 386   0.0000       0.907937        24.7062 
 387   0.0000       0.908805        24.7298 
 388   0.0000       0.911677        24.8080 
 389   0.0000       0.916385        24.9361 
 390   0.0000       0.920948        25.0603 
 391   0.0000       0.924298        25.1514 
 392   0.0000       0.925832        25.1932 
 393   0.0000       0.927329        25.2339 
 394   0.0000       0.928023        25.2528 
 395   0.0000       0.929925        25.3046 
 396   0.0000       0.934472        25.4283 
 397   0.0000       0.939433        25.5633 
 398   0.0000       0.941548        25.6208 
 399   0.0000       0.943845        25.6833 
 400   0.0000       0.945012        25.7151 
 401   0.0000       0.950361        25.8606 
 402   0.0000       0.953243        25.9391 
 403   0.0000       0.956167        26.0186 
 404   0.0000       0.959878        26.1196 
 405   0.0000       0.963361        26.2144 
 406   0.0000       0.966484        26.2994 
 407   0.0000       0.970969        26.4214 
 408   0.0000       0.975406        26.5421 
 409   0.0000       0.979654        26.6577 
 410   0.0000       0.983016        26.7492 
 411   0.0000       0.986559        26.8456 
 412   0.0000       0.990777        26.9604 
 413   0.0000       0.998169        27.1616 
 414   0.0000       1.001269        27.2459 
 415   0.0000       1.003082        27.2952 
 416   0.0000       1.009077        27.4584 
 417   0.0000       1.012195        27.5432 
 418   0.0000       1.022677        27.8284 
 419   0.0000       1.027121        27.9494 
 420   0.0000       1.030967        28.0540 
 421   0.0000       1.032300        28.0903 
 422   0.0000       1.037808        28.2402 
 423   0.0000       1.045706        28.4551 
 424   0.0000       1.052913        28.6512 
 425   0.0000       1.056919        28.7602 
 426   0.0000       1.059372        28.8270 
 427   0.0000       1.066029        29.0081 
 428   0.0000       1.076831        29.3021 
 429   0.0000       1.082863        29.4662 
 430   0.0000       1.083631        29.4871 
 431   0.0000       1.087194        29.5840 
 432   0.0000       1.089395        29.6439 
 433   0.0000       1.094501        29.7829 
 434   0.0000       1.101032        29.9606 
 435   0.0000       1.101961        29.9859 
 436   0.0000       1.106866        30.1194 
 437   0.0000       1.110682        30.2232 
 438   0.0000       1.115427        30.3523 
 439   0.0000       1.119154        30.4537 
 440   0.0000       1.120686        30.4954 
 441   0.0000       1.122730        30.5510 
 442   0.0000       1.124594        30.6018 
 443   0.0000       1.127827        30.6897 
 444   0.0000       1.134250        30.8645 
 445   0.0000       1.136315        30.9207 
 446   0.0000       1.140170        31.0256 
 447   0.0000       1.145325        31.1659 
 448   0.0000       1.147102        31.2142 
 449   0.0000       1.149652        31.2836 
 450   0.0000       1.152794        31.3691 
 451   0.0000       1.159295        31.5460 
 452   0.0000       1.163029        31.6476 
 453   0.0000       1.166184        31.7335 
 454   0.0000       1.169468        31.8228 
 455   0.0000       1.171085        31.8669 
 456   0.0000       1.173780        31.9402 
 457   0.0000       1.177613        32.0445 
 458   0.0000       1.184383        32.2287 
 459   0.0000       1.188374        32.3373 
 460   0.0000       1.196058        32.5464 
 461   0.0000       1.198461        32.6118 
 462   0.0000       1.199654        32.6442 
 463   0.0000       1.205523        32.8039 
 464   0.0000       1.208516        32.8854 
 465   0.0000       1.211500        32.9666 
 466   0.0000       1.217293        33.1242 
 467   0.0000       1.218529        33.1579 
 468   0.0000       1.223204        33.2851 
 469   0.0000       1.225894        33.3583 
 470   0.0000       1.228578        33.4313 
 471   0.0000       1.231578        33.5130 
 472   0.0000       1.234991        33.6058 
 473   0.0000       1.236299        33.6414 
 474   0.0000       1.243116        33.8269 
 475   0.0000       1.243281        33.8314 
 476   0.0000       1.249369        33.9971 
 477   0.0000       1.250524        34.0285 
 478   0.0000       1.251879        34.0654 
 479   0.0000       1.255483        34.1634 
 480   0.0000       1.258165        34.2364 
 481   0.0000       1.263895        34.3923 
 482   0.0000       1.264461        34.4077 
 483   0.0000       1.270953        34.5844 
 484   0.0000       1.274720        34.6869 
 485   0.0000       1.279076        34.8054 
 486   0.0000       1.282456        34.8974 
 487   0.0000       1.285185        34.9717 
 488   0.0000       1.288196        35.0536 
 489   0.0000       1.291438        35.1418 
 490   0.0000       1.295069        35.2406 
 491   0.0000       1.297666        35.3113 
 492   0.0000       1.300363        35.3847 
 493   0.0000       1.310181        35.6518 
 494   0.0000       1.311149        35.6782 
 495   0.0000       1.317771        35.8584 
 496   0.0000       1.320526        35.9333 
 497   0.0000       1.321833        35.9689 
 498   0.0000       1.326773        36.1033 
 499   0.0000       1.328273        36.1441 
 500   0.0000       1.333183        36.2778 
 501   0.0000       1.338022        36.4094 
 502   0.0000       1.339994        36.4631 
 503   0.0000       1.343566        36.5603 
 504   0.0000       1.346469        36.6393 
 505   0.0000       1.351485        36.7758 
 506   0.0000       1.351958        36.7886 
 507   0.0000       1.355505        36.8852 
 508   0.0000       1.358631        36.9702 
 509   0.0000       1.360932        37.0328 
[...]
      pz      :     0.022102  p :     0.079755
      px      :     0.043575
      py      :     0.014078
 77 H s       :     0.885064  s :     0.885064
      pz      :     0.047936  p :     0.079244
      px      :     0.015022
      py      :     0.016286
 78 H s       :     0.885412  s :     0.885412
      pz      :     0.025862  p :     0.079210
      px      :     0.020467
      py      :     0.032881
 79 H s       :     0.910535  s :     0.910535
      pz      :     0.021832  p :     0.086353
      px      :     0.021672
      py      :     0.042848
 80 H s       :     0.865164  s :     0.865164
      pz      :     0.039329  p :     0.084740
      px      :     0.030237
      py      :     0.015174
 81 H s       :     0.886886  s :     0.886886
      pz      :     0.037812  p :     0.084101
      px      :     0.016180
      py      :     0.030109
 82 H s       :     0.915867  s :     0.915867
      pz      :     0.021963  p :     0.086742
      px      :     0.031622
      py      :     0.033157
 83 H s       :     0.873280  s :     0.873280
      pz      :     0.039280  p :     0.084084
      px      :     0.015271
      py      :     0.029533
 84 H s       :     0.886681  s :     0.886681
      pz      :     0.035776  p :     0.083470
      px      :     0.031701
      py      :     0.015993
 85 H s       :     0.892880  s :     0.892880
      pz      :     0.022493  p :     0.079786
      px      :     0.014070
      py      :     0.043223
 86 H s       :     0.890943  s :     0.890943
      pz      :     0.024731  p :     0.078834
      px      :     0.032983
      py      :     0.021120
 87 H s       :     0.889903  s :     0.889903
      pz      :     0.048008  p :     0.078736
      px      :     0.015589
      py      :     0.015139
 88 H s       :     0.910869  s :     0.910869
      pz      :     0.021656  p :     0.087006
      px      :     0.042902
      py      :     0.022449
 89 H s       :     0.871494  s :     0.871494
      pz      :     0.037937  p :     0.083833
      px      :     0.030476
      py      :     0.015420


                      *****************************
                      * MAYER POPULATION ANALYSIS *
                      *****************************

  NA   - Mulliken gross atomic population
  ZA   - Total nuclear charge
  QA   - Mulliken gross atomic charge
  VA   - Mayer's total valence
  BVA  - Mayer's bonded valence
  FA   - Mayer's free valence

  ATOM       NA         ZA         QA         VA         BVA        FA
  0 C      5.7896     6.0000     0.2104     3.8425     3.8425    -0.0000
  1 N      7.4555     7.0000    -0.4555     3.3334     3.3334    -0.0000
  2 C      6.0669     6.0000    -0.0669     3.9207     3.9207     0.0000
  3 N      7.3377     7.0000    -0.3377     3.4571     3.4571    -0.0000
  4 C      6.0485     6.0000    -0.0485     4.0363     4.0363     0.0000
  5 N      7.5649     7.0000    -0.5649     3.0944     3.0944    -0.0000
  6 C      6.1099     6.0000    -0.1099     3.9816     3.9816     0.0000
  7 N      7.3403     7.0000    -0.3403     3.4341     3.4341    -0.0000
  8 C      5.7932     6.0000     0.2068     3.8424     3.8424     0.0000
  9 N      7.5623     7.0000    -0.5623     3.0777     3.0777    -0.0000
 10 C      5.8812     6.0000     0.1188     3.9086     3.9086    -0.0000
 11 N      7.4384     7.0000    -0.4384     3.3782     3.3782    -0.0000
 12 C      6.0803     6.0000    -0.0803     3.8937     3.8937     0.0000
 13 N      7.4306     7.0000    -0.4306     3.4227     3.4227    -0.0000
 14 C      5.7683     6.0000     0.2317     3.7859     3.7859    -0.0000
 15 N      7.4410     7.0000    -0.4410     3.3722     3.3722     0.0000
 16 C      5.7716     6.0000     0.2284     3.7785     3.7785    -0.0000
 17 C      6.1210     6.0000    -0.1210     3.9911     3.9911     0.0000
 18 C      6.1931     6.0000    -0.1931     3.7666     3.7666    -0.0000
 19 C      5.7758     6.0000     0.2242     3.8630     3.8630    -0.0000
 20 C      5.7872     6.0000     0.2128     3.8289     3.8289     0.0000
 21 C      6.0902     6.0000    -0.0902     3.8760     3.8760     0.0000
 22 C      6.0912     6.0000    -0.0912     3.9828     3.9828    -0.0000
 23 C      6.0403     6.0000    -0.0403     3.9925     3.9925    -0.0000
 24 C      5.8054     6.0000     0.1946     3.8215     3.8215    -0.0000
 25 C      5.8854     6.0000     0.1146     3.8915     3.8915     0.0000
 26 C      6.0834     6.0000    -0.0834     3.9101     3.9101     0.0000
 27 C      5.7867     6.0000     0.2133     3.8634     3.8634     0.0000
 28 C      6.0610     6.0000    -0.0610     3.9887     3.9887     0.0000
 29 C      6.1806     6.0000    -0.1806     3.7448     3.7448     0.0000
 30 C      5.7548     6.0000     0.2452     3.8001     3.8001    -0.0000
 31 C      5.7719     6.0000     0.2281     3.8184     3.8184    -0.0000
 32 C      6.0621     6.0000    -0.0621     3.9226     3.9226     0.0000
 33 C      6.0627     6.0000    -0.0627     3.9733     3.9733    -0.0000
 34 C      6.0510     6.0000    -0.0510     3.9845     3.9845     0.0000
 35 C      5.7743     6.0000     0.2257     3.8177     3.8177    -0.0000
 36 C      5.8911     6.0000     0.1089     3.8767     3.8767     0.0000
 37 C      6.0645     6.0000    -0.0645     3.9177     3.9177    -0.0000
 38 C      5.7683     6.0000     0.2317     3.8002     3.8002    -0.0000
 39 C      6.0580     6.0000    -0.0580     3.9841     3.9841     0.0000
 40 C      6.1821     6.0000    -0.1821     3.7288     3.7288    -0.0000
 41 C      5.7745     6.0000     0.2255     3.8863     3.8863    -0.0000
 42 C      5.8021     6.0000     0.1979     3.8260     3.8260    -0.0000
 43 C      6.0724     6.0000    -0.0724     3.9002     3.9002    -0.0000
 44 C      6.0895     6.0000    -0.0895     3.9849     3.9849     0.0000
 45 C      6.0605     6.0000    -0.0605     3.9923     3.9923    -0.0000
 46 C      5.7892     6.0000     0.2108     3.8282     3.8282    -0.0000
 47 C      5.8846     6.0000     0.1154     3.8930     3.8930     0.0000
 48 C      6.0676     6.0000    -0.0676     3.9091     3.9091    -0.0000
 49 C      5.7622     6.0000     0.2378     3.8928     3.8928     0.0000
 50 C      6.0471     6.0000    -0.0471     3.9905     3.9905     0.0000
 51 C      6.1919     6.0000    -0.1919     3.7361     3.7361     0.0000
 52 H      0.9608     1.0000     0.0392     0.9859     0.9859    -0.0000
 53 H      1.0168     1.0000    -0.0168     0.9984     0.9984     0.0000
 54 H      0.9474     1.0000     0.0526     1.0170     1.0170     0.0000
 55 H      0.9618     1.0000     0.0382     0.9867     0.9867     0.0000
 56 H      0.9502     1.0000     0.0498     0.9696     0.9696    -0.0000
 57 H      0.9518     1.0000     0.0482     0.9829     0.9829    -0.0000
 58 H      0.9525     1.0000     0.0475     0.9848     0.9848     0.0000
 59 H      0.9991     1.0000     0.0009     1.0026     1.0026     0.0000
 60 H      0.9523     1.0000     0.0477     1.0154     1.0154    -0.0000
 61 H      0.8287     1.0000     0.1713     1.0421     1.0421    -0.0000
 62 H      0.8248     1.0000     0.1752     1.0436     1.0436     0.0000
 63 H      0.9448     1.0000     0.0552     0.9853     0.9853    -0.0000
 64 H      1.0098     1.0000    -0.0098     0.9959     0.9959     0.0000
 65 H      0.9527     1.0000     0.0473     1.0096     1.0096    -0.0000
 66 H      0.9442     1.0000     0.0558     0.9855     0.9855    -0.0000
 67 H      0.9377     1.0000     0.0623     0.9719     0.9719     0.0000
 68 H      0.9427     1.0000     0.0573     0.9868     0.9868     0.0000
 69 H      0.9435     1.0000     0.0565     0.9828     0.9828     0.0000
 70 H      1.0295     1.0000    -0.0295     0.9936     0.9936     0.0000
 71 H      0.9552     1.0000     0.0448     1.0060     1.0060    -0.0000
 72 H      0.9302     1.0000     0.0698     0.9837     0.9837    -0.0000
 73 H      1.0085     1.0000    -0.0085     1.0008     1.0008     0.0000
 74 H      0.9411     1.0000     0.0589     1.0100     1.0100     0.0000
 75 H      0.9309     1.0000     0.0691     0.9840     0.9840    -0.0000
 76 H      0.9265     1.0000     0.0735     0.9721     0.9721    -0.0000
 77 H      0.9331     1.0000     0.0669     0.9854     0.9854     0.0000
 78 H      0.9338     1.0000     0.0662     0.9853     0.9853     0.0000
 79 H      1.0163     1.0000    -0.0163     0.9977     0.9977     0.0000
 80 H      0.9402     1.0000     0.0598     1.0072     1.0072     0.0000
 81 H      0.9458     1.0000     0.0542     0.9856     0.9856    -0.0000
 82 H      1.0246     1.0000    -0.0246     0.9935     0.9935    -0.0000
 83 H      0.9579     1.0000     0.0421     1.0083     1.0083    -0.0000
 84 H      0.9458     1.0000     0.0542     0.9852     0.9852     0.0000
 85 H      0.9392     1.0000     0.0608     0.9716     0.9716     0.0000
 86 H      0.9444     1.0000     0.0556     0.9839     0.9839    -0.0000
 87 H      0.9429     1.0000     0.0571     0.9856     0.9856    -0.0000
 88 H      1.0150     1.0000    -0.0150     0.9965     0.9965    -0.0000
 89 H      0.9539     1.0000     0.0461     1.0075     1.0075     0.0000

  Mayer bond orders larger than 0.100000
B(  0-C ,  1-N ) :   1.0957 B(  0-C , 17-C ) :   1.7013 B(  0-C , 52-H ) :   0.9667 
B(  1-N ,  8-C ) :   1.0867 B(  1-N , 10-C ) :   0.9770 B(  2-C , 12-C ) :   1.5055 
B(  2-C , 16-C ) :   1.3575 B(  2-C , 53-H ) :   0.9749 B(  3-N , 14-C ) :   1.2191 
B(  3-N , 16-C ) :   1.1886 B(  3-N , 61-H ) :   0.8990 B(  4-C ,  6-C ) :   1.2121 
B(  4-C , 17-C ) :   1.2141 B(  4-C , 18-C ) :   1.4393 B(  5-N , 19-C ) :   1.4520 
B(  5-N , 27-C ) :   1.3786 B(  6-C ,  8-C ) :   1.7100 B(  6-C , 54-H ) :   0.9457 
B(  7-N , 30-C ) :   1.1958 B(  7-N , 38-C ) :   1.1909 B(  7-N , 62-H ) :   0.8969 
B(  8-C , 55-H ) :   0.9665 B(  9-N , 41-C ) :   1.3953 B(  9-N , 49-C ) :   1.4246 
B( 10-C , 56-H ) :   0.9771 B( 10-C , 57-H ) :   0.9822 B( 10-C , 58-H ) :   0.9843 
B( 11-N , 20-C ) :   1.1301 B( 11-N , 24-C ) :   1.1079 B( 11-N , 25-C ) :   0.9602 
B( 12-C , 14-C ) :   1.3556 B( 12-C , 59-H ) :   0.9709 B( 13-N , 31-C ) :   1.1571 
B( 13-N , 35-C ) :   1.1551 B( 13-N , 36-C ) :   0.9434 B( 14-C , 18-C ) :   1.1299 
B( 15-N , 42-C ) :   1.1084 B( 15-N , 46-C ) :   1.1231 B( 15-N , 47-C ) :   0.9614 
B( 16-C , 51-C ) :   1.1718 B( 17-C , 60-H ) :   0.9528 B( 18-C , 19-C ) :   1.1336 
B( 19-C , 21-C ) :   1.2467 B( 20-C , 28-C ) :   1.6286 B( 20-C , 63-H ) :   0.9703 
B( 21-C , 26-C ) :   1.6020 B( 21-C , 64-H ) :   0.9631 B( 22-C , 23-C ) :   1.2886 
B( 22-C , 28-C ) :   1.2645 B( 22-C , 29-C ) :   1.2249 B( 23-C , 24-C ) :   1.6204 
B( 23-C , 65-H ) :   0.9704 B( 24-C , 66-H ) :   0.9695 B( 25-C , 67-H ) :   0.9760 
B( 25-C , 68-H ) :   0.9828 B( 25-C , 69-H ) :   0.9823 B( 26-C , 27-C ) :   1.2451 
B( 26-C , 70-H ) :   0.9703 B( 27-C , 29-C ) :   1.2115 B( 28-C , 71-H ) :   0.9719 
B( 29-C , 30-C ) :   1.2413 B( 30-C , 32-C ) :   1.2834 B( 31-C , 39-C ) :   1.5926 
B( 31-C , 72-H ) :   0.9683 B( 32-C , 37-C ) :   1.5753 B( 32-C , 73-H ) :   0.9786 
B( 33-C , 34-C ) :   1.3036 B( 33-C , 39-C ) :   1.3000 B( 33-C , 40-C ) :   1.1840 
B( 34-C , 35-C ) :   1.5900 B( 34-C , 74-H ) :   0.9697 B( 35-C , 75-H ) :   0.9683 
B( 36-C , 76-H ) :   0.9767 B( 36-C , 77-H ) :   0.9816 B( 36-C , 78-H ) :   0.9824 
B( 37-C , 38-C ) :   1.2886 B( 37-C , 79-H ) :   0.9766 B( 38-C , 40-C ) :   1.2305 
B( 39-C , 80-H ) :   0.9706 B( 40-C , 41-C ) :   1.2477 B( 41-C , 43-C ) :   1.1872 
B( 42-C , 50-C ) :   1.6332 B( 42-C , 81-H ) :   0.9697 B( 43-C , 48-C ) :   1.6654 
B( 43-C , 82-H ) :   0.9723 B( 44-C , 45-C ) :   1.2642 B( 44-C , 50-C ) :   1.2718 
B( 44-C , 51-C ) :   1.2599 B( 45-C , 46-C ) :   1.6346 B( 45-C , 83-H ) :   0.9718 
B( 46-C , 84-H ) :   0.9700 B( 47-C , 85-H ) :   0.9762 B( 47-C , 86-H ) :   0.9829 
B( 47-C , 87-H ) :   0.9825 B( 48-C , 49-C ) :   1.1905 B( 48-C , 88-H ) :   0.9748 
B( 49-C , 51-C ) :   1.2412 B( 50-C , 89-H ) :   0.9710 

-------
TIMINGS
-------

Total SCF time: 0 days 0 hours 22 min 38 sec 

Total time                  ....    1358.621 sec
Sum of individual times     ....    1354.977 sec  ( 99.7%)

Fock matrix formation       ....    1334.735 sec  ( 98.2%)
Diagonalization             ....       6.520 sec  (  0.5%)
Density matrix formation    ....       0.363 sec  (  0.0%)
Population analysis         ....       0.422 sec  (  0.0%)
Initial guess               ....       1.933 sec  (  0.1%)
Orbital Transformation      ....       0.000 sec  (  0.0%)
Orbital Orthonormalization  ....       0.000 sec  (  0.0%)
DIIS solution               ....       2.838 sec  (  0.2%)
SOSCF solution              ....       7.164 sec  (  0.5%)

Maximum memory used throughout the entire SCF-calculation: 302.6 MB


           ************************************************************
           *        Program running with 16 parallel MPI-processes    *
           *              working on a common directory               *
           ************************************************************

------------------------------------------------------------------------------
                                ORCA  MP2 
------------------------------------------------------------------------------

Freezing NCore=104 chemical core electrons

----------
MP2 ENERGY (disk based algorithm)
----------

Dimension of the basis                    ...  918
Memory devoted to MP2                     ... 2000 MB   
Data format for buffers                   ... DOUBLE
Compression type for matrix containers    ... UNCOMPRESSED

-------------------------------
PARTIAL EXCHANGE TRANSFORMATION
-------------------------------

Transformation type                        ... one-operator
Generation of integrals (i,mue|j,nue)      ... ON
Generation of integrals (mue,kappa|nue,tau)... OFF
Generation of integrals (i,mue|a,nue)      ... OFF
Dimension of the basis                     ...  918
Number of internal MOs                     ...  127 (  52- 178)
Pair cutoff                                ... 2.500e-12 Eh
Number of AO pairs in the trafo            ... 421821
Total Number of distinct AO pairs          ... 421821
Memory devoted for trafo                   ... 2000.0 MB 
Max. Number of MO pairs treated together   ...  311      
Number Format for Storage                  ... Double (8 Byte)
Integral package used                      ... LIBINT

Starting integral evaluation:
    ... done with AO integral generation
Closing buffer AOK     (38.30 GB; CompressionRatio= 1.32)
Collecting buffer AOK 
Number of MO pairs included in the trafo   ... 8128
------------------------
SORTING OF (i,mue|j,nue)
------------------------

IBATCH = 1 of  2
IBATCH = 2 of  2
Closing buffer KAO     (51.03 GB; CompressionRatio= 1.00)
Collecting buffer KAO 
N(AO-Batches) Done                         ...  85969987 
N(AO-Batches) Skipped                      ...  82369013 
N(IJ)-pairs Skipped                        ...         0 
TOTAL TIME for half transformation         ...  2508.093 sec
AO-integral generation                     ...   173.047 sec
Half transformation                        ...   308.291 sec
K-integral sorting                         ...  1865.785 sec
Process 13:   Internal MO 156
Process 10:   Internal MO 132

Finished integral transformation - now doing MP2 part

OPERATOR COMBINATION   0   0: ij=( 52..178, 52..178)
Process  7:   Internal MO 108
Process  4:   Internal MO  84
Process  1:   Internal MO  60
Process  2:   Internal MO  69
Process  5:   Internal MO  93
Process  3:   Internal MO  78
Process  1:   Internal MO  63
Process  0:   Internal MO  54
Process  2:   Internal MO  72
Process  8:   Internal MO 117
Process  1:   Internal MO  66
Process  0:   Internal MO  57
Process 14:   Internal MO 165
Process 11:   Internal MO 141
Process  6:   Internal MO 102
Process  2:   Internal MO  75
Process  3:   Internal MO  81
Process  7:   Internal MO 111
Process  5:   Internal MO  96
Process  9:   Internal MO 126
Process 12:   Internal MO 150
Process  4:   Internal MO  87
Process 15:   Internal MO 174
Process 10:   Internal MO 135
Process  6:   Internal MO 105
Process  8:   Internal MO 120
Process  4:   Internal MO  90
Process 13:   Internal MO 159
Process  5:   Internal MO  99
Process  7:   Internal MO 114
Process  9:   Internal MO 129
Process 11:   Internal MO 144
Process  8:   Internal MO 123
Process 14:   Internal MO 168
Process 12:   Internal MO 153
Process 10:   Internal MO 138
Process 15:   Internal MO 177
Process 13:   Internal MO 162
Process 11:   Internal MO 147
Process 14:   Internal MO 171
-----------------------------------------------
 MP2 CORRELATION ENERGY   :     -7.284003727 Eh
-----------------------------------------------


-------
TIMINGS
-------
Total time                : 2795.446 sec
Integral trafo            : 2509.990 sec ( 89.8%)
K(i,j)                    :   29.380 sec (  1.1%)
T(i,j)                    :    1.737 sec (  0.1%)

---------------------------------------
MP2 TOTAL ENERGY:    -2130.872468678 Eh
---------------------------------------

Maximum memory used throughout the entire MP2-calculation: 2275.3 MB

-------------------------   --------------------
FINAL SINGLE POINT ENERGY     -2130.872468678411
-------------------------   --------------------


                            ***************************************
                            *     ORCA property calculations      *
                            ***************************************


  WARNING: The energy has been calculated at the MP2 level but the densities
           used in the property calculations are still SCF densities
           MP2 response densities have not been calculated 
           use %mp2 Density relaxed end
           or  %mp2 Density unrelaxed end

                                    ---------------------
                                    Active property flags
                                    ---------------------
   (+) Dipole Moment


------------------------------------------------------------------------------
                       ORCA ELECTRIC PROPERTIES CALCULATION
------------------------------------------------------------------------------

Dipole Moment Calculation                       ... on
Quadrupole Moment Calculation                   ... off
Polarizability Calculation                      ... off
GBWName                                         ... /scratch/allen/tmpyp4_amber_gaff2/conf1/conf1/Conf29.orca.gbw
Electron density                                ... /scratch/allen/tmpyp4_amber_gaff2/conf1/conf1/Conf29.orca.scfp
The origin for moment calculation is the CENTER OF MASS  = (-0.000673, -0.004590  0.003241)

-------------
DIPOLE MOMENT
-------------
                                X             Y             Z
Electronic contribution:      2.54309      -3.88606      -0.11185
Nuclear contribution   :     -0.05010       0.15217       0.13219
                        -----------------------------------------
Total Dipole Moment    :      2.49300      -3.73389       0.02035
                        -----------------------------------------
Magnitude (a.u.)       :      4.48970
Magnitude (Debye)      :     11.41191



--------------------
Rotational spectrum 
--------------------
 
Rotational constants in cm-1:     0.001502     0.001477     0.000760 
Rotational constants in MHz :    45.032073    44.275092    22.798103 

 Dipole components along the rotational axes: 
x,y,z [a.u.] :     3.236090     3.111998     0.024270 
x,y,z [Debye]:     8.225488     7.910069     0.061689 

 

Timings for individual modules:

Sum of individual times         ...     4175.150 sec (=  69.586 min)
GTO integral calculation        ...        2.652 sec (=   0.044 min)   0.1 %
SCF iterations                  ...     1359.556 sec (=  22.659 min)  32.6 %
MP2 module                      ...     2812.942 sec (=  46.882 min)  67.4 %
                             ****ORCA TERMINATED NORMALLY****
TOTAL RUN TIME: 0 days 1 hours 9 minutes 38 seconds 443 msec
# of primitive gaussian functions

