
                                 *****************
                                 * O   R   C   A *
                                 *****************

                                            #,                                       
                                            ###                                      
                                            ####                                     
                                            #####                                    
                                            ######                                   
                                           ########,                                 
                                     ,,################,,,,,                         
                               ,,#################################,,                 
                          ,,##########################################,,             
                       ,#########################################, ''#####,          
                    ,#############################################,,   '####,        
                  ,##################################################,,,,####,       
                ,###########''''           ''''###############################       
              ,#####''   ,,,,##########,,,,          '''####'''          '####       
            ,##' ,,,,###########################,,,                        '##       
           ' ,,###''''                  '''############,,,                           
         ,,##''                                '''############,,,,        ,,,,,,###''
      ,#''                                            '''#######################'''  
     '                                                          ''''####''''         
             ,#######,   #######,   ,#######,      ##                                
            ,#'     '#,  ##    ##  ,#'     '#,    #''#        ######   ,####,        
            ##       ##  ##   ,#'  ##            #'  '#       #        #'  '#        
            ##       ##  #######   ##           ,######,      #####,   #    #        
            '#,     ,#'  ##    ##  '#,     ,#' ,#      #,         ##   #,  ,#        
             '#######'   ##     ##  '#######'  #'      '#     #####' # '####'        



                  #######################################################
                  #                        -***-                        #
                  #          Department of theory and spectroscopy      #
                  #    Directorship and core code : Frank Neese         #
                  #        Max Planck Institute fuer Kohlenforschung    #
                  #                Kaiser Wilhelm Platz 1               #
                  #                 D-45470 Muelheim/Ruhr               #
                  #                      Germany                        #
                  #                                                     #
                  #                  All rights reserved                #
                  #                        -***-                        #
                  #######################################################


                         Program Version 5.0.4 -  RELEASE  -


 With contributions from (in alphabetic order):
   Daniel Aravena         : Magnetic Suceptibility
   Michael Atanasov       : Ab Initio Ligand Field Theory (pilot matlab implementation)
   Alexander A. Auer      : GIAO ZORA, VPT2 properties, NMR spectrum
   Ute Becker             : Parallelization
   Giovanni Bistoni       : ED, misc. LED, open-shell LED, HFLD
   Martin Brehm           : Molecular dynamics
   Dmytro Bykov           : SCF Hessian
   Vijay G. Chilkuri      : MRCI spin determinant printing, contributions to CSF-ICE
   Dipayan Datta          : RHF DLPNO-CCSD density
   Achintya Kumar Dutta   : EOM-CC, STEOM-CC
   Dmitry Ganyushin       : Spin-Orbit,Spin-Spin,Magnetic field MRCI
   Miquel Garcia          : C-PCM and meta-GGA Hessian, CC/C-PCM, Gaussian charge scheme
   Yang Guo               : DLPNO-NEVPT2, F12-NEVPT2, CIM, IAO-localization
   Andreas Hansen         : Spin unrestricted coupled pair/coupled cluster methods
   Benjamin Helmich-Paris : MC-RPA, TRAH-SCF, COSX integrals
   Lee Huntington         : MR-EOM, pCC
   Robert Izsak           : Overlap fitted RIJCOSX, COSX-SCS-MP3, EOM
   Marcus Kettner         : VPT2
   Christian Kollmar      : KDIIS, OOCD, Brueckner-CCSD(T), CCSD density, CASPT2, CASPT2-K
   Simone Kossmann        : Meta GGA functionals, TD-DFT gradient, OOMP2, MP2 Hessian
   Martin Krupicka        : Initial AUTO-CI
   Lucas Lang             : DCDCAS
   Marvin Lechner         : AUTO-CI (C++ implementation), FIC-MRCC
   Dagmar Lenk            : GEPOL surface, SMD
   Dimitrios Liakos       : Extrapolation schemes; Compound Job, initial MDCI parallelization
   Dimitrios Manganas     : Further ROCIS development; embedding schemes
   Dimitrios Pantazis     : SARC Basis sets
   Anastasios Papadopoulos: AUTO-CI, single reference methods and gradients
   Taras Petrenko         : DFT Hessian,TD-DFT gradient, ASA, ECA, R-Raman, ABS, FL, XAS/XES, NRVS
   Peter Pinski           : DLPNO-MP2, DLPNO-MP2 Gradient
   Christoph Reimann      : Effective Core Potentials
   Marius Retegan         : Local ZFS, SOC
   Christoph Riplinger    : Optimizer, TS searches, QM/MM, DLPNO-CCSD(T), (RO)-DLPNO pert. Triples
   Tobias Risthaus        : Range-separated hybrids, TD-DFT gradient, RPA, STAB
   Michael Roemelt        : Original ROCIS implementation
   Masaaki Saitow         : Open-shell DLPNO-CCSD energy and density
   Barbara Sandhoefer     : DKH picture change effects
   Avijit Sen             : IP-ROCIS
   Kantharuban Sivalingam : CASSCF convergence, NEVPT2, FIC-MRCI
   Bernardo de Souza      : ESD, SOC TD-DFT
   Georgi Stoychev        : AutoAux, RI-MP2 NMR, DLPNO-MP2 response
   Willem Van den Heuvel  : Paramagnetic NMR
   Boris Wezisla          : Elementary symmetry handling
   Frank Wennmohs         : Technical directorship


 We gratefully acknowledge several colleagues who have allowed us to
 interface, adapt or use parts of their codes:
   Stefan Grimme, W. Hujo, H. Kruse, P. Pracht,  : VdW corrections, initial TS optimization,
                  C. Bannwarth, S. Ehlert          DFT functionals, gCP, sTDA/sTD-DF
   Ed Valeev, F. Pavosevic, A. Kumar             : LibInt (2-el integral package), F12 methods
   Garnet Chan, S. Sharma, J. Yang, R. Olivares  : DMRG
   Ulf Ekstrom                                   : XCFun DFT Library
   Mihaly Kallay                                 : mrcc  (arbitrary order and MRCC methods)
   Jiri Pittner, Ondrej Demel                    : Mk-CCSD
   Frank Weinhold                                : gennbo (NPA and NBO analysis)
   Christopher J. Cramer and Donald G. Truhlar   : smd solvation model
   Lars Goerigk                                  : TD-DFT with DH, B97 family of functionals
   V. Asgeirsson, H. Jonsson                     : NEB implementation
   FAccTs GmbH                                   : IRC, NEB, NEB-TS, DLPNO-Multilevel, CI-OPT
                                                   MM, QMMM, 2- and 3-layer-ONIOM, Crystal-QMMM,
                                                   LR-CPCM, SF, NACMEs, symmetry and pop. for TD-DFT,
                                                   nearIR, NL-DFT gradient (VV10), updates on ESD,
                                                   ML-optimized integration grids
   S Lehtola, MJT Oliveira, MAL Marques          : LibXC Library
   Liviu Ungur et al                             : ANISO software


 Your calculation uses the libint2 library for the computation of 2-el integrals
 For citations please refer to: http://libint.valeyev.net

 Your ORCA version has been built with support for libXC version: 5.1.0
 For citations please refer to: https://tddft.org/programs/libxc/

 This ORCA versions uses:
   CBLAS   interface :  Fast vector & matrix operations
   LAPACKE interface :  Fast linear algebra routines
   SCALAPACK package :  Parallel linear algebra routines
   Shared memory     :  Shared parallel matrices
   BLAS/LAPACK       :  OpenBLAS 0.3.15  USE64BITINT DYNAMIC_ARCH NO_AFFINITY Sandybridge SINGLE_THREADED
        Core in use  :  Sandybridge
   Copyright (c) 2011-2014, The OpenBLAS Project


================================================================================

----- Orbital basis set information -----
Your calculation utilizes the basis: cc-pVDZ 
       H, B-Ne : Obtained from the ccRepo (grant-hill.group.shef.ac.uk/ccrepo) Feb. 2017
                 T. H. Dunning, Jr., J. Chem. Phys. 90, 1007 (1989)
            He : Obtained from the ccRepo (grant-hill.group.shef.ac.uk/ccrepo) Feb. 2017
                 D. E. Woon, T. H. Dunning, Jr., J. Chem. Phys. 100, 2975 (1994)
  Li-Be, Na-Mg : Obtained from the ccRepo (grant-hill.group.shef.ac.uk/ccrepo) Feb. 2017
                 B. P. Prascher, D. E. Woon, K. A. Peterson, T. H. Dunning, Jr., A. K. Wilson, Theor. Chem. Acc. 128, 69 (2011)
         Al-Ar : Obtained from the ccRepo (grant-hill.group.shef.ac.uk/ccrepo) Feb. 2017
                 D. E. Woon, T. H. Dunning, Jr., J. Chem. Phys. 98, 1358 (1993)
            Ca : Obtained from the Peterson Research Group Website (tyr0.chem.wsu.edu/~kipeters) Feb. 2017
                 J. Koput, K. A. Peterson, J. Phys. Chem. 106, 9595 (2002)
         Sc-Zn : Obtained from the ccRepo (grant-hill.group.shef.ac.uk/ccrepo) Feb. 2017
                 N. B. Balabanov, K. A. Peterson, J. Chem. Phys. 123, 064107 (2005)
                 N. B. Balabanov, K. A. Peterson, J. Chem. Phys. 125, 074110 (2006)
         Ga-Kr : Obtained from the ccRepo (grant-hill.group.shef.ac.uk/ccrepo) Feb. 2017
                 A. K. Wilson, D. E. Woon, K. A. Peterson, T. H. Dunning, Jr., J. Chem. Phys. 110, 7667 (1999)

================================================================================
                                        WARNINGS
                       Please study these warnings very carefully!
================================================================================


WARNING: No MP2 level density has been requested!
         To caclulate MP2 level properties use
         %mp2 Density relaxed end
         or
         %mp2 Density unrelaxed end

WARNING: Post HF methods need fully converged wavefunctions
  ===> : Setting SCFConvForced true
         You can overwrite this default with %scf ConvForced false 


INFO   : the flag for use of the SHARK integral package has been found!

================================================================================
                                       INPUT FILE
================================================================================
NAME = /scratch/allen/tmpyp4_amber_gaff2/2.Mdgx/conf11/conf11/Conf321.orca
|  1> ! PAL2
|  2> ! mp2 cc-pvdz TightSCF  NoKeepInts
|  3> 
|  4> %scf
|  5>   MaxCore 2000
|  6> end
|  7> %mp2
|  8>   MaxCore 2000
|  9> end
| 10> * xyz 0 1
| 11>    C       -3.27200         6.31700         0.86100
| 12>    C        1.47400         4.04100         0.05700
| 13>    C       -2.80200         4.09300         0.04900
| 14>    C       -3.96600         4.18700        -0.73000
| 15>    C       -4.73600         5.33200        -0.69100
| 16>    C       -5.21300         7.60200         0.09000
| 17>    C        0.13200         4.30700         0.06100
| 18>    C       -0.56900         3.05600         0.04700
| 19>    C        1.64900         2.61800         0.02300
| 20>    C       -2.46600         5.19400         0.85100
| 21>    N       -4.38700         6.37500         0.09900
| 22>    N        0.38800         2.06700         0.02500
| 23>    N       -2.01000         0.39500        -0.07500
| 24>    N       -0.38800        -2.07400        -0.02700
| 25>    N        2.01000        -0.40100         0.06500
| 26>    C       -1.96000         2.86100         0.02400
| 27>    C       -2.62300         1.61500        -0.01800
| 28>    C       -5.57300        -4.32900         1.06600
| 29>    C       -4.07300         1.47100         0.05600
| 30>    C       -4.10600        -2.75600        -0.02600
| 31>    C       -4.99500        -2.75700        -1.11100
| 32>    C       -6.13200        -3.54200        -1.07600
| 33>    C       -7.65100        -5.11300         0.04000
| 34>    C       -4.32400         0.14100         0.03700
| 35>    C       -3.02500        -0.52000        -0.04800
| 36>    C       -4.42200        -3.56600         1.07500
| 37>    N       -6.40700        -4.31300         0.00100
| 38>    C       -2.86700        -1.92200        -0.04000
| 39>    C       -1.65000        -2.62400        -0.02700
| 40>    C        3.56800        -6.14200        -1.04000
| 41>    C       -1.47600        -4.04900        -0.03400
| 42>    C        2.80300        -4.09900        -0.00800
| 43>    C        3.65700        -4.38400         1.06900
| 44>    C        4.42700        -5.53000         1.05900
| 45>    C        5.24500        -7.58800         0.01400
| 46>    C       -0.13400        -4.31500        -0.02200
| 47>    C        0.56800        -3.06400        -0.02700
| 48>    C        2.77500        -5.01200        -1.07400
| 49>    N        4.37600        -6.39100         0.01700
| 50>    C        1.95900        -2.86900        -0.00900
| 51>    C        2.62100        -1.62200         0.00900
| 52>    C        5.54300         4.33900        -1.13000
| 53>    C        4.07000        -1.47900        -0.09400
| 54>    C        4.10400         2.75100        -0.02100
| 55>    C        5.02700         2.72900         1.03600
| 56>    C        6.16600         3.50900         0.97800
| 57>    C        7.61900         5.15300        -0.11500
| 58>    C        4.32100        -0.14800        -0.09200
| 59>    C        3.02500         0.51400         0.01500
| 60>    C        4.38700         3.58200        -1.11500
| 61>    C        2.86600         1.91600         0.01300
| 62>    N        6.41300         4.29600        -0.09500
| 63>    H       -3.05800         7.18400         1.47300
| 64>    H        2.27400         4.76600         0.08100
| 65>    H       -4.27300         3.37400        -1.37600
| 66>    H       -5.63600         5.45400        -1.27900
| 67>    H       -4.88300         8.24700        -0.72900
| 68>    H       -6.25700         7.32200        -0.05100
| 69>    H       -5.08900         8.11500         1.04300
| 70>    H       -0.33200         5.28200         0.06900
| 71>    H       -1.58700         5.17800         1.48600
| 72>    H        0.18200         1.07200         0.00500
| 73>    H       -0.18300        -1.08000        -0.02100
| 74>    H       -5.86400        -4.96200         1.89500
| 75>    H       -4.79400         2.27200         0.13900
| 76>    H       -4.80000        -2.16000        -1.99400
| 77>    H       -6.84100        -3.58200        -1.89300
| 78>    H       -8.42800        -4.53600         0.54600
| 79>    H       -7.95600        -5.33700        -0.98100
| 80>    H       -7.45600        -6.03700         0.58400
| 81>    H       -5.28700        -0.34400         0.10000
| 82>    H       -3.78000        -3.60100         1.94700
| 83>    H        3.58700        -6.86800        -1.84300
| 84>    H       -2.27600        -4.77400        -0.05000
| 85>    H        3.71400        -3.72400         1.92600
| 86>    H        5.09200        -5.79500         1.87100
| 87>    H        6.20500        -7.32900        -0.43900
| 88>    H        5.39300        -7.91700         1.04200
| 89>    H        4.75900        -8.37300        -0.56400
| 90>    H        0.32900        -5.29000        -0.00800
| 91>    H        2.14600        -4.84200        -1.94000
| 92>    H        5.80800         4.98600        -1.95600
| 93>    H        4.78800        -2.28100        -0.18500
| 94>    H        4.86000         2.11400         1.91200
| 95>    H        6.90100         3.53100         1.77200
| 96>    H        7.38300         6.10900         0.35600
| 97>    H        8.41400         4.65200         0.43500
| 98>    H        7.92100         5.31000        -1.15000
| 99>    H        5.28300         0.33600        -0.17900
|100>    H        3.72000         3.63200        -1.96700
|101> *
|102> 
|103>                          ****END OF INPUT****
================================================================================

                       ****************************
                       * Single Point Calculation *
                       ****************************

---------------------------------
CARTESIAN COORDINATES (ANGSTROEM)
---------------------------------
  C     -3.272000    6.317000    0.861000
  C      1.474000    4.041000    0.057000
  C     -2.802000    4.093000    0.049000
  C     -3.966000    4.187000   -0.730000
  C     -4.736000    5.332000   -0.691000
  C     -5.213000    7.602000    0.090000
  C      0.132000    4.307000    0.061000
  C     -0.569000    3.056000    0.047000
  C      1.649000    2.618000    0.023000
  C     -2.466000    5.194000    0.851000
  N     -4.387000    6.375000    0.099000
  N      0.388000    2.067000    0.025000
  N     -2.010000    0.395000   -0.075000
  N     -0.388000   -2.074000   -0.027000
  N      2.010000   -0.401000    0.065000
  C     -1.960000    2.861000    0.024000
  C     -2.623000    1.615000   -0.018000
  C     -5.573000   -4.329000    1.066000
  C     -4.073000    1.471000    0.056000
  C     -4.106000   -2.756000   -0.026000
  C     -4.995000   -2.757000   -1.111000
  C     -6.132000   -3.542000   -1.076000
  C     -7.651000   -5.113000    0.040000
  C     -4.324000    0.141000    0.037000
  C     -3.025000   -0.520000   -0.048000
  C     -4.422000   -3.566000    1.075000
  N     -6.407000   -4.313000    0.001000
  C     -2.867000   -1.922000   -0.040000
  C     -1.650000   -2.624000   -0.027000
  C      3.568000   -6.142000   -1.040000
  C     -1.476000   -4.049000   -0.034000
  C      2.803000   -4.099000   -0.008000
  C      3.657000   -4.384000    1.069000
  C      4.427000   -5.530000    1.059000
  C      5.245000   -7.588000    0.014000
  C     -0.134000   -4.315000   -0.022000
  C      0.568000   -3.064000   -0.027000
  C      2.775000   -5.012000   -1.074000
  N      4.376000   -6.391000    0.017000
  C      1.959000   -2.869000   -0.009000
  C      2.621000   -1.622000    0.009000
  C      5.543000    4.339000   -1.130000
  C      4.070000   -1.479000   -0.094000
  C      4.104000    2.751000   -0.021000
  C      5.027000    2.729000    1.036000
  C      6.166000    3.509000    0.978000
  C      7.619000    5.153000   -0.115000
  C      4.321000   -0.148000   -0.092000
  C      3.025000    0.514000    0.015000
  C      4.387000    3.582000   -1.115000
  C      2.866000    1.916000    0.013000
  N      6.413000    4.296000   -0.095000
  H     -3.058000    7.184000    1.473000
  H      2.274000    4.766000    0.081000
  H     -4.273000    3.374000   -1.376000
  H     -5.636000    5.454000   -1.279000
  H     -4.883000    8.247000   -0.729000
  H     -6.257000    7.322000   -0.051000
  H     -5.089000    8.115000    1.043000
  H     -0.332000    5.282000    0.069000
  H     -1.587000    5.178000    1.486000
  H      0.182000    1.072000    0.005000
  H     -0.183000   -1.080000   -0.021000
  H     -5.864000   -4.962000    1.895000
  H     -4.794000    2.272000    0.139000
  H     -4.800000   -2.160000   -1.994000
  H     -6.841000   -3.582000   -1.893000
  H     -8.428000   -4.536000    0.546000
  H     -7.956000   -5.337000   -0.981000
  H     -7.456000   -6.037000    0.584000
  H     -5.287000   -0.344000    0.100000
  H     -3.780000   -3.601000    1.947000
  H      3.587000   -6.868000   -1.843000
  H     -2.276000   -4.774000   -0.050000
  H      3.714000   -3.724000    1.926000
  H      5.092000   -5.795000    1.871000
  H      6.205000   -7.329000   -0.439000
  H      5.393000   -7.917000    1.042000
  H      4.759000   -8.373000   -0.564000
  H      0.329000   -5.290000   -0.008000
  H      2.146000   -4.842000   -1.940000
  H      5.808000    4.986000   -1.956000
  H      4.788000   -2.281000   -0.185000
  H      4.860000    2.114000    1.912000
  H      6.901000    3.531000    1.772000
  H      7.383000    6.109000    0.356000
  H      8.414000    4.652000    0.435000
  H      7.921000    5.310000   -1.150000
  H      5.283000    0.336000   -0.179000
  H      3.720000    3.632000   -1.967000

----------------------------
CARTESIAN COORDINATES (A.U.)
----------------------------
  NO LB      ZA    FRAG     MASS         X           Y           Z
   0 C     6.0000    0    12.011   -6.183184   11.937400    1.627054
   1 C     6.0000    0    12.011    2.785456    7.636383    0.107714
   2 C     6.0000    0    12.011   -5.295013    7.734649    0.092597
   3 C     6.0000    0    12.011   -7.494654    7.912283   -1.379500
   4 C     6.0000    0    12.011   -8.949743   10.076020   -1.305801
   5 C     6.0000    0    12.011   -9.851142   14.365698    0.170075
   6 C     6.0000    0    12.011    0.249444    8.139050    0.115273
   7 C     6.0000    0    12.011   -1.075254    5.775003    0.088817
   8 C     6.0000    0    12.011    3.116158    4.947303    0.043464
   9 C     6.0000    0    12.011   -4.660065    9.815238    1.608157
  10 N     7.0000    0    14.007   -8.290229   12.047004    0.187083
  11 N     7.0000    0    14.007    0.733214    3.906064    0.047243
  12 N     7.0000    0    14.007   -3.798350    0.746442   -0.141729
  13 N     7.0000    0    14.007   -0.733214   -3.919292   -0.051023
  14 N     7.0000    0    14.007    3.798350   -0.757780    0.122832
  15 C     6.0000    0    12.011   -3.703863    5.406506    0.045353
  16 C     6.0000    0    12.011   -4.956752    3.051908   -0.034015
  17 C     6.0000    0    12.011  -10.531444   -8.180624    2.014448
  18 C     6.0000    0    12.011   -7.696855    2.779787    0.105825
  19 C     6.0000    0    12.011   -7.759216   -5.208085   -0.049133
  20 C     6.0000    0    12.011   -9.439182   -5.209975   -2.099486
  21 C     6.0000    0    12.011  -11.587801   -6.693410   -2.033345
  22 C     6.0000    0    12.011  -14.458295   -9.662170    0.075589
  23 C     6.0000    0    12.011   -8.171176    0.266451    0.069920
  24 C     6.0000    0    12.011   -5.716422   -0.982658   -0.090707
  25 C     6.0000    0    12.011   -8.356369   -6.738763    2.031456
  26 N     7.0000    0    14.007  -12.107475   -8.150389    0.001890
  27 C     6.0000    0    12.011   -5.417845   -3.632054   -0.075589
  28 C     6.0000    0    12.011   -3.118048   -4.958641   -0.051023
  29 C     6.0000    0    12.011    6.742543  -11.606698   -1.965315
  30 C     6.0000    0    12.011   -2.789236   -7.651501   -0.064251
  31 C     6.0000    0    12.011    5.296902   -7.745987   -0.015118
  32 C     6.0000    0    12.011    6.910728   -8.284559    2.020117
  33 C     6.0000    0    12.011    8.365818  -10.450186    2.001220
  34 C     6.0000    0    12.011    9.911614  -14.339242    0.026456
  35 C     6.0000    0    12.011   -0.253223   -8.154168   -0.041574
  36 C     6.0000    0    12.011    1.073364   -5.790121   -0.051023
  37 C     6.0000    0    12.011    5.243990   -9.471307   -2.029566
  38 N     7.0000    0    14.007    8.269442  -12.077240    0.032125
  39 C     6.0000    0    12.011    3.701973   -5.421624   -0.017008
  40 C     6.0000    0    12.011    4.952972   -3.065136    0.017008
  41 C     6.0000    0    12.011   10.474752    8.199522   -2.135391
  42 C     6.0000    0    12.011    7.691185   -2.794905   -0.177634
  43 C     6.0000    0    12.011    7.755436    5.198637   -0.039684
  44 C     6.0000    0    12.011    9.499653    5.157063    1.957756
  45 C     6.0000    0    12.011   11.652051    6.631049    1.848152
  46 C     6.0000    0    12.011   14.397823    9.737759   -0.217319
  47 C     6.0000    0    12.011    8.165507   -0.279679   -0.173855
  48 C     6.0000    0    12.011    5.716422    0.971319    0.028346
  49 C     6.0000    0    12.011    8.290229    6.768999   -2.107045
  50 C     6.0000    0    12.011    5.415955    3.620715    0.024566
  51 N     7.0000    0    14.007   12.118814    8.118263   -0.179524
  52 H     1.0000    0     1.008   -5.778783   13.575793    2.783567
  53 H     1.0000    0     1.008    4.297237    9.006435    0.153068
  54 H     1.0000    0     1.008   -8.074800    6.375936   -2.600263
  55 H     1.0000    0     1.008  -10.650496   10.306566   -2.416960
  56 H     1.0000    0     1.008   -9.227533   15.584571   -1.377610
  57 H     1.0000    0     1.008  -11.824016   13.836575   -0.096376
  58 H     1.0000    0     1.008   -9.616816   15.335128    1.970984
  59 H     1.0000    0     1.008   -0.627389    9.981533    0.130391
  60 H     1.0000    0     1.008   -2.998995    9.785002    2.808133
  61 H     1.0000    0     1.008    0.343930    2.025786    0.009449
  62 H     1.0000    0     1.008   -0.345820   -2.040904   -0.039684
  63 H     1.0000    0     1.008  -11.081354   -9.376821    3.581031
  64 H     1.0000    0     1.008   -9.059347    4.293458    0.262672
  65 H     1.0000    0     1.008   -9.070685   -4.081808   -3.768114
  66 H     1.0000    0     1.008  -12.927616   -6.768999   -3.577252
  67 H     1.0000    0     1.008  -15.926612   -8.571798    1.031790
  68 H     1.0000    0     1.008  -15.034661  -10.085468   -1.853821
  69 H     1.0000    0     1.008  -14.089798  -11.408277    1.103600
  70 H     1.0000    0     1.008   -9.990982   -0.650066    0.188973
  71 H     1.0000    0     1.008   -7.143165   -6.804904    3.679297
  72 H     1.0000    0     1.008    6.778448  -12.978639   -3.482765
  73 H     1.0000    0     1.008   -4.301017   -9.021553   -0.094486
  74 H     1.0000    0     1.008    7.018443   -7.037340    3.639613
  75 H     1.0000    0     1.008    9.622485  -10.950963    3.535678
  76 H     1.0000    0     1.008   11.725751  -13.849803   -0.829590
  77 H     1.0000    0     1.008   10.191293  -14.960962    1.969095
  78 H     1.0000    0     1.008    8.993207  -15.822677   -1.065806
  79 H     1.0000    0     1.008    0.621720   -9.996651   -0.015118
  80 H     1.0000    0     1.008    4.055352   -9.150054   -3.666069
  81 H     1.0000    0     1.008   10.975529    9.422175   -3.696304
  82 H     1.0000    0     1.008    9.048009   -4.310465   -0.349599
  83 H     1.0000    0     1.008    9.184069    3.994881    3.613156
  84 H     1.0000    0     1.008   13.041000    6.672623    3.348595
  85 H     1.0000    0     1.008   13.951848   11.544337    0.672743
  86 H     1.0000    0     1.008   15.900156    8.791006    0.822031
  87 H     1.0000    0     1.008   14.968521   10.034446   -2.173185
  88 H     1.0000    0     1.008    9.983423    0.634948   -0.338261
  89 H     1.0000    0     1.008    7.029781    6.863485   -3.717091

--------------------------------
INTERNAL COORDINATES (ANGSTROEM)
--------------------------------
 C      0   0   0     0.000000000000     0.00000000     0.00000000
 C      1   0   0     5.324575851652     0.00000000     0.00000000
 C      1   2   0     2.413797837434    51.81571624     0.00000000
 C      3   1   2     1.403770992719    87.90975055   212.65060925
 C      4   3   1     1.380378933482   120.15926858     0.13332143
 C      5   4   3     2.447527323647   152.50438764     1.60660953
 C      2   1   3     1.368114030335    16.68947374    11.71753041
 C      7   2   1     1.434084376876   108.05010202   210.42393008
 C      2   1   3     1.434123425651   122.44451167   337.83318035
 C      1   2   3     1.382340406702    29.76577805    32.84462755
 N      1   2   3     1.351751826335   131.94730875   313.53987562
 N      9   2   1     1.376127174356   106.58526707     8.94180565
 N     12   9   2     2.925062050624   168.53581413   171.12065651
 N     13  12   9     2.954513327098    91.55032014    11.12112580
 N     14  13  12     2.925371258490    88.43092389   359.84326247
 C      8   7   2     1.404790019896   127.24786865   181.11170171
 C     13  12   9     1.366535034311    81.72106996   188.00453233
 C     14  13  12     5.758810554272    80.56209567   166.76250791
 C     17  13  12     1.459010623676   111.08861209   183.82872609
 C     18  14  13     2.412235892279    27.27532823    36.33507194
 C     20  18  14     1.402692767501    87.95206320   148.94598259
 C     21  20  18     1.382106725257   120.14573887   359.70382047
 C     18  14  13     2.446510985056   144.15733107    82.80075377
 C     19  17  13     1.353610726908   106.29293361   359.75308708
 C     13  12   9     1.366813447402   172.21332906    33.46711076
 C     18  14  13     1.380960173213    15.08449437   309.23336894
 N     22  21  20     1.352773077792   120.73759875     0.27865223
 C     25  13  17     1.410897586645   125.60330303   182.37774668
 C     14  13  12     1.376642291955    80.24689249   177.85461986
 C     14  13  12     5.764089607215   164.51507311   312.20821879
 C     29  14  13     1.435600919476   106.58649366   178.76395472
 C     30  14  13     2.413316804732    27.10625047    82.12560436
 C     32  30  14     1.403734305344    87.90059683   149.76154742
 C     33  32  30     1.380694028378   120.14881443   359.74174632
 C     34  33  32     2.448777858443   152.49203239     2.45173620
 C     31  29  14     1.368160809262   108.16950133     0.70383075
 C     14  13  12     1.376239804685   169.26375223   353.09862627
 C     30  14  13     1.380907310430    14.68948582   353.70041132
 N     34  33  32     1.352658863128   120.85575621     0.19603406
 C     37  14  29     1.404717053360   126.01551127   180.90772073
 C     15  14  13     1.366491126938    81.61824056   183.09049352
 C      2   1   3     4.249062720177   149.97073609   144.28796741
 C     41  15  14     1.459677704153   111.05201287   175.08990246
 C     42   2   1     2.412953791518    41.78584867   167.77236898
 C     44  42   2     1.403446472082    87.95153797   233.97558675
 C     45  44  42     1.381696421071   120.11137308     0.19721020
 C     42   2   1     2.450019795838   135.97209175    78.08721808
 C     43  41  15     1.354461516618   106.26758155     0.30894352
 C     15  14  13     1.367461151185   171.87382904   332.35056460
 C     42   2   1     1.381886391857    32.59078432   216.62764817
 C      9   2   1     1.404988612053   126.98745415   189.94614318
 N     42   2   1     1.352765315936   113.57249190   105.82380727
 H      1   2   3     1.082602881947   104.56576957   164.78165731
 H      2   1   3     1.079907866440   111.71438386   166.64941434
 H      4   3   1     1.082836091013   121.05605583   179.59160642
 H      5   4   3     1.081955636798   122.83250315   179.48187339
 H      6   5   4     1.093474279533   104.43382492   100.13399046
 H      6   5   4     1.090053668404    84.67208680   209.54922327
 H      6   5   4     1.089382393836   133.92512925   322.42025383
 H      7   2   1     1.079807853278   126.66122480    30.66234386
 H     10   1   2     1.084491585952   118.70746887    59.13633444
 H     12   9   2     1.016297692608   125.29023241   180.00180175
 H     14  13  12     1.014936943854    44.97226959   359.42596618
 H     18  14  13     1.082871645210   128.03556573   234.20482432
 H     19  17  13     1.080893611786   126.41830519   178.11313280
 H     21  20  18     1.083569563987   121.05669627   180.67006309
 H     22  21  20     1.082483256222   122.73097286   180.59748951
 H     23  18  14     1.092105306278   103.92715769   234.93429879
 H     23  18  14     1.088871893291   134.19244188    12.25587044
 H     23  18  14     1.089833473518    84.85857450   125.45241208
 H     24  19  17     1.080075460327   127.28078426   178.44613241
 H     26  18  14     1.083408048706   118.76995697   244.94906660
 H     30  14  13     1.082703098730   127.99711412   279.66882698
 H     31  29  14     1.079759695488   125.22293469   180.92530585
 H     33  32  30     1.083188810873   121.01964473   180.74284758
 H     34  33  32     1.082494341787   122.70821597   180.59516895
 H     35  34  33     1.092652735319   105.73575241    97.19771933
 H     35  34  33     1.089462711615    84.05943581   206.43036958
 H     35  34  33     1.089268102902   133.08365142   318.50306270
 H     36  31  29     1.079439669458   126.61599965   178.98859863
 H     38  30  73     1.083742127999   118.77264435   359.90091293
 H     42   2   1     1.082178358682   119.31790784   322.45533772
 H     43  41  15     1.080281907652   126.36969097   182.06329380
 H     45  44  42     1.083277434455   121.10105945   179.58025624
 H     46  45  44     1.082194529648   122.72144639   179.46906377
 H     47  42   2     1.091546151109   106.65128841   315.16475048
 H     47  42   2     1.088818625851   132.46019523    94.52397119
 H     47  42   2     1.089531091801    83.63838232   206.04504406
 H     48  43  41     1.080402239909   127.23657387   181.62955349
 H     50  42   2     1.083186502870   118.77001737    94.71359229

---------------------------
INTERNAL COORDINATES (A.U.)
---------------------------
 C      0   0   0     0.000000000000     0.00000000     0.00000000
 C      1   0   0    10.061990138914     0.00000000     0.00000000
 C      1   2   0     4.561416855401    51.81571624     0.00000000
 C      3   1   2     2.652742730982    87.90975055   212.65060925
 C      4   3   1     2.608538145315   120.15926858     0.13332143
 C      5   4   3     4.625156346983   152.50438764     1.60660953
 C      2   1   3     2.585360837309    16.68947374    11.71753041
 C      7   2   1     2.710026725231   108.05010202   210.42393008
 C      2   1   3     2.710100516721   122.44451167   337.83318035
 C      1   2   3     2.612244792519    29.76577805    32.84462755
 N      1   2   3     2.554440752801   131.94730875   313.53987562
 N      9   2   1     2.600503484979   106.58526707     8.94180565
 N     12   9   2     5.527566200405   168.53581413   171.12065651
 N     13  12   9     5.583221047236    91.55032014    11.12112580
 N     14  13  12     5.528150518591    88.43092389   359.84326247
 C      8   7   2     2.654668413270   127.24786865   181.11170171
 C     13  12   9     2.582376967257    81.72106996   188.00453233
 C     14  13  12    10.882574804710    80.56209567   166.76250791
 C     17  13  12     2.757130505230   111.08861209   183.82872609
 C     18  14  13     4.558465206823    27.27532823    36.33507194
 C     20  18  14     2.650705180609    87.95206320   148.94598259
 C     21  20  18     2.611803198586   120.14573887   359.70382047
 C     18  14  13     4.623235745386   144.15733107    82.80075377
 C     19  17  13     2.557953565794   106.29293361   359.75308708
 C     13  12   9     2.582903091751   172.21332906    33.46711076
 C     18  14  13     2.609636529225    15.08449437   309.23336894
 N     22  21  20     2.556370638369   120.73759875     0.27865223
 C     25  13  17     2.666210041769   125.60330303   182.37774668
 C     14  13  12     2.601476916169    80.24689249   177.85461986
 C     14  13  12    10.892550769017   164.51507311   312.20821879
 C     29  14  13     2.712892575415   106.58649366   178.76395472
 C     30  14  13     4.560507835333    27.10625047    82.12560436
 C     32  30  14     2.652673401891    87.90059683   149.76154742
 C     33  32  30     2.609133588376   120.14881443   359.74174632
 C     34  33  32     4.627519515267   152.49203239     2.45173620
 C     31  29  14     2.585449236669   108.16950133     0.70383075
 C     14  13  12     2.600716325456   169.26375223   353.09862627
 C     30  14  13     2.609536633043    14.68948582   353.70041132
 N     34  33  32     2.556154803934   120.85575621     0.19603406
 C     37  14  29     2.654530526499   126.01551127   180.90772073
 C     15  14  13     2.582293994346    81.61824056   183.09049352
 C      2   1   3     8.029564866989   149.97073609   144.28796741
 C     41  15  14     2.758391104639   111.05201287   175.08990246
 C     42   2   1     4.559821839776    41.78584867   167.77236898
 C     44  42   2     2.652129475853    87.95153797   233.97558675
 C     45  44  42     2.611027836043   120.11137308     0.19721020
 C     42   2   1     4.629866436820   135.97209175    78.08721808
 C     43  41  15     2.559561325344   106.26758155     0.30894352
 C     15  14  13     2.584127074516   171.87382904   332.35056460
 C     42   2   1     2.611386828803    32.59078432   216.62764817
 C      9   2   1     2.655043698059   126.98745415   189.94614318
 N     42   2   1     2.556355970587   113.57249190   105.82380727
 H      1   2   3     2.045822958674   104.56576957   164.78165731
 H      2   1   3     2.040730117440   111.71438386   166.64941434
 H      4   3   1     2.046263659940   121.05605583   179.59160642
 H      5   4   3     2.044599842601   122.83250315   179.48187339
 H      6   5   4     2.066366922804   104.43382492   100.13399046
 H      6   5   4     2.059902904559    84.67208680   209.54922327
 H      6   5   4     2.058634379466   133.92512925   322.42025383
 H      7   2   1     2.040541119952   126.66122480    30.66234386
 H     10   1   2     2.049392091991   118.70746887    59.13633444
 H     12   9   2     1.920524309565   125.29023241   180.00180175
 H     14  13  12     1.917952867083    44.97226959   359.42596618
 H     18  14  13     2.046330847636   128.03556573   234.20482432
 H     19  17  13     2.042592906181   126.41830519   178.11313280
 H     21  20  18     2.047649722989   121.05669627   180.67006309
 H     22  21  20     2.045596898814   122.73097286   180.59748951
 H     23  18  14     2.063779938267   103.92715769   234.93429879
 H     23  18  14     2.057669673245   134.19244188    12.25587044
 H     23  18  14     2.059486796529    84.85857450   125.45241208
 H     24  19  17     2.041046823986   127.28078426   178.44613241
 H     26  18  14     2.047344503340   118.76995697   244.94906660
 H     30  14  13     2.046012340948   127.99711412   279.66882698
 H     31  29  14     2.040450114918   125.22293469   180.92530585
 H     33  32  30     2.046930203877   121.01964473   180.74284758
 H     34  33  32     2.045617847496   122.70821597   180.59516895
 H     35  34  33     2.064814429233   105.73575241    97.19771933
 H     35  34  33     2.058786158072    84.05943581   206.43036958
 H     35  34  33     2.058418400901   133.08365142   318.50306270
 H     36  31  29     2.039845353366   126.61599965   178.98859863
 H     38  30  73     2.047975821711   118.77264435   359.90091293
 H     42   2   1     2.045020725966   119.31790784   322.45533772
 H     43  41  15     2.041436952892   126.36969097   182.06329380
 H     45  44  42     2.047097678177   121.10105945   179.58025624
 H     46  45  44     2.045051284662   122.72144639   179.46906377
 H     47  42   2     2.062723288131   106.65128841   315.16475048
 H     47  42   2     2.057569012371   132.46019523    94.52397119
 H     47  42   2     2.058915377895    83.63838232   206.04504406
 H     48  43  41     2.041664347903   127.23657387   181.62955349
 H     50  42   2     2.046925842384   118.77001737    94.71359229

---------------------
BASIS SET INFORMATION
---------------------
There are 3 groups of distinct atoms

 Group   1 Type C   : 17s4p1d contracted to 3s2p1d pattern {881/31/1}
 Group   2 Type N   : 17s4p1d contracted to 3s2p1d pattern {881/31/1}
 Group   3 Type H   : 4s1p contracted to 2s1p pattern {31/1}

Atom   0C    basis set group =>   1
Atom   1N    basis set group =>   2
Atom   2C    basis set group =>   1
Atom   3N    basis set group =>   2
Atom   4C    basis set group =>   1
Atom   5N    basis set group =>   2
Atom   6C    basis set group =>   1
Atom   7N    basis set group =>   2
Atom   8C    basis set group =>   1
Atom   9N    basis set group =>   2
Atom  10C    basis set group =>   1
Atom  11N    basis set group =>   2
Atom  12C    basis set group =>   1
Atom  13N    basis set group =>   2
Atom  14C    basis set group =>   1
Atom  15N    basis set group =>   2
Atom  16C    basis set group =>   1
Atom  17C    basis set group =>   1
Atom  18C    basis set group =>   1
Atom  19C    basis set group =>   1
Atom  20C    basis set group =>   1
Atom  21C    basis set group =>   1
Atom  22C    basis set group =>   1
Atom  23C    basis set group =>   1
Atom  24C    basis set group =>   1
Atom  25C    basis set group =>   1
Atom  26C    basis set group =>   1
Atom  27C    basis set group =>   1
Atom  28C    basis set group =>   1
Atom  29C    basis set group =>   1
Atom  30C    basis set group =>   1
Atom  31C    basis set group =>   1
Atom  32C    basis set group =>   1
Atom  33C    basis set group =>   1
Atom  34C    basis set group =>   1
Atom  35C    basis set group =>   1
Atom  36C    basis set group =>   1
Atom  37C    basis set group =>   1
Atom  38C    basis set group =>   1
Atom  39C    basis set group =>   1
Atom  40C    basis set group =>   1
Atom  41C    basis set group =>   1
Atom  42C    basis set group =>   1
Atom  43C    basis set group =>   1
Atom  44C    basis set group =>   1
Atom  45C    basis set group =>   1
Atom  46C    basis set group =>   1
Atom  47C    basis set group =>   1
Atom  48C    basis set group =>   1
Atom  49C    basis set group =>   1
Atom  50C    basis set group =>   1
Atom  51C    basis set group =>   1
Atom  52H    basis set group =>   3
Atom  53H    basis set group =>   3
Atom  54H    basis set group =>   3
Atom  55H    basis set group =>   3
Atom  56H    basis set group =>   3
Atom  57H    basis set group =>   3
Atom  58H    basis set group =>   3
Atom  59H    basis set group =>   3
Atom  60H    basis set group =>   3
Atom  61H    basis set group =>   3
Atom  62H    basis set group =>   3
Atom  63H    basis set group =>   3
Atom  64H    basis set group =>   3
Atom  65H    basis set group =>   3
Atom  66H    basis set group =>   3
Atom  67H    basis set group =>   3
Atom  68H    basis set group =>   3
Atom  69H    basis set group =>   3
Atom  70H    basis set group =>   3
Atom  71H    basis set group =>   3
Atom  72H    basis set group =>   3
Atom  73H    basis set group =>   3
Atom  74H    basis set group =>   3
Atom  75H    basis set group =>   3
Atom  76H    basis set group =>   3
Atom  77H    basis set group =>   3
Atom  78H    basis set group =>   3
Atom  79H    basis set group =>   3
Atom  80H    basis set group =>   3
Atom  81H    basis set group =>   3
Atom  82H    basis set group =>   3
Atom  83H    basis set group =>   3
Atom  84H    basis set group =>   3
Atom  85H    basis set group =>   3
Atom  86H    basis set group =>   3
Atom  87H    basis set group =>   3
Atom  88H    basis set group =>   3
Atom  89H    basis set group =>   3


           ************************************************************
           *        Program running with 8 parallel MPI-processes     *
           *              working on a common directory               *
           ************************************************************
------------------------------------------------------------------------------
                           ORCA GTO INTEGRAL CALCULATION
------------------------------------------------------------------------------
------------------------------------------------------------------------------
                   ___                                                        
                  /   \      - P O W E R E D   B Y -                         
                 /     \                                                     
                 |  |  |   _    _      __       _____    __    __             
                 |  |  |  | |  | |    /  \     |  _  \  |  |  /  |          
                  \  \/   | |  | |   /    \    | | | |  |  | /  /          
                 / \  \   | |__| |  /  /\  \   | |_| |  |  |/  /          
                |  |  |   |  __  | /  /__\  \  |    /   |      \           
                |  |  |   | |  | | |   __   |  |    \   |  |\   \          
                \     /   | |  | | |  |  |  |  | |\  \  |  | \   \       
                 \___/    |_|  |_| |__|  |__|  |_| \__\ |__|  \__/        
                                                                              
                      - O R C A' S   B I G   F R I E N D -                    
                                      &                                       
                       - I N T E G R A L  F E E D E R -                       
                                                                              
 v1 FN, 2020, v2 2021                                                         
------------------------------------------------------------------------------


Reading SHARK input file /scratch/chu_02/allen/tmpyp4_amber_gaff2/conf1/conf1/Conf321.orca.SHARKINP.tmp ... ok
----------------------
SHARK INTEGRAL PACKAGE
----------------------

Number of atoms                             ...     90
Number of basis functions                   ...   1230
Number of shells                            ...    738
Maximum angular momentum                    ...      2
Integral batch strategy                     ... SHARK/LIBINT Hybrid
RI-J (if used) integral strategy            ... SPLIT-RIJ (Revised 2003 algorithm where possible)
Printlevel                                  ...      1
Contraction scheme used                     ... PARTIAL GENERAL contraction
Coulomb Range Separation                    ... NOT USED
Exchange Range Separation                   ... NOT USED
Finite Nucleus Model                        ... NOT USED
Auxiliary Coulomb fitting basis             ... NOT available
Auxiliary J/K fitting basis                 ... NOT available
Auxiliary Correlation fitting basis         ... NOT available
Auxiliary 'external' fitting basis          ... NOT available
Integral threshold                          ...     2.500000e-11
Primitive cut-off                           ...     2.500000e-12
Primitive pair pre-selection threshold      ...     2.500000e-12

Calculating pre-screening integrals         ... done (  0.1 sec) Dimension = 738
Calculating pre-screening integrals (ORCA)  ... done (  0.3 sec) Dimension = 426
Organizing shell pair data                  ... done (  0.5 sec)
Shell pair information
Total number of shell pairs                 ...    272691
Shell pairs after pre-screening             ...     71632
Total number of primitive shell pairs       ...    422091
Primitive shell pairs kept                  ...     92423
          la=0 lb=0:  29407 shell pairs
          la=1 lb=0:  25988 shell pairs
          la=1 lb=1:   4704 shell pairs
          la=2 lb=0:   7881 shell pairs
          la=2 lb=1:   3122 shell pairs
          la=2 lb=2:    530 shell pairs

Calculating one electron integrals          ... done (  0.2 sec)
Calculating Nuclear repulsion               ... done (  0.0 sec) ENN=   6228.813775172933 Eh

SHARK setup successfully completed in   1.5 seconds

Maximum memory used throughout the entire GTOINT-calculation: 99.0 MB


           ************************************************************
           *        Program running with 8 parallel MPI-processes     *
           *              working on a common directory               *
           ************************************************************
-------------------------------------------------------------------------------
                                 ORCA SCF
-------------------------------------------------------------------------------

------------
SCF SETTINGS
------------
Hamiltonian:
 Ab initio Hamiltonian  Method          .... Hartree-Fock(GTOs)


General Settings:
 Integral files         IntName         .... /scratch/chu_02/allen/tmpyp4_amber_gaff2/conf1/conf1/Conf321.orca
 Hartree-Fock type      HFTyp           .... RHF
 Total Charge           Charge          ....    0
 Multiplicity           Mult            ....    1
 Number of Electrons    NEL             ....  358
 Basis Dimension        Dim             ....  918
 Nuclear Repulsion      ENuc            ....   6228.8137751729 Eh

Convergence Acceleration:
 DIIS                   CNVDIIS         .... on
   Start iteration      DIISMaxIt       ....    12
   Startup error        DIISStart       ....  0.200000
   # of expansion vecs  DIISMaxEq       ....     5
   Bias factor          DIISBfac        ....   1.050
   Max. coefficient     DIISMaxC        ....  10.000
 Trust-Rad. Augm. Hess. CNVTRAH         .... auto
   Auto Start mean grad. ratio tolernc. ....  1.125000
   Auto Start start iteration           ....    20
   Auto Start num. interpolation iter.  ....    10
   Max. Number of Micro iterations      ....    16
   Max. Number of Macro iterations      .... Maxiter - #DIIS iter
   Number of Davidson start vectors     ....     2
   Converg. threshold I  (grad. norm)   ....   1.000e-05
   Converg. threshold II (energy diff.) ....   1.000e-08
   Grad. Scal. Fac. for Micro threshold ....   0.100
   Minimum threshold for Micro iter.    ....   0.010
   NR start threshold (gradient norm)   ....   0.001
   Initial trust radius                 ....   0.400
   Minimum AH scaling param. (alpha)    ....   1.000
   Maximum AH scaling param. (alpha)    .... 1000.000
   Orbital update algorithm             .... Taylor
   White noise on init. David. guess    .... on
   Maximum white noise                  ....   0.010
   Quad. conv. algorithm                .... NR
 SOSCF                  CNVSOSCF        .... on
   Start iteration      SOSCFMaxIt      ....   150
   Startup grad/error   SOSCFStart      ....  0.003300
 Level Shifting         CNVShift        .... on
   Level shift para.    LevelShift      ....    0.2500
   Turn off err/grad.   ShiftErr        ....    0.0010
 Zerner damping         CNVZerner       .... off
 Static damping         CNVDamp         .... on
   Fraction old density DampFac         ....    0.7000
   Max. Damping (<1)    DampMax         ....    0.9800
   Min. Damping (>=0)   DampMin         ....    0.0000
   Turn off err/grad.   DampErr         ....    0.1000
 Fernandez-Rico         CNVRico         .... off

SCF Procedure:
 Maximum # iterations   MaxIter         ....   125
 SCF integral mode      SCFMode         .... Direct
   Integral package                     .... SHARK and LIBINT hybrid scheme
 Reset frequency        DirectResetFreq ....    20
 Integral Threshold     Thresh          ....  2.500e-11 Eh
 Primitive CutOff       TCut            ....  2.500e-12 Eh

Convergence Tolerance:
 Convergence Check Mode ConvCheckMode   .... Total+1el-Energy
 Convergence forced     ConvForced      .... 1
 Energy Change          TolE            ....  1.000e-08 Eh
 1-El. energy change                    ....  1.000e-05 Eh
 Orbital Gradient       TolG            ....  1.000e-05
 Orbital Rotation angle TolX            ....  1.000e-05
 DIIS Error             TolErr          ....  5.000e-07


Diagonalization of the overlap matrix:
Smallest eigenvalue                        ... 2.231e-04
Time for diagonalization                   ...    0.203 sec
Threshold for overlap eigenvalues          ... 1.000e-08
Number of eigenvalues below threshold      ... 0
Time for construction of square roots      ...    0.117 sec
Total time needed                          ...    0.325 sec

Time for model grid setup =    1.299 sec

------------------------------
INITIAL GUESS: MODEL POTENTIAL
------------------------------
Loading Hartree-Fock densities                     ... done
Calculating cut-offs                               ... done
Initializing the effective Hamiltonian             ... done
Setting up the integral package (SHARK)            ... done
Starting the Coulomb interaction                   ... done (   1.6 sec)
Reading the grid                                   ... done
Mapping shells                                     ... done
Starting the XC term evaluation                    ... done (   0.3 sec)
Transforming the Hamiltonian                       ... done (   0.1 sec)
Diagonalizing the Hamiltonian                      ... done (   0.2 sec)
Back transforming the eigenvectors                 ... done (   0.0 sec)
Now organizing SCF variables                       ... done
                      ------------------
                      INITIAL GUESS DONE (   3.6 sec)
                      ------------------
--------------
SCF ITERATIONS
--------------
ITER       Energy         Delta-E        Max-DP      RMS-DP      [F,P]     Damp
               ***  Starting incremental Fock matrix formation  ***
  0  -2121.6956787210   0.000000000000 0.06987389  0.00120822  0.2323749 0.7000
  1  -2122.3533607139  -0.657681992838 0.05262131  0.00098170  0.1439037 0.7000
                               ***Turning on DIIS***
  2  -2122.7620757422  -0.408715028361 0.12265588  0.00222853  0.0802416 0.0000
  3  -2117.8847819465   4.877293795767 0.03019421  0.00066986  0.0440106 0.0000
  4  -2123.4341029650  -5.549321018478 0.00919117  0.00022526  0.0073026 0.0000
  5  -2123.5978748963  -0.163771931366 0.00517967  0.00013259  0.0049995 0.0000
  6  -2123.5809551555   0.016919740798 0.00353405  0.00008534  0.0019598 0.0000
  7  -2123.6807996473  -0.099844491808 0.00300409  0.00006702  0.0015536 0.0000
  8  -2123.6932736360  -0.012473988678 0.00315985  0.00006285  0.0014433 0.0000
  9  -2123.6614700829   0.031803553140 0.00252739  0.00004353  0.0011490 0.0000
 10  -2123.6717876490  -0.010317566093 0.00511897  0.00008900  0.0008842 0.0000
                      *** Initiating the SOSCF procedure ***
                           *** Shutting down DIIS ***
                      *** Re-Reading the Fockian *** 
                      *** Removing any level shift *** 
ITER      Energy       Delta-E        Grad      Rot      Max-DP    RMS-DP
 11  -2123.56146611   0.1103215374  0.000210  0.000210  0.000246  0.000005
               *** Restarting incremental Fock matrix formation ***
 12  -2123.62691750  -0.0654513850  0.000845  0.005676  0.001292  0.000032
 13  -2123.62700755  -0.0000900575  0.001013  0.027674  0.006193  0.000125
 14  -2123.62716056  -0.0001530024  0.000367  0.001971  0.000540  0.000012
 15  -2123.62717634  -0.0000157869  0.000173  0.003768  0.000905  0.000019
 16  -2123.62718663  -0.0000102823  0.000167  0.003611  0.000573  0.000012
 17  -2123.62719022  -0.0000035964  0.000141  0.002345  0.000353  0.000008
 18  -2123.62719216  -0.0000019336  0.000077  0.000994  0.000318  0.000004
 19  -2123.62719303  -0.0000008743  0.000047  0.000550  0.000145  0.000003
 20  -2123.62719330  -0.0000002658  0.000023  0.000449  0.000098  0.000002
 21  -2123.62719344  -0.0000001413  0.000024  0.000314  0.000094  0.000002
 22  -2123.62719352  -0.0000000834  0.000015  0.000324  0.000090  0.000001
 23  -2123.62719357  -0.0000000507  0.000008  0.000197  0.000044  0.000001
 24  -2123.62719360  -0.0000000257  0.000005  0.000142  0.000031  0.000001
 25  -2123.62719361  -0.0000000103  0.000004  0.000106  0.000018  0.000000
 26  -2123.62719361  -0.0000000059  0.000003  0.000129  0.000019  0.000000
 27  -2123.62719362  -0.0000000058  0.000003  0.000136  0.000019  0.000000
                  ***Gradient check signals convergence***
              ***Rediagonalizing the Fockian in SOSCF/NRSCF***

               *****************************************************
               *                     SUCCESS                       *
               *           SCF CONVERGED AFTER  28 CYCLES          *
               *****************************************************


----------------
TOTAL SCF ENERGY
----------------

Total Energy       :        -2123.62719362 Eh          -57786.83376 eV

Components:
Nuclear Repulsion  :         6228.81377517 Eh          169494.63976 eV
Electronic Energy  :        -8352.44096879 Eh         -227281.47353 eV
One Electron Energy:       -15298.52586149 Eh         -416294.05267 eV
Two Electron Energy:         6946.08489270 Eh          189012.57914 eV

Virial components:
Potential Energy   :        -4245.69627529 Eh         -115531.26915 eV
Kinetic Energy     :         2122.06908167 Eh           57744.43538 eV
Virial Ratio       :            2.00073424


---------------
SCF CONVERGENCE
---------------

  Last Energy change         ...   -1.7480e-09  Tolerance :   1.0000e-08
  Last MAX-Density change    ...    1.3705e-05  Tolerance :   1.0000e-07
  Last RMS-Density change    ...    3.6493e-07  Tolerance :   5.0000e-09
  Last Orbital Gradient      ...    2.3603e-06  Tolerance :   1.0000e-05
  Last Orbital Rotation      ...    1.1962e-04  Tolerance :   1.0000e-05

             **** THE GBW FILE WAS UPDATED (/scratch/chu_02/allen/tmpyp4_amber_gaff2/conf1/conf1/Conf321.orca.gbw) ****
             **** DENSITY /scratch/chu_02/allen/tmpyp4_amber_gaff2/conf1/conf1/Conf321.orca.scfp WAS UPDATED ****
             **** ENERGY FILE WAS UPDATED (/scratch/chu_02/allen/tmpyp4_amber_gaff2/conf1/conf1/Conf321.orca.en.tmp) ****
             **** THE GBW FILE WAS UPDATED (/scratch/chu_02/allen/tmpyp4_amber_gaff2/conf1/conf1/Conf321.orca.gbw) ****
             **** DENSITY /scratch/chu_02/allen/tmpyp4_amber_gaff2/conf1/conf1/Conf321.orca.scfp WAS UPDATED ****
----------------
ORBITAL ENERGIES
----------------

  NO   OCC          E(Eh)            E(eV) 
   0   2.0000     -15.665443      -426.2784 
   1   2.0000     -15.638168      -425.5362 
   2   2.0000     -15.628621      -425.2764 
   3   2.0000     -15.596238      -424.3952 
   4   2.0000     -15.524035      -422.4305 
   5   2.0000     -15.515812      -422.2067 
   6   2.0000     -15.450130      -420.4194 
   7   2.0000     -15.443452      -420.2377 
   8   2.0000     -11.319061      -308.0073 
   9   2.0000     -11.317989      -307.9781 
  10   2.0000     -11.315705      -307.9160 
  11   2.0000     -11.301924      -307.5410 
  12   2.0000     -11.296212      -307.3856 
  13   2.0000     -11.295679      -307.3711 
  14   2.0000     -11.291157      -307.2480 
  15   2.0000     -11.287605      -307.1514 
  16   2.0000     -11.284349      -307.0628 
  17   2.0000     -11.276881      -306.8595 
  18   2.0000     -11.268559      -306.6331 
  19   2.0000     -11.261758      -306.4480 
  20   2.0000     -11.259236      -306.3794 
  21   2.0000     -11.253284      -306.2174 
  22   2.0000     -11.252359      -306.1923 
  23   2.0000     -11.241753      -305.9037 
  24   2.0000     -11.234231      -305.6990 
  25   2.0000     -11.233669      -305.6837 
  26   2.0000     -11.233334      -305.6746 
  27   2.0000     -11.227162      -305.5066 
  28   2.0000     -11.226903      -305.4995 
  29   2.0000     -11.208654      -305.0030 
  30   2.0000     -11.207396      -304.9688 
  31   2.0000     -11.206315      -304.9393 
  32   2.0000     -11.201239      -304.8012 
  33   2.0000     -11.200989      -304.7944 
  34   2.0000     -11.190119      -304.4986 
  35   2.0000     -11.189811      -304.4902 
  36   2.0000     -11.185030      -304.3601 
  37   2.0000     -11.181559      -304.2657 
  38   2.0000     -11.180797      -304.2450 
  39   2.0000     -11.174360      -304.0698 
  40   2.0000     -11.170294      -303.9591 
  41   2.0000     -11.168147      -303.9007 
  42   2.0000     -11.166782      -303.8636 
  43   2.0000     -11.163758      -303.7813 
  44   2.0000     -11.162586      -303.7494 
  45   2.0000     -11.160541      -303.6938 
  46   2.0000     -11.154553      -303.5308 
  47   2.0000     -11.150247      -303.4136 
  48   2.0000     -11.148660      -303.3704 
  49   2.0000     -11.143490      -303.2298 
  50   2.0000     -11.136000      -303.0260 
  51   2.0000     -11.129724      -302.8552 
  52   2.0000      -1.348165       -36.6854 
  53   2.0000      -1.324838       -36.0507 
  54   2.0000      -1.316751       -35.8306 
  55   2.0000      -1.289983       -35.1022 
  56   2.0000      -1.224268       -33.3140 
  57   2.0000      -1.210615       -32.9425 
  58   2.0000      -1.168192       -31.7881 
  59   2.0000      -1.154508       -31.4157 
  60   2.0000      -1.133316       -30.8391 
  61   2.0000      -1.113210       -30.2920 
  62   2.0000      -1.106405       -30.1068 
  63   2.0000      -1.084978       -29.5237 
  64   2.0000      -1.070729       -29.1360 
  65   2.0000      -1.048852       -28.5407 
  66   2.0000      -1.041493       -28.3405 
  67   2.0000      -1.034583       -28.1524 
  68   2.0000      -1.017554       -27.6890 
  69   2.0000      -1.014213       -27.5981 
  70   2.0000      -1.009445       -27.4684 
  71   2.0000      -0.992645       -27.0112 
  72   2.0000      -0.987546       -26.8725 
  73   2.0000      -0.977432       -26.5973 
  74   2.0000      -0.972483       -26.4626 
  75   2.0000      -0.959258       -26.1027 
  76   2.0000      -0.951090       -25.8805 
  77   2.0000      -0.947422       -25.7807 
  78   2.0000      -0.936251       -25.4767 
  79   2.0000      -0.920885       -25.0586 
  80   2.0000      -0.901020       -24.5180 
  81   2.0000      -0.891220       -24.2513 
  82   2.0000      -0.875930       -23.8353 
  83   2.0000      -0.870334       -23.6830 
  84   2.0000      -0.865790       -23.5593 
  85   2.0000      -0.855120       -23.2690 
  86   2.0000      -0.842883       -22.9360 
  87   2.0000      -0.838099       -22.8058 
  88   2.0000      -0.822464       -22.3804 
  89   2.0000      -0.798615       -21.7314 
  90   2.0000      -0.794010       -21.6061 
  91   2.0000      -0.745766       -20.2933 
  92   2.0000      -0.737870       -20.0785 
  93   2.0000      -0.732249       -19.9255 
  94   2.0000      -0.723547       -19.6887 
  95   2.0000      -0.719827       -19.5875 
  96   2.0000      -0.714004       -19.4290 
  97   2.0000      -0.706383       -19.2216 
  98   2.0000      -0.702708       -19.1217 
  99   2.0000      -0.696330       -18.9481 
 100   2.0000      -0.694545       -18.8995 
 101   2.0000      -0.682044       -18.5594 
 102   2.0000      -0.679401       -18.4874 
 103   2.0000      -0.674874       -18.3643 
 104   2.0000      -0.674778       -18.3616 
 105   2.0000      -0.670902       -18.2562 
 106   2.0000      -0.665342       -18.1049 
 107   2.0000      -0.662713       -18.0333 
 108   2.0000      -0.656280       -17.8583 
 109   2.0000      -0.653580       -17.7848 
 110   2.0000      -0.649422       -17.6717 
 111   2.0000      -0.645299       -17.5595 
 112   2.0000      -0.642578       -17.4854 
 113   2.0000      -0.636684       -17.3250 
 114   2.0000      -0.635668       -17.2974 
 115   2.0000      -0.628571       -17.1043 
 116   2.0000      -0.624001       -16.9799 
 117   2.0000      -0.615777       -16.7561 
 118   2.0000      -0.614847       -16.7308 
 119   2.0000      -0.612458       -16.6658 
 120   2.0000      -0.608844       -16.5675 
 121   2.0000      -0.602485       -16.3945 
 122   2.0000      -0.600321       -16.3356 
 123   2.0000      -0.587808       -15.9951 
 124   2.0000      -0.585915       -15.9435 
 125   2.0000      -0.583778       -15.8854 
 126   2.0000      -0.578577       -15.7439 
 127   2.0000      -0.577611       -15.7176 
 128   2.0000      -0.563516       -15.3341 
 129   2.0000      -0.558424       -15.1955 
 130   2.0000      -0.553337       -15.0571 
 131   2.0000      -0.548828       -14.9344 
 132   2.0000      -0.542625       -14.7656 
 133   2.0000      -0.539115       -14.6701 
 134   2.0000      -0.536161       -14.5897 
 135   2.0000      -0.534135       -14.5346 
 136   2.0000      -0.525062       -14.2877 
 137   2.0000      -0.524230       -14.2650 
 138   2.0000      -0.517879       -14.0922 
 139   2.0000      -0.514128       -13.9901 
 140   2.0000      -0.510957       -13.9038 
 141   2.0000      -0.510000       -13.8778 
 142   2.0000      -0.509311       -13.8590 
 143   2.0000      -0.502703       -13.6792 
 144   2.0000      -0.500635       -13.6230 
 145   2.0000      -0.496961       -13.5230 
 146   2.0000      -0.494161       -13.4468 
 147   2.0000      -0.485766       -13.2184 
 148   2.0000      -0.483316       -13.1517 
 149   2.0000      -0.468334       -12.7440 
 150   2.0000      -0.464316       -12.6347 
 151   2.0000      -0.456395       -12.4191 
 152   2.0000      -0.448798       -12.2124 
 153   2.0000      -0.446705       -12.1554 
 154   2.0000      -0.444848       -12.1049 
 155   2.0000      -0.440329       -11.9820 
 156   2.0000      -0.431830       -11.7507 
 157   2.0000      -0.427526       -11.6336 
 158   2.0000      -0.401270       -10.9191 
 159   2.0000      -0.385770       -10.4973 
 160   2.0000      -0.379155       -10.3173 
 161   2.0000      -0.377767       -10.2795 
 162   2.0000      -0.370808       -10.0902 
 163   2.0000      -0.359477        -9.7819 
 164   2.0000      -0.353397        -9.6164 
 165   2.0000      -0.337902        -9.1948 
 166   2.0000      -0.337355        -9.1799 
 167   2.0000      -0.330434        -8.9916 
 168   2.0000      -0.328104        -8.9282 
 169   2.0000      -0.302904        -8.2424 
 170   2.0000      -0.299683        -8.1548 
 171   2.0000      -0.286824        -7.8049 
 172   2.0000      -0.283997        -7.7280 
 173   2.0000      -0.260009        -7.0752 
 174   2.0000      -0.245278        -6.6744 
 175   2.0000      -0.189546        -5.1578 
 176   2.0000      -0.179783        -4.8922 
 177   2.0000      -0.072704        -1.9784 
 178   2.0000      -0.057375        -1.5613 
 179   0.0000       0.028946         0.7877 
 180   0.0000       0.067605         1.8396 
 181   0.0000       0.092117         2.5066 
 182   0.0000       0.105938         2.8827 
 183   0.0000       0.115741         3.1495 
 184   0.0000       0.134388         3.6569 
 185   0.0000       0.141483         3.8500 
 186   0.0000       0.148412         4.0385 
 187   0.0000       0.162739         4.4283 
 188   0.0000       0.163478         4.4485 
 189   0.0000       0.164956         4.4887 
 190   0.0000       0.167564         4.5596 
 191   0.0000       0.183640         4.9971 
 192   0.0000       0.187939         5.1141 
 193   0.0000       0.191361         5.2072 
 194   0.0000       0.202544         5.5115 
 195   0.0000       0.205957         5.6044 
 196   0.0000       0.207614         5.6495 
 197   0.0000       0.210643         5.7319 
 198   0.0000       0.223089         6.0706 
 199   0.0000       0.223510         6.0820 
 200   0.0000       0.228898         6.2286 
 201   0.0000       0.237185         6.4541 
 202   0.0000       0.241057         6.5595 
 203   0.0000       0.241560         6.5732 
 204   0.0000       0.250592         6.8190 
 205   0.0000       0.254939         6.9372 
 206   0.0000       0.258034         7.0215 
 207   0.0000       0.259322         7.0565 
 208   0.0000       0.260573         7.0906 
 209   0.0000       0.261583         7.1180 
 210   0.0000       0.264321         7.1925 
 211   0.0000       0.270048         7.3484 
 212   0.0000       0.271486         7.3875 
 213   0.0000       0.272019         7.4020 
 214   0.0000       0.276405         7.5213 
 215   0.0000       0.277664         7.5556 
 216   0.0000       0.278989         7.5917 
 217   0.0000       0.281153         7.6506 
 218   0.0000       0.284410         7.7392 
 219   0.0000       0.288185         7.8419 
 220   0.0000       0.289739         7.8842 
 221   0.0000       0.293476         7.9859 
 222   0.0000       0.294135         8.0038 
 223   0.0000       0.296351         8.0641 
 224   0.0000       0.297561         8.0970 
 225   0.0000       0.299771         8.1572 
 226   0.0000       0.307026         8.3546 
 227   0.0000       0.308486         8.3943 
 228   0.0000       0.309566         8.4237 
 229   0.0000       0.319801         8.7022 
 230   0.0000       0.324206         8.8221 
 231   0.0000       0.324413         8.8277 
 232   0.0000       0.329405         8.9636 
 233   0.0000       0.330547         8.9946 
 234   0.0000       0.343215         9.3393 
 235   0.0000       0.346652         9.4329 
 236   0.0000       0.355461         9.6726 
 237   0.0000       0.380454        10.3527 
 238   0.0000       0.394807        10.7433 
 239   0.0000       0.397422        10.8144 
 240   0.0000       0.401787        10.9332 
 241   0.0000       0.413719        11.2579 
 242   0.0000       0.418416        11.3857 
 243   0.0000       0.420500        11.4424 
 244   0.0000       0.427025        11.6200 
 245   0.0000       0.434411        11.8209 
 246   0.0000       0.435951        11.8628 
 247   0.0000       0.438524        11.9328 
 248   0.0000       0.443553        12.0697 
 249   0.0000       0.444291        12.0898 
 250   0.0000       0.451489        12.2856 
 251   0.0000       0.459085        12.4923 
 252   0.0000       0.461469        12.5572 
 253   0.0000       0.466765        12.7013 
 254   0.0000       0.469713        12.7815 
 255   0.0000       0.474007        12.8984 
 256   0.0000       0.481441        13.1007 
 257   0.0000       0.482609        13.1324 
 258   0.0000       0.487827        13.2744 
 259   0.0000       0.499436        13.5903 
 260   0.0000       0.501881        13.6569 
 261   0.0000       0.504326        13.7234 
 262   0.0000       0.506268        13.7763 
 263   0.0000       0.509213        13.8564 
 264   0.0000       0.513983        13.9862 
 265   0.0000       0.518084        14.0978 
 266   0.0000       0.520631        14.1671 
 267   0.0000       0.524434        14.2706 
 268   0.0000       0.533958        14.5297 
 269   0.0000       0.538198        14.6451 
 270   0.0000       0.540490        14.7075 
 271   0.0000       0.546788        14.8789 
 272   0.0000       0.548136        14.9155 
 273   0.0000       0.555981        15.1290 
 274   0.0000       0.560595        15.2546 
 275   0.0000       0.565859        15.3978 
 276   0.0000       0.569128        15.4868 
 277   0.0000       0.574182        15.6243 
 278   0.0000       0.578876        15.7520 
 279   0.0000       0.586103        15.9487 
 280   0.0000       0.587986        15.9999 
 281   0.0000       0.590609        16.0713 
 282   0.0000       0.592739        16.1293 
 283   0.0000       0.597471        16.2580 
 284   0.0000       0.598150        16.2765 
 285   0.0000       0.599011        16.2999 
 286   0.0000       0.607523        16.5315 
 287   0.0000       0.612454        16.6657 
 288   0.0000       0.613055        16.6821 
 289   0.0000       0.622199        16.9309 
 290   0.0000       0.627409        17.0727 
 291   0.0000       0.628804        17.1106 
 292   0.0000       0.633393        17.2355 
 293   0.0000       0.635507        17.2930 
 294   0.0000       0.646241        17.5851 
 295   0.0000       0.650108        17.6903 
 296   0.0000       0.653869        17.7927 
 297   0.0000       0.657344        17.8872 
 298   0.0000       0.664668        18.0865 
 299   0.0000       0.666520        18.1369 
 300   0.0000       0.670172        18.2363 
 301   0.0000       0.670603        18.2480 
 302   0.0000       0.678586        18.4653 
 303   0.0000       0.680653        18.5215 
 304   0.0000       0.683079        18.5875 
 305   0.0000       0.687154        18.6984 
 306   0.0000       0.690698        18.7948 
 307   0.0000       0.691920        18.8281 
 308   0.0000       0.695198        18.9173 
 309   0.0000       0.698333        19.0026 
 310   0.0000       0.700455        19.0603 
 311   0.0000       0.703574        19.1452 
 312   0.0000       0.706352        19.2208 
 313   0.0000       0.708980        19.2923 
 314   0.0000       0.711513        19.3613 
 315   0.0000       0.713122        19.4050 
 316   0.0000       0.717125        19.5140 
 317   0.0000       0.718820        19.5601 
 318   0.0000       0.722527        19.6610 
 319   0.0000       0.724844        19.7240 
 320   0.0000       0.726280        19.7631 
 321   0.0000       0.728687        19.8286 
 322   0.0000       0.733122        19.9493 
 323   0.0000       0.737193        20.0600 
 324   0.0000       0.738035        20.0830 
 325   0.0000       0.740178        20.1413 
 326   0.0000       0.742655        20.2087 
 327   0.0000       0.745641        20.2899 
 328   0.0000       0.748651        20.3718 
 329   0.0000       0.750301        20.4167 
 330   0.0000       0.752194        20.4683 
 331   0.0000       0.755186        20.5497 
 332   0.0000       0.760391        20.6913 
 333   0.0000       0.762325        20.7439 
 334   0.0000       0.769864        20.9491 
 335   0.0000       0.772048        21.0085 
 336   0.0000       0.775478        21.1018 
 337   0.0000       0.784092        21.3362 
 338   0.0000       0.784776        21.3548 
 339   0.0000       0.786404        21.3991 
 340   0.0000       0.790859        21.5204 
 341   0.0000       0.795429        21.6447 
 342   0.0000       0.796906        21.6849 
 343   0.0000       0.800835        21.7918 
 344   0.0000       0.804607        21.8945 
 345   0.0000       0.806517        21.9464 
 346   0.0000       0.808224        21.9929 
 347   0.0000       0.812514        22.1096 
 348   0.0000       0.815248        22.1840 
 349   0.0000       0.817811        22.2538 
 350   0.0000       0.819842        22.3090 
 351   0.0000       0.821929        22.3658 
 352   0.0000       0.824605        22.4386 
 353   0.0000       0.825581        22.4652 
 354   0.0000       0.828101        22.5338 
 355   0.0000       0.831856        22.6359 
 356   0.0000       0.832268        22.6472 
 357   0.0000       0.836107        22.7516 
 358   0.0000       0.836903        22.7733 
 359   0.0000       0.838814        22.8253 
 360   0.0000       0.842243        22.9186 
 361   0.0000       0.842862        22.9354 
 362   0.0000       0.844073        22.9684 
 363   0.0000       0.845839        23.0164 
 364   0.0000       0.849131        23.1060 
 365   0.0000       0.853197        23.2167 
 366   0.0000       0.855194        23.2710 
 367   0.0000       0.858665        23.3655 
 368   0.0000       0.861790        23.4505 
 369   0.0000       0.863633        23.5006 
 370   0.0000       0.866574        23.5807 
 371   0.0000       0.871218        23.7070 
 372   0.0000       0.874440        23.7947 
 373   0.0000       0.878160        23.8959 
 374   0.0000       0.881685        23.9919 
 375   0.0000       0.883128        24.0311 
 376   0.0000       0.886129        24.1128 
 377   0.0000       0.888215        24.1696 
 378   0.0000       0.889925        24.2161 
 379   0.0000       0.894983        24.3537 
 380   0.0000       0.897178        24.4135 
 381   0.0000       0.899454        24.4754 
 382   0.0000       0.902935        24.5701 
 383   0.0000       0.903074        24.5739 
 384   0.0000       0.903918        24.5969 
 385   0.0000       0.905495        24.6398 
 386   0.0000       0.906302        24.6617 
 387   0.0000       0.908742        24.7281 
 388   0.0000       0.911089        24.7920 
 389   0.0000       0.915515        24.9124 
 390   0.0000       0.919083        25.0095 
 391   0.0000       0.922300        25.0971 
 392   0.0000       0.923440        25.1281 
 393   0.0000       0.925452        25.1828 
 394   0.0000       0.928283        25.2599 
 395   0.0000       0.930449        25.3188 
 396   0.0000       0.931523        25.3480 
 397   0.0000       0.936329        25.4788 
 398   0.0000       0.939606        25.5680 
 399   0.0000       0.941638        25.6233 
 400   0.0000       0.943073        25.6623 
 401   0.0000       0.948689        25.8151 
 402   0.0000       0.953278        25.9400 
 403   0.0000       0.955180        25.9918 
 404   0.0000       0.958628        26.0856 
 405   0.0000       0.959956        26.1217 
 406   0.0000       0.962003        26.1774 
 407   0.0000       0.965089        26.2614 
 408   0.0000       0.967642        26.3309 
 409   0.0000       0.975665        26.5492 
 410   0.0000       0.976849        26.5814 
 411   0.0000       0.982054        26.7230 
 412   0.0000       0.987749        26.8780 
 413   0.0000       0.988656        26.9027 
 414   0.0000       0.990366        26.9492 
 415   0.0000       1.000343        27.2207 
 416   0.0000       1.003604        27.3095 
 417   0.0000       1.005614        27.3642 
 418   0.0000       1.007212        27.4076 
 419   0.0000       1.017963        27.7002 
 420   0.0000       1.022045        27.8113 
 421   0.0000       1.028812        27.9954 
 422   0.0000       1.035109        28.1667 
 423   0.0000       1.042320        28.3630 
 424   0.0000       1.043453        28.3938 
 425   0.0000       1.053089        28.6560 
 426   0.0000       1.056682        28.7538 
 427   0.0000       1.060353        28.8537 
 428   0.0000       1.066743        29.0276 
 429   0.0000       1.071810        29.1654 
 430   0.0000       1.077976        29.3332 
 431   0.0000       1.083058        29.4715 
 432   0.0000       1.086035        29.5525 
 433   0.0000       1.087727        29.5985 
 434   0.0000       1.098306        29.8864 
 435   0.0000       1.104586        30.0573 
 436   0.0000       1.107040        30.1241 
 437   0.0000       1.112094        30.2616 
 438   0.0000       1.114265        30.3207 
 439   0.0000       1.116651        30.3856 
 440   0.0000       1.121181        30.5089 
 441   0.0000       1.124277        30.5931 
 442   0.0000       1.126556        30.6551 
 443   0.0000       1.127623        30.6842 
 444   0.0000       1.131875        30.7999 
 445   0.0000       1.133874        30.8543 
 446   0.0000       1.141230        31.0544 
 447   0.0000       1.142126        31.0788 
 448   0.0000       1.145640        31.1744 
 449   0.0000       1.150622        31.3100 
 450   0.0000       1.151244        31.3269 
 451   0.0000       1.151446        31.3324 
 452   0.0000       1.156237        31.4628 
 453   0.0000       1.158448        31.5230 
 454   0.0000       1.163524        31.6611 
 455   0.0000       1.170677        31.8557 
 456   0.0000       1.171784        31.8859 
 457   0.0000       1.177148        32.0318 
 458   0.0000       1.178723        32.0747 
 459   0.0000       1.185716        32.2650 
 460   0.0000       1.186879        32.2966 
 461   0.0000       1.195512        32.5315 
 462   0.0000       1.202014        32.7085 
 463   0.0000       1.202826        32.7306 
 464   0.0000       1.205491        32.8031 
 465   0.0000       1.208721        32.8910 
 466   0.0000       1.211914        32.9779 
 467   0.0000       1.214622        33.0515 
 468   0.0000       1.221625        33.2421 
 469   0.0000       1.226450        33.3734 
 470   0.0000       1.229815        33.4650 
 471   0.0000       1.233226        33.5578 
 472   0.0000       1.234143        33.5827 
 473   0.0000       1.235523        33.6203 
 474   0.0000       1.242180        33.8014 
 475   0.0000       1.245796        33.8998 
 476   0.0000       1.250514        34.0282 
 477   0.0000       1.252223        34.0747 
 478   0.0000       1.253410        34.1070 
 479   0.0000       1.255043        34.1515 
 480   0.0000       1.258656        34.2498 
 481   0.0000       1.263145        34.3719 
 482   0.0000       1.268951        34.5299 
 483   0.0000       1.272565        34.6283 
 484   0.0000       1.274541        34.6820 
 485   0.0000       1.276280        34.7294 
 486   0.0000       1.279067        34.8052 
 487   0.0000       1.282488        34.8983 
 488   0.0000       1.287364        35.0310 
 489   0.0000       1.290147        35.1067 
 490   0.0000       1.294414        35.2228 
 491   0.0000       1.297031        35.2940 
 492   0.0000       1.299642        35.3651 
 493   0.0000       1.303919        35.4814 
 494   0.0000       1.310533        35.6614 
 495   0.0000       1.314260        35.7628 
 496   0.0000       1.317336        35.8465 
 497   0.0000       1.323206        36.0063 
 498   0.0000       1.324448        36.0401 
 499   0.0000       1.328592        36.1528 
 500   0.0000       1.333540        36.2875 
 501   0.0000       1.335794        36.3488 
 502   0.0000       1.340478        36.4763 
 503   0.0000       1.348094        36.6835 
 504   0.0000       1.349037        36.7092 
 505   0.0000       1.351218        36.7685 
 506   0.0000       1.352472        36.8026 
 507   0.0000       1.357116        36.9290 
 508   0.0000       1.362123        37.0652 
[...]
 76 H s       :     0.887590  s :     0.887590
      pz      :     0.022065  p :     0.079712
      px      :     0.043511
      py      :     0.014136
 77 H s       :     0.886131  s :     0.886131
      pz      :     0.047860  p :     0.079151
      px      :     0.015019
      py      :     0.016272
 78 H s       :     0.886551  s :     0.886551
      pz      :     0.025819  p :     0.079101
      px      :     0.020489
      py      :     0.032792
 79 H s       :     0.909877  s :     0.909877
      pz      :     0.021910  p :     0.086477
      px      :     0.021698
      py      :     0.042869
 80 H s       :     0.866758  s :     0.866758
      pz      :     0.039206  p :     0.084586
      px      :     0.030166
      py      :     0.015214
 81 H s       :     0.887160  s :     0.887160
      pz      :     0.037788  p :     0.084043
      px      :     0.016185
      py      :     0.030070
 82 H s       :     0.915933  s :     0.915933
      pz      :     0.022028  p :     0.086761
      px      :     0.031540
      py      :     0.033192
 83 H s       :     0.873582  s :     0.873582
      pz      :     0.039230  p :     0.084023
      px      :     0.015277
      py      :     0.029516
 84 H s       :     0.887196  s :     0.887196
      pz      :     0.035751  p :     0.083530
      px      :     0.031692
      py      :     0.016087
 85 H s       :     0.893445  s :     0.893445
      pz      :     0.022485  p :     0.079756
      px      :     0.014088
      py      :     0.043183
 86 H s       :     0.891160  s :     0.891160
      pz      :     0.024720  p :     0.078818
      px      :     0.032969
      py      :     0.021130
 87 H s       :     0.890134  s :     0.890134
      pz      :     0.047987  p :     0.078712
      px      :     0.015592
      py      :     0.015134
 88 H s       :     0.911655  s :     0.911655
      pz      :     0.021806  p :     0.087019
      px      :     0.042782
      py      :     0.022431
 89 H s       :     0.871608  s :     0.871608
      pz      :     0.037934  p :     0.083841
      px      :     0.030470
      py      :     0.015437


                      *****************************
                      * MAYER POPULATION ANALYSIS *
                      *****************************

  NA   - Mulliken gross atomic population
  ZA   - Total nuclear charge
  QA   - Mulliken gross atomic charge
  VA   - Mayer's total valence
  BVA  - Mayer's bonded valence
  FA   - Mayer's free valence

  ATOM       NA         ZA         QA         VA         BVA        FA
  0 C      5.7921     6.0000     0.2079     3.8423     3.8423     0.0000
  1 N      7.4527     7.0000    -0.4527     3.3329     3.3329    -0.0000
  2 C      6.0644     6.0000    -0.0644     3.9212     3.9212     0.0000
  3 N      7.3361     7.0000    -0.3361     3.4574     3.4574    -0.0000
  4 C      6.0540     6.0000    -0.0540     3.9971     3.9971     0.0000
  5 N      7.5606     7.0000    -0.5606     3.0942     3.0942    -0.0000
  6 C      6.1027     6.0000    -0.1027     4.0084     4.0084     0.0000
  7 N      7.3398     7.0000    -0.3398     3.4356     3.4356     0.0000
  8 C      5.7973     6.0000     0.2027     3.8374     3.8374     0.0000
  9 N      7.5627     7.0000    -0.5627     3.0799     3.0799     0.0000
 10 C      5.8821     6.0000     0.1179     3.9069     3.9069     0.0000
 11 N      7.4376     7.0000    -0.4376     3.3827     3.3827     0.0000
 12 C      6.0800     6.0000    -0.0800     3.9115     3.9115    -0.0000
 13 N      7.4328     7.0000    -0.4328     3.4126     3.4126    -0.0000
 14 C      5.7707     6.0000     0.2293     3.7817     3.7817     0.0000
 15 N      7.4414     7.0000    -0.4414     3.3697     3.3697     0.0000
 16 C      5.7701     6.0000     0.2299     3.7815     3.7815     0.0000
 17 C      6.1122     6.0000    -0.1122     4.0078     4.0078     0.0000
 18 C      6.1780     6.0000    -0.1780     3.7662     3.7662     0.0000
 19 C      5.7846     6.0000     0.2154     3.8623     3.8623     0.0000
 20 C      5.7868     6.0000     0.2132     3.8276     3.8276    -0.0000
 21 C      6.0915     6.0000    -0.0915     3.9054     3.9054     0.0000
 22 C      6.0883     6.0000    -0.0883     3.9821     3.9821     0.0000
 23 C      6.0425     6.0000    -0.0425     3.9918     3.9918     0.0000
 24 C      5.8016     6.0000     0.1984     3.8218     3.8218     0.0000
 25 C      5.8860     6.0000     0.1140     3.8900     3.8900    -0.0000
 26 C      6.0742     6.0000    -0.0742     3.9066     3.9066    -0.0000
 27 C      5.7867     6.0000     0.2133     3.8683     3.8683     0.0000
 28 C      6.0585     6.0000    -0.0585     3.9885     3.9885     0.0000
 29 C      6.1810     6.0000    -0.1810     3.7430     3.7430     0.0000
 30 C      5.7574     6.0000     0.2426     3.7967     3.7967    -0.0000
 31 C      5.7749     6.0000     0.2251     3.8209     3.8209    -0.0000
 32 C      6.0622     6.0000    -0.0622     3.9221     3.9221     0.0000
 33 C      6.0673     6.0000    -0.0673     3.9765     3.9765     0.0000
 34 C      6.0496     6.0000    -0.0496     3.9866     3.9866     0.0000
 35 C      5.7805     6.0000     0.2195     3.8193     3.8193     0.0000
 36 C      5.8899     6.0000     0.1101     3.8802     3.8802     0.0000
 37 C      6.0650     6.0000    -0.0650     3.9175     3.9175     0.0000
 38 C      5.7659     6.0000     0.2341     3.8014     3.8014     0.0000
 39 C      6.0598     6.0000    -0.0598     3.9857     3.9857    -0.0000
 40 C      6.1830     6.0000    -0.1830     3.7314     3.7314     0.0000
 41 C      5.7770     6.0000     0.2230     3.8845     3.8845    -0.0000
 42 C      5.8017     6.0000     0.1983     3.8267     3.8267     0.0000
 43 C      6.0730     6.0000    -0.0730     3.9007     3.9007     0.0000
 44 C      6.0908     6.0000    -0.0908     3.9857     3.9857     0.0000
 45 C      6.0591     6.0000    -0.0591     3.9923     3.9923    -0.0000
 46 C      5.7920     6.0000     0.2080     3.8281     3.8281    -0.0000
 47 C      5.8843     6.0000     0.1157     3.8939     3.8939     0.0000
 48 C      6.0698     6.0000    -0.0698     3.9078     3.9078    -0.0000
 49 C      5.7654     6.0000     0.2346     3.8918     3.8918    -0.0000
 50 C      6.0483     6.0000    -0.0483     3.9906     3.9906     0.0000
 51 C      6.1925     6.0000    -0.1925     3.7367     3.7367    -0.0000
 52 H      0.9571     1.0000     0.0429     0.9858     0.9858     0.0000
 53 H      1.0159     1.0000    -0.0159     0.9985     0.9985    -0.0000
 54 H      0.9500     1.0000     0.0500     1.0131     1.0131     0.0000
 55 H      0.9591     1.0000     0.0409     0.9867     0.9867    -0.0000
 56 H      0.9497     1.0000     0.0503     0.9700     0.9700    -0.0000
 57 H      0.9501     1.0000     0.0499     0.9824     0.9824    -0.0000
 58 H      0.9513     1.0000     0.0487     0.9854     0.9854    -0.0000
 59 H      1.0010     1.0000    -0.0010     1.0037     1.0037    -0.0000
 60 H      0.9507     1.0000     0.0493     1.0101     1.0101    -0.0000
 61 H      0.8287     1.0000     0.1713     1.0419     1.0419     0.0000
 62 H      0.8251     1.0000     0.1749     1.0436     1.0436     0.0000
 63 H      0.9432     1.0000     0.0568     0.9852     0.9852     0.0000
 64 H      1.0065     1.0000    -0.0065     0.9966     0.9966     0.0000
 65 H      0.9531     1.0000     0.0469     1.0096     1.0096     0.0000
 66 H      0.9431     1.0000     0.0569     0.9853     0.9853    -0.0000
 67 H      0.9366     1.0000     0.0634     0.9720     0.9720    -0.0000
 68 H      0.9420     1.0000     0.0580     0.9868     0.9868     0.0000
 69 H      0.9423     1.0000     0.0577     0.9829     0.9829    -0.0000
 70 H      1.0274     1.0000    -0.0274     0.9930     0.9930    -0.0000
 71 H      0.9532     1.0000     0.0468     1.0061     1.0061    -0.0000
 72 H      0.9333     1.0000     0.0667     0.9840     0.9840    -0.0000
 73 H      1.0097     1.0000    -0.0097     1.0001     1.0001     0.0000
 74 H      0.9438     1.0000     0.0562     1.0102     1.0102     0.0000
 75 H      0.9341     1.0000     0.0659     0.9845     0.9845    -0.0000
 76 H      0.9291     1.0000     0.0709     0.9720     0.9720     0.0000
 77 H      0.9351     1.0000     0.0649     0.9854     0.9854     0.0000
 78 H      0.9360     1.0000     0.0640     0.9852     0.9852     0.0000
 79 H      1.0152     1.0000    -0.0152     0.9983     0.9983    -0.0000
 80 H      0.9433     1.0000     0.0567     1.0071     1.0071    -0.0000
 81 H      0.9464     1.0000     0.0536     0.9856     0.9856    -0.0000
 82 H      1.0249     1.0000    -0.0249     0.9935     0.9935     0.0000
 83 H      0.9587     1.0000     0.0413     1.0086     1.0086    -0.0000
 84 H      0.9469     1.0000     0.0531     0.9854     0.9854    -0.0000
 85 H      0.9403     1.0000     0.0597     0.9715     0.9715    -0.0000
 86 H      0.9447     1.0000     0.0553     0.9839     0.9839    -0.0000
 87 H      0.9433     1.0000     0.0567     0.9856     0.9856     0.0000
 88 H      1.0167     1.0000    -0.0167     0.9961     0.9961    -0.0000
 89 H      0.9539     1.0000     0.0461     1.0070     1.0070     0.0000

  Mayer bond orders larger than 0.100000
B(  0-C ,  1-N ) :   1.0970 B(  0-C , 17-C ) :   1.6917 B(  0-C , 52-H ) :   0.9678 
B(  1-N ,  8-C ) :   1.0860 B(  1-N , 10-C ) :   0.9757 B(  2-C , 12-C ) :   1.5175 
B(  2-C , 16-C ) :   1.3463 B(  2-C , 53-H ) :   0.9766 B(  3-N , 14-C ) :   1.2154 
B(  3-N , 16-C ) :   1.1929 B(  3-N , 61-H ) :   0.8994 B(  4-C ,  6-C ) :   1.2184 
B(  4-C , 17-C ) :   1.2183 B(  4-C , 18-C ) :   1.3990 B(  5-N , 19-C ) :   1.4465 
B(  5-N , 27-C ) :   1.3849 B(  6-C ,  8-C ) :   1.6964 B(  6-C , 54-H ) :   0.9647 
B(  7-N , 30-C ) :   1.1937 B(  7-N , 38-C ) :   1.1947 B(  7-N , 62-H ) :   0.8971 
B(  8-C , 55-H ) :   0.9692 B(  9-N , 41-C ) :   1.3957 B(  9-N , 49-C ) :   1.4258 
B( 10-C , 56-H ) :   0.9765 B( 10-C , 57-H ) :   0.9830 B( 10-C , 58-H ) :   0.9834 
B( 11-N , 20-C ) :   1.1310 B( 11-N , 24-C ) :   1.1136 B( 11-N , 25-C ) :   0.9585 
B( 12-C , 14-C ) :   1.3487 B( 12-C , 59-H ) :   0.9747 B( 13-N , 31-C ) :   1.1504 
B( 13-N , 35-C ) :   1.1444 B( 13-N , 36-C ) :   0.9473 B( 14-C , 18-C ) :   1.1468 
B( 15-N , 42-C ) :   1.1084 B( 15-N , 46-C ) :   1.1196 B( 15-N , 47-C ) :   0.9624 
B( 16-C , 51-C ) :   1.1788 B( 17-C , 60-H ) :   0.9651 B( 18-C , 19-C ) :   1.1519 
B( 19-C , 21-C ) :   1.2352 B( 20-C , 28-C ) :   1.6247 B( 20-C , 63-H ) :   0.9702 
B( 21-C , 26-C ) :   1.6233 B( 21-C , 64-H ) :   0.9714 B( 22-C , 23-C ) :   1.2900 
B( 22-C , 28-C ) :   1.2693 B( 22-C , 29-C ) :   1.2207 B( 23-C , 24-C ) :   1.6168 
B( 23-C , 65-H ) :   0.9706 B( 24-C , 66-H ) :   0.9694 B( 25-C , 67-H ) :   0.9761 
B( 25-C , 68-H ) :   0.9828 B( 25-C , 69-H ) :   0.9822 B( 26-C , 27-C ) :   1.2301 
B( 26-C , 70-H ) :   0.9714 B( 27-C , 29-C ) :   1.2186 B( 28-C , 71-H ) :   0.9718 
B( 29-C , 30-C ) :   1.2355 B( 30-C , 32-C ) :   1.2884 B( 31-C , 39-C ) :   1.6018 
B( 31-C , 72-H ) :   0.9686 B( 32-C , 37-C ) :   1.5708 B( 32-C , 73-H ) :   0.9783 
B( 33-C , 34-C ) :   1.2983 B( 33-C , 39-C ) :   1.2915 B( 33-C , 40-C ) :   1.1974 
B( 34-C , 35-C ) :   1.5983 B( 34-C , 74-H ) :   0.9698 B( 35-C , 75-H ) :   0.9687 
B( 36-C , 76-H ) :   0.9766 B( 36-C , 77-H ) :   0.9817 B( 36-C , 78-H ) :   0.9826 
B( 37-C , 38-C ) :   1.2918 B( 37-C , 79-H ) :   0.9770 B( 38-C , 40-C ) :   1.2270 
B( 39-C , 80-H ) :   0.9709 B( 40-C , 41-C ) :   1.2404 B( 41-C , 43-C ) :   1.1958 
B( 42-C , 50-C ) :   1.6356 B( 42-C , 81-H ) :   0.9697 B( 43-C , 48-C ) :   1.6559 
B( 43-C , 82-H ) :   0.9725 B( 44-C , 45-C ) :   1.2637 B( 44-C , 50-C ) :   1.2688 
B( 44-C , 51-C ) :   1.2635 B( 45-C , 46-C ) :   1.6363 B( 45-C , 83-H ) :   0.9717 
B( 46-C , 84-H ) :   0.9702 B( 47-C , 85-H ) :   0.9762 B( 47-C , 86-H ) :   0.9829 
B( 47-C , 87-H ) :   0.9825 B( 48-C , 49-C ) :   1.1986 B( 48-C , 88-H ) :   0.9746 
B( 49-C , 51-C ) :   1.2315 B( 50-C , 89-H ) :   0.9710 

-------
TIMINGS
-------

Total SCF time: 0 days 0 hours 42 min 37 sec 

Total time                  ....    2557.154 sec
Sum of individual times     ....    2554.268 sec  ( 99.9%)

Fock matrix formation       ....    2536.829 sec  ( 99.2%)
Diagonalization             ....       4.680 sec  (  0.2%)
Density matrix formation    ....       0.506 sec  (  0.0%)
Population analysis         ....       0.317 sec  (  0.0%)
Initial guess               ....       2.260 sec  (  0.1%)
Orbital Transformation      ....       0.000 sec  (  0.0%)
Orbital Orthonormalization  ....       0.000 sec  (  0.0%)
DIIS solution               ....       2.540 sec  (  0.1%)
SOSCF solution              ....       5.837 sec  (  0.2%)

Maximum memory used throughout the entire SCF-calculation: 304.2 MB


           ************************************************************
           *        Program running with 8 parallel MPI-processes     *
           *              working on a common directory               *
           ************************************************************

------------------------------------------------------------------------------
                                ORCA  MP2 
------------------------------------------------------------------------------

Freezing NCore=104 chemical core electrons

----------
MP2 ENERGY (disk based algorithm)
----------

Dimension of the basis                    ...  918
Memory devoted to MP2                     ... 7000 MB   
Data format for buffers                   ... DOUBLE
Compression type for matrix containers    ... UNCOMPRESSED

-------------------------------
PARTIAL EXCHANGE TRANSFORMATION
-------------------------------

Transformation type                        ... one-operator
Generation of integrals (i,mue|j,nue)      ... ON
Generation of integrals (mue,kappa|nue,tau)... OFF
Generation of integrals (i,mue|a,nue)      ... OFF
Dimension of the basis                     ...  918
Number of internal MOs                     ...  127 (  52- 178)
Pair cutoff                                ... 2.500e-12 Eh
Number of AO pairs in the trafo            ... 421821
Total Number of distinct AO pairs          ... 421821
Memory devoted for trafo                   ... 7000.0 MB 
Max. Number of MO pairs treated together   ... 1088      
Number Format for Storage                  ... Double (8 Byte)
Integral package used                      ... LIBINT

Starting integral evaluation:
    ... done with AO integral generation
Closing buffer AOK     (38.24 GB; CompressionRatio= 1.33)
Collecting buffer AOK 
Number of MO pairs included in the trafo   ... 8128
------------------------
SORTING OF (i,mue|j,nue)
------------------------

IBATCH = 1 of  1
Closing buffer KAO     (51.03 GB; CompressionRatio= 1.00)
Collecting buffer KAO 
N(AO-Batches) Done                         ... 174403355 
N(AO-Batches) Skipped                      ... 167213917 
N(IJ)-pairs Skipped                        ...         0 
TOTAL TIME for half transformation         ...  1346.346 sec
AO-integral generation                     ...   252.776 sec
Half transformation                        ...   471.846 sec
K-integral sorting                         ...   289.702 sec

Finished integral transformation - now doing MP2 part

OPERATOR COMBINATION   0   0: ij=( 52..178, 52..178)
Process 2:   Internal MO  84
Process 5:   Internal MO 132
Process 0:   Internal MO  54
Process 0:   Internal MO  57
Process 1:   Internal MO  69
Process 0:   Internal MO  60
Process 4:   Internal MO 117
Process 0:   Internal MO  63
Process 1:   Internal MO  72
Process 3:   Internal MO 102
Process 2:   Internal MO  87
Process 0:   Internal MO  66
Process 7:   Internal MO 165
Process 1:   Internal MO  75
Process 6:   Internal MO 150
Process 2:   Internal MO  90
Process 1:   Internal MO  78
Process 5:   Internal MO 135
Process 4:   Internal MO 120
Process 3:   Internal MO 105
Process 1:   Internal MO  81
Process 2:   Internal MO  93
Process 3:   Internal MO 108
Process 2:   Internal MO  96
Process 4:   Internal MO 123
Process 6:   Internal MO 153
Process 7:   Internal MO 168
Process 5:   Internal MO 138
Process 2:   Internal MO  99
Process 3:   Internal MO 111
Process 4:   Internal MO 126
Process 5:   Internal MO 141
Process 6:   Internal MO 156
Process 3:   Internal MO 114
Process 7:   Internal MO 171
Process 4:   Internal MO 129
Process 5:   Internal MO 144
Process 6:   Internal MO 159
Process 7:   Internal MO 174
Process 5:   Internal MO 147
Process 6:   Internal MO 162
Process 7:   Internal MO 177
-----------------------------------------------
 MP2 CORRELATION ENERGY   :     -7.283143621 Eh
-----------------------------------------------


-------
TIMINGS
-------
Total time                : 1502.064 sec
Integral trafo            : 1362.972 sec ( 90.7%)
K(i,j)                    :    8.823 sec (  0.6%)
T(i,j)                    :    0.119 sec (  0.0%)

---------------------------------------
MP2 TOTAL ENERGY:    -2130.910337242 Eh
---------------------------------------

Maximum memory used throughout the entire MP2-calculation: 6735.8 MB

-------------------------   --------------------
FINAL SINGLE POINT ENERGY     -2130.910337241502
-------------------------   --------------------


                            ***************************************
                            *     ORCA property calculations      *
                            ***************************************


  WARNING: The energy has been calculated at the MP2 level but the densities
           used in the property calculations are still SCF densities
           MP2 response densities have not been calculated 
           use %mp2 Density relaxed end
           or  %mp2 Density unrelaxed end

                                    ---------------------
                                    Active property flags
                                    ---------------------
   (+) Dipole Moment


------------------------------------------------------------------------------
                       ORCA ELECTRIC PROPERTIES CALCULATION
------------------------------------------------------------------------------

Dipole Moment Calculation                       ... on
Quadrupole Moment Calculation                   ... off
Polarizability Calculation                      ... off
GBWName                                         ... /scratch/chu_02/allen/tmpyp4_amber_gaff2/conf1/conf1/Conf321.orca.gbw
Electron density                                ... /scratch/chu_02/allen/tmpyp4_amber_gaff2/conf1/conf1/Conf321.orca.scfp
The origin for moment calculation is the CENTER OF MASS  = (-0.001224, -0.004912  0.000004)

-------------
DIPOLE MOMENT
-------------
                                X             Y             Z
Electronic contribution:      1.65014      -3.41322      -0.06187
Nuclear contribution   :      0.00338       0.19010       0.07222
                        -----------------------------------------
Total Dipole Moment    :      1.65352      -3.22311       0.01034
                        -----------------------------------------
Magnitude (a.u.)       :      3.62253
Magnitude (Debye)      :      9.20773



--------------------
Rotational spectrum 
--------------------
 
Rotational constants in cm-1:     0.001501     0.001475     0.000761 
Rotational constants in MHz :    45.005894    44.223854    22.818414 

 Dipole components along the rotational axes: 
x,y,z [a.u.] :     2.443538    -2.674258     0.012412 
x,y,z [Debye]:     6.210981    -6.797424     0.031550 

 

Timings for individual modules:

Sum of individual times         ...     4065.006 sec (=  67.750 min)
GTO integral calculation        ...        2.728 sec (=   0.045 min)   0.1 %
SCF iterations                  ...     2558.849 sec (=  42.647 min)  62.9 %
MP2 module                      ...     1503.429 sec (=  25.057 min)  37.0 %
                             ****ORCA TERMINATED NORMALLY****
TOTAL RUN TIME: 0 days 1 hours 7 minutes 47 seconds 105 msec
# of primitive gaussian functions

