
                                 *****************
                                 * O   R   C   A *
                                 *****************

                                            #,                                       
                                            ###                                      
                                            ####                                     
                                            #####                                    
                                            ######                                   
                                           ########,                                 
                                     ,,################,,,,,                         
                               ,,#################################,,                 
                          ,,##########################################,,             
                       ,#########################################, ''#####,          
                    ,#############################################,,   '####,        
                  ,##################################################,,,,####,       
                ,###########''''           ''''###############################       
              ,#####''   ,,,,##########,,,,          '''####'''          '####       
            ,##' ,,,,###########################,,,                        '##       
           ' ,,###''''                  '''############,,,                           
         ,,##''                                '''############,,,,        ,,,,,,###''
      ,#''                                            '''#######################'''  
     '                                                          ''''####''''         
             ,#######,   #######,   ,#######,      ##                                
            ,#'     '#,  ##    ##  ,#'     '#,    #''#        ######   ,####,        
            ##       ##  ##   ,#'  ##            #'  '#       #        #'  '#        
            ##       ##  #######   ##           ,######,      #####,   #    #        
            '#,     ,#'  ##    ##  '#,     ,#' ,#      #,         ##   #,  ,#        
             '#######'   ##     ##  '#######'  #'      '#     #####' # '####'        



                  #######################################################
                  #                        -***-                        #
                  #          Department of theory and spectroscopy      #
                  #    Directorship and core code : Frank Neese         #
                  #        Max Planck Institute fuer Kohlenforschung    #
                  #                Kaiser Wilhelm Platz 1               #
                  #                 D-45470 Muelheim/Ruhr               #
                  #                      Germany                        #
                  #                                                     #
                  #                  All rights reserved                #
                  #                        -***-                        #
                  #######################################################


                         Program Version 5.0.4 -  RELEASE  -


 With contributions from (in alphabetic order):
   Daniel Aravena         : Magnetic Suceptibility
   Michael Atanasov       : Ab Initio Ligand Field Theory (pilot matlab implementation)
   Alexander A. Auer      : GIAO ZORA, VPT2 properties, NMR spectrum
   Ute Becker             : Parallelization
   Giovanni Bistoni       : ED, misc. LED, open-shell LED, HFLD
   Martin Brehm           : Molecular dynamics
   Dmytro Bykov           : SCF Hessian
   Vijay G. Chilkuri      : MRCI spin determinant printing, contributions to CSF-ICE
   Dipayan Datta          : RHF DLPNO-CCSD density
   Achintya Kumar Dutta   : EOM-CC, STEOM-CC
   Dmitry Ganyushin       : Spin-Orbit,Spin-Spin,Magnetic field MRCI
   Miquel Garcia          : C-PCM and meta-GGA Hessian, CC/C-PCM, Gaussian charge scheme
   Yang Guo               : DLPNO-NEVPT2, F12-NEVPT2, CIM, IAO-localization
   Andreas Hansen         : Spin unrestricted coupled pair/coupled cluster methods
   Benjamin Helmich-Paris : MC-RPA, TRAH-SCF, COSX integrals
   Lee Huntington         : MR-EOM, pCC
   Robert Izsak           : Overlap fitted RIJCOSX, COSX-SCS-MP3, EOM
   Marcus Kettner         : VPT2
   Christian Kollmar      : KDIIS, OOCD, Brueckner-CCSD(T), CCSD density, CASPT2, CASPT2-K
   Simone Kossmann        : Meta GGA functionals, TD-DFT gradient, OOMP2, MP2 Hessian
   Martin Krupicka        : Initial AUTO-CI
   Lucas Lang             : DCDCAS
   Marvin Lechner         : AUTO-CI (C++ implementation), FIC-MRCC
   Dagmar Lenk            : GEPOL surface, SMD
   Dimitrios Liakos       : Extrapolation schemes; Compound Job, initial MDCI parallelization
   Dimitrios Manganas     : Further ROCIS development; embedding schemes
   Dimitrios Pantazis     : SARC Basis sets
   Anastasios Papadopoulos: AUTO-CI, single reference methods and gradients
   Taras Petrenko         : DFT Hessian,TD-DFT gradient, ASA, ECA, R-Raman, ABS, FL, XAS/XES, NRVS
   Peter Pinski           : DLPNO-MP2, DLPNO-MP2 Gradient
   Christoph Reimann      : Effective Core Potentials
   Marius Retegan         : Local ZFS, SOC
   Christoph Riplinger    : Optimizer, TS searches, QM/MM, DLPNO-CCSD(T), (RO)-DLPNO pert. Triples
   Tobias Risthaus        : Range-separated hybrids, TD-DFT gradient, RPA, STAB
   Michael Roemelt        : Original ROCIS implementation
   Masaaki Saitow         : Open-shell DLPNO-CCSD energy and density
   Barbara Sandhoefer     : DKH picture change effects
   Avijit Sen             : IP-ROCIS
   Kantharuban Sivalingam : CASSCF convergence, NEVPT2, FIC-MRCI
   Bernardo de Souza      : ESD, SOC TD-DFT
   Georgi Stoychev        : AutoAux, RI-MP2 NMR, DLPNO-MP2 response
   Willem Van den Heuvel  : Paramagnetic NMR
   Boris Wezisla          : Elementary symmetry handling
   Frank Wennmohs         : Technical directorship


 We gratefully acknowledge several colleagues who have allowed us to
 interface, adapt or use parts of their codes:
   Stefan Grimme, W. Hujo, H. Kruse, P. Pracht,  : VdW corrections, initial TS optimization,
                  C. Bannwarth, S. Ehlert          DFT functionals, gCP, sTDA/sTD-DF
   Ed Valeev, F. Pavosevic, A. Kumar             : LibInt (2-el integral package), F12 methods
   Garnet Chan, S. Sharma, J. Yang, R. Olivares  : DMRG
   Ulf Ekstrom                                   : XCFun DFT Library
   Mihaly Kallay                                 : mrcc  (arbitrary order and MRCC methods)
   Jiri Pittner, Ondrej Demel                    : Mk-CCSD
   Frank Weinhold                                : gennbo (NPA and NBO analysis)
   Christopher J. Cramer and Donald G. Truhlar   : smd solvation model
   Lars Goerigk                                  : TD-DFT with DH, B97 family of functionals
   V. Asgeirsson, H. Jonsson                     : NEB implementation
   FAccTs GmbH                                   : IRC, NEB, NEB-TS, DLPNO-Multilevel, CI-OPT
                                                   MM, QMMM, 2- and 3-layer-ONIOM, Crystal-QMMM,
                                                   LR-CPCM, SF, NACMEs, symmetry and pop. for TD-DFT,
                                                   nearIR, NL-DFT gradient (VV10), updates on ESD,
                                                   ML-optimized integration grids
   S Lehtola, MJT Oliveira, MAL Marques          : LibXC Library
   Liviu Ungur et al                             : ANISO software


 Your calculation uses the libint2 library for the computation of 2-el integrals
 For citations please refer to: http://libint.valeyev.net

 Your ORCA version has been built with support for libXC version: 5.1.0
 For citations please refer to: https://tddft.org/programs/libxc/

 This ORCA versions uses:
   CBLAS   interface :  Fast vector & matrix operations
   LAPACKE interface :  Fast linear algebra routines
   SCALAPACK package :  Parallel linear algebra routines
   Shared memory     :  Shared parallel matrices
   BLAS/LAPACK       :  OpenBLAS 0.3.15  USE64BITINT DYNAMIC_ARCH NO_AFFINITY Sandybridge SINGLE_THREADED
        Core in use  :  Sandybridge
   Copyright (c) 2011-2014, The OpenBLAS Project


================================================================================

----- Orbital basis set information -----
Your calculation utilizes the basis: cc-pVDZ 
       H, B-Ne : Obtained from the ccRepo (grant-hill.group.shef.ac.uk/ccrepo) Feb. 2017
                 T. H. Dunning, Jr., J. Chem. Phys. 90, 1007 (1989)
            He : Obtained from the ccRepo (grant-hill.group.shef.ac.uk/ccrepo) Feb. 2017
                 D. E. Woon, T. H. Dunning, Jr., J. Chem. Phys. 100, 2975 (1994)
  Li-Be, Na-Mg : Obtained from the ccRepo (grant-hill.group.shef.ac.uk/ccrepo) Feb. 2017
                 B. P. Prascher, D. E. Woon, K. A. Peterson, T. H. Dunning, Jr., A. K. Wilson, Theor. Chem. Acc. 128, 69 (2011)
         Al-Ar : Obtained from the ccRepo (grant-hill.group.shef.ac.uk/ccrepo) Feb. 2017
                 D. E. Woon, T. H. Dunning, Jr., J. Chem. Phys. 98, 1358 (1993)
            Ca : Obtained from the Peterson Research Group Website (tyr0.chem.wsu.edu/~kipeters) Feb. 2017
                 J. Koput, K. A. Peterson, J. Phys. Chem. 106, 9595 (2002)
         Sc-Zn : Obtained from the ccRepo (grant-hill.group.shef.ac.uk/ccrepo) Feb. 2017
                 N. B. Balabanov, K. A. Peterson, J. Chem. Phys. 123, 064107 (2005)
                 N. B. Balabanov, K. A. Peterson, J. Chem. Phys. 125, 074110 (2006)
         Ga-Kr : Obtained from the ccRepo (grant-hill.group.shef.ac.uk/ccrepo) Feb. 2017
                 A. K. Wilson, D. E. Woon, K. A. Peterson, T. H. Dunning, Jr., J. Chem. Phys. 110, 7667 (1999)

================================================================================
                                        WARNINGS
                       Please study these warnings very carefully!
================================================================================


WARNING: No MP2 level density has been requested!
         To caclulate MP2 level properties use
         %mp2 Density relaxed end
         or
         %mp2 Density unrelaxed end

WARNING: Post HF methods need fully converged wavefunctions
  ===> : Setting SCFConvForced true
         You can overwrite this default with %scf ConvForced false 


INFO   : the flag for use of the SHARK integral package has been found!

================================================================================
                                       INPUT FILE
================================================================================
NAME = /scratch/allen/tmpyp4_amber_gaff2/2.Mdgx/conf11/conf11/Conf179.orca
|  1> ! PAL2
|  2> ! mp2 cc-pvdz TightSCF  NoKeepInts
|  3> 
|  4> %scf
|  5>   MaxCore 2000
|  6> end
|  7> %mp2
|  8>   MaxCore 2000
|  9> end
| 10> * xyz 0 1
| 11>    C       -4.95400         5.18400         0.00200
| 12>    C        1.47400         4.04100         0.05700
| 13>    C       -2.80200         4.09300         0.04900
| 14>    C       -2.21600         5.36600         0.12900
| 15>    C       -3.00900         6.49500         0.14600
| 16>    C       -5.18200         7.62300         0.13800
| 17>    C        0.13200         4.30700         0.06100
| 18>    C       -0.56900         3.05600         0.04700
| 19>    C        1.64900         2.61800         0.02300
| 20>    C       -4.20200         4.02500        -0.01200
| 21>    N       -4.35800         6.39500         0.08000
| 22>    N        0.38800         2.06700         0.02500
| 23>    N       -2.01000         0.39500        -0.07500
| 24>    N       -0.38800        -2.07400        -0.02700
| 25>    N        2.01000        -0.40100         0.06500
| 26>    C       -1.96000         2.86100         0.02400
| 27>    C       -2.62300         1.61500        -0.01800
| 28>    C       -5.57300        -4.32900         1.06600
| 29>    C       -4.07300         1.47100         0.05600
| 30>    C       -4.10600        -2.75600        -0.02600
| 31>    C       -4.99500        -2.75700        -1.11100
| 32>    C       -6.13200        -3.54200        -1.07600
| 33>    C       -7.65100        -5.11300         0.04000
| 34>    C       -4.32400         0.14100         0.03700
| 35>    C       -3.02500        -0.52000        -0.04800
| 36>    C       -4.42200        -3.56600         1.07500
| 37>    N       -6.40700        -4.31300         0.00100
| 38>    C       -2.86700        -1.92200        -0.04000
| 39>    C       -1.65000        -2.62400        -0.02700
| 40>    C        3.56800        -6.14200        -1.04000
| 41>    C       -1.47600        -4.04900        -0.03400
| 42>    C        2.80300        -4.09900        -0.00800
| 43>    C        3.65700        -4.38400         1.06900
| 44>    C        4.42700        -5.53000         1.05900
| 45>    C        5.24500        -7.58800         0.01400
| 46>    C       -0.13400        -4.31500        -0.02200
| 47>    C        0.56800        -3.06400        -0.02700
| 48>    C        2.77500        -5.01200        -1.07400
| 49>    N        4.37600        -6.39100         0.01700
| 50>    C        1.95900        -2.86900        -0.00900
| 51>    C        2.62100        -1.62200         0.00900
| 52>    C        5.54300         4.33900        -1.13000
| 53>    C        4.07000        -1.47900        -0.09400
| 54>    C        4.10400         2.75100        -0.02100
| 55>    C        5.02700         2.72900         1.03600
| 56>    C        6.16600         3.50900         0.97800
| 57>    C        7.61900         5.15300        -0.11500
| 58>    C        4.32100        -0.14800        -0.09200
| 59>    C        3.02500         0.51400         0.01500
| 60>    C        4.38700         3.58200        -1.11500
| 61>    C        2.86600         1.91600         0.01300
| 62>    N        6.41300         4.29600        -0.09500
| 63>    H       -6.03600         5.18000        -0.05500
| 64>    H        2.27400         4.76600         0.08100
| 65>    H       -1.14000         5.48300         0.18800
| 66>    H       -2.60400         7.49600         0.21600
| 67>    H       -5.35700         7.88400         1.18400
| 68>    H       -4.64800         8.42900        -0.36500
| 69>    H       -6.13000         7.43300        -0.36400
| 70>    H       -0.33200         5.28200         0.06900
| 71>    H       -4.71400         3.07300        -0.08900
| 72>    H        0.18200         1.07200         0.00500
| 73>    H       -0.18300        -1.08000        -0.02100
| 74>    H       -5.86400        -4.96200         1.89500
| 75>    H       -4.79400         2.27200         0.13900
| 76>    H       -4.80000        -2.16000        -1.99400
| 77>    H       -6.84100        -3.58200        -1.89300
| 78>    H       -8.42800        -4.53600         0.54600
| 79>    H       -7.95600        -5.33700        -0.98100
| 80>    H       -7.45600        -6.03700         0.58400
| 81>    H       -5.28700        -0.34400         0.10000
| 82>    H       -3.78000        -3.60100         1.94700
| 83>    H        3.58700        -6.86800        -1.84300
| 84>    H       -2.27600        -4.77400        -0.05000
| 85>    H        3.71400        -3.72400         1.92600
| 86>    H        5.09200        -5.79500         1.87100
| 87>    H        6.20500        -7.32900        -0.43900
| 88>    H        5.39300        -7.91700         1.04200
| 89>    H        4.75900        -8.37300        -0.56400
| 90>    H        0.32900        -5.29000        -0.00800
| 91>    H        2.14600        -4.84200        -1.94000
| 92>    H        5.80800         4.98600        -1.95600
| 93>    H        4.78800        -2.28100        -0.18500
| 94>    H        4.86000         2.11400         1.91200
| 95>    H        6.90100         3.53100         1.77200
| 96>    H        7.38300         6.10900         0.35600
| 97>    H        8.41400         4.65200         0.43500
| 98>    H        7.92100         5.31000        -1.15000
| 99>    H        5.28300         0.33600        -0.17900
|100>    H        3.72000         3.63200        -1.96700
|101> *
|102> 
|103>                          ****END OF INPUT****
================================================================================

                       ****************************
                       * Single Point Calculation *
                       ****************************

---------------------------------
CARTESIAN COORDINATES (ANGSTROEM)
---------------------------------
  C     -4.954000    5.184000    0.002000
  C      1.474000    4.041000    0.057000
  C     -2.802000    4.093000    0.049000
  C     -2.216000    5.366000    0.129000
  C     -3.009000    6.495000    0.146000
  C     -5.182000    7.623000    0.138000
  C      0.132000    4.307000    0.061000
  C     -0.569000    3.056000    0.047000
  C      1.649000    2.618000    0.023000
  C     -4.202000    4.025000   -0.012000
  N     -4.358000    6.395000    0.080000
  N      0.388000    2.067000    0.025000
  N     -2.010000    0.395000   -0.075000
  N     -0.388000   -2.074000   -0.027000
  N      2.010000   -0.401000    0.065000
  C     -1.960000    2.861000    0.024000
  C     -2.623000    1.615000   -0.018000
  C     -5.573000   -4.329000    1.066000
  C     -4.073000    1.471000    0.056000
  C     -4.106000   -2.756000   -0.026000
  C     -4.995000   -2.757000   -1.111000
  C     -6.132000   -3.542000   -1.076000
  C     -7.651000   -5.113000    0.040000
  C     -4.324000    0.141000    0.037000
  C     -3.025000   -0.520000   -0.048000
  C     -4.422000   -3.566000    1.075000
  N     -6.407000   -4.313000    0.001000
  C     -2.867000   -1.922000   -0.040000
  C     -1.650000   -2.624000   -0.027000
  C      3.568000   -6.142000   -1.040000
  C     -1.476000   -4.049000   -0.034000
  C      2.803000   -4.099000   -0.008000
  C      3.657000   -4.384000    1.069000
  C      4.427000   -5.530000    1.059000
  C      5.245000   -7.588000    0.014000
  C     -0.134000   -4.315000   -0.022000
  C      0.568000   -3.064000   -0.027000
  C      2.775000   -5.012000   -1.074000
  N      4.376000   -6.391000    0.017000
  C      1.959000   -2.869000   -0.009000
  C      2.621000   -1.622000    0.009000
  C      5.543000    4.339000   -1.130000
  C      4.070000   -1.479000   -0.094000
  C      4.104000    2.751000   -0.021000
  C      5.027000    2.729000    1.036000
  C      6.166000    3.509000    0.978000
  C      7.619000    5.153000   -0.115000
  C      4.321000   -0.148000   -0.092000
  C      3.025000    0.514000    0.015000
  C      4.387000    3.582000   -1.115000
  C      2.866000    1.916000    0.013000
  N      6.413000    4.296000   -0.095000
  H     -6.036000    5.180000   -0.055000
  H      2.274000    4.766000    0.081000
  H     -1.140000    5.483000    0.188000
  H     -2.604000    7.496000    0.216000
  H     -5.357000    7.884000    1.184000
  H     -4.648000    8.429000   -0.365000
  H     -6.130000    7.433000   -0.364000
  H     -0.332000    5.282000    0.069000
  H     -4.714000    3.073000   -0.089000
  H      0.182000    1.072000    0.005000
  H     -0.183000   -1.080000   -0.021000
  H     -5.864000   -4.962000    1.895000
  H     -4.794000    2.272000    0.139000
  H     -4.800000   -2.160000   -1.994000
  H     -6.841000   -3.582000   -1.893000
  H     -8.428000   -4.536000    0.546000
  H     -7.956000   -5.337000   -0.981000
  H     -7.456000   -6.037000    0.584000
  H     -5.287000   -0.344000    0.100000
  H     -3.780000   -3.601000    1.947000
  H      3.587000   -6.868000   -1.843000
  H     -2.276000   -4.774000   -0.050000
  H      3.714000   -3.724000    1.926000
  H      5.092000   -5.795000    1.871000
  H      6.205000   -7.329000   -0.439000
  H      5.393000   -7.917000    1.042000
  H      4.759000   -8.373000   -0.564000
  H      0.329000   -5.290000   -0.008000
  H      2.146000   -4.842000   -1.940000
  H      5.808000    4.986000   -1.956000
  H      4.788000   -2.281000   -0.185000
  H      4.860000    2.114000    1.912000
  H      6.901000    3.531000    1.772000
  H      7.383000    6.109000    0.356000
  H      8.414000    4.652000    0.435000
  H      7.921000    5.310000   -1.150000
  H      5.283000    0.336000   -0.179000
  H      3.720000    3.632000   -1.967000

----------------------------
CARTESIAN COORDINATES (A.U.)
----------------------------
  NO LB      ZA    FRAG     MASS         X           Y           Z
   0 C     6.0000    0    12.011   -9.361703    9.796340    0.003779
   1 C     6.0000    0    12.011    2.785456    7.636383    0.107714
   2 C     6.0000    0    12.011   -5.295013    7.734649    0.092597
   3 C     6.0000    0    12.011   -4.187633   10.140270    0.243775
   4 C     6.0000    0    12.011   -5.686186   12.273771    0.275900
   5 C     6.0000    0    12.011   -9.792561   14.405382    0.260782
   6 C     6.0000    0    12.011    0.249444    8.139050    0.115273
   7 C     6.0000    0    12.011   -1.075254    5.775003    0.088817
   8 C     6.0000    0    12.011    3.116158    4.947303    0.043464
   9 C     6.0000    0    12.011   -7.940629    7.606148   -0.022677
  10 N     7.0000    0    14.007   -8.235426   12.084799    0.151178
  11 N     7.0000    0    14.007    0.733214    3.906064    0.047243
  12 N     7.0000    0    14.007   -3.798350    0.746442   -0.141729
  13 N     7.0000    0    14.007   -0.733214   -3.919292   -0.051023
  14 N     7.0000    0    14.007    3.798350   -0.757780    0.122832
  15 C     6.0000    0    12.011   -3.703863    5.406506    0.045353
  16 C     6.0000    0    12.011   -4.956752    3.051908   -0.034015
  17 C     6.0000    0    12.011  -10.531444   -8.180624    2.014448
  18 C     6.0000    0    12.011   -7.696855    2.779787    0.105825
  19 C     6.0000    0    12.011   -7.759216   -5.208085   -0.049133
  20 C     6.0000    0    12.011   -9.439182   -5.209975   -2.099486
  21 C     6.0000    0    12.011  -11.587801   -6.693410   -2.033345
  22 C     6.0000    0    12.011  -14.458295   -9.662170    0.075589
  23 C     6.0000    0    12.011   -8.171176    0.266451    0.069920
  24 C     6.0000    0    12.011   -5.716422   -0.982658   -0.090707
  25 C     6.0000    0    12.011   -8.356369   -6.738763    2.031456
  26 N     7.0000    0    14.007  -12.107475   -8.150389    0.001890
  27 C     6.0000    0    12.011   -5.417845   -3.632054   -0.075589
  28 C     6.0000    0    12.011   -3.118048   -4.958641   -0.051023
  29 C     6.0000    0    12.011    6.742543  -11.606698   -1.965315
  30 C     6.0000    0    12.011   -2.789236   -7.651501   -0.064251
  31 C     6.0000    0    12.011    5.296902   -7.745987   -0.015118
  32 C     6.0000    0    12.011    6.910728   -8.284559    2.020117
  33 C     6.0000    0    12.011    8.365818  -10.450186    2.001220
  34 C     6.0000    0    12.011    9.911614  -14.339242    0.026456
  35 C     6.0000    0    12.011   -0.253223   -8.154168   -0.041574
  36 C     6.0000    0    12.011    1.073364   -5.790121   -0.051023
  37 C     6.0000    0    12.011    5.243990   -9.471307   -2.029566
  38 N     7.0000    0    14.007    8.269442  -12.077240    0.032125
  39 C     6.0000    0    12.011    3.701973   -5.421624   -0.017008
  40 C     6.0000    0    12.011    4.952972   -3.065136    0.017008
  41 C     6.0000    0    12.011   10.474752    8.199522   -2.135391
  42 C     6.0000    0    12.011    7.691185   -2.794905   -0.177634
  43 C     6.0000    0    12.011    7.755436    5.198637   -0.039684
  44 C     6.0000    0    12.011    9.499653    5.157063    1.957756
  45 C     6.0000    0    12.011   11.652051    6.631049    1.848152
  46 C     6.0000    0    12.011   14.397823    9.737759   -0.217319
  47 C     6.0000    0    12.011    8.165507   -0.279679   -0.173855
  48 C     6.0000    0    12.011    5.716422    0.971319    0.028346
  49 C     6.0000    0    12.011    8.290229    6.768999   -2.107045
  50 C     6.0000    0    12.011    5.415955    3.620715    0.024566
  51 N     7.0000    0    14.007   12.118814    8.118263   -0.179524
  52 H     1.0000    0     1.008  -11.406387    9.788781   -0.103935
  53 H     1.0000    0     1.008    4.297237    9.006435    0.153068
  54 H     1.0000    0     1.008   -2.154288   10.361368    0.355269
  55 H     1.0000    0     1.008   -4.920847   14.165387    0.408181
  56 H     1.0000    0     1.008  -10.123263   14.898601    2.237436
  57 H     1.0000    0     1.008   -8.783447   15.928502   -0.689750
  58 H     1.0000    0     1.008  -11.584021   14.046334   -0.687860
  59 H     1.0000    0     1.008   -0.627389    9.981533    0.130391
  60 H     1.0000    0     1.008   -8.908169    5.807128   -0.168186
  61 H     1.0000    0     1.008    0.343930    2.025786    0.009449
  62 H     1.0000    0     1.008   -0.345820   -2.040904   -0.039684
  63 H     1.0000    0     1.008  -11.081354   -9.376821    3.581031
  64 H     1.0000    0     1.008   -9.059347    4.293458    0.262672
  65 H     1.0000    0     1.008   -9.070685   -4.081808   -3.768114
  66 H     1.0000    0     1.008  -12.927616   -6.768999   -3.577252
  67 H     1.0000    0     1.008  -15.926612   -8.571798    1.031790
  68 H     1.0000    0     1.008  -15.034661  -10.085468   -1.853821
  69 H     1.0000    0     1.008  -14.089798  -11.408277    1.103600
  70 H     1.0000    0     1.008   -9.990982   -0.650066    0.188973
  71 H     1.0000    0     1.008   -7.143165   -6.804904    3.679297
  72 H     1.0000    0     1.008    6.778448  -12.978639   -3.482765
  73 H     1.0000    0     1.008   -4.301017   -9.021553   -0.094486
  74 H     1.0000    0     1.008    7.018443   -7.037340    3.639613
  75 H     1.0000    0     1.008    9.622485  -10.950963    3.535678
  76 H     1.0000    0     1.008   11.725751  -13.849803   -0.829590
  77 H     1.0000    0     1.008   10.191293  -14.960962    1.969095
  78 H     1.0000    0     1.008    8.993207  -15.822677   -1.065806
  79 H     1.0000    0     1.008    0.621720   -9.996651   -0.015118
  80 H     1.0000    0     1.008    4.055352   -9.150054   -3.666069
  81 H     1.0000    0     1.008   10.975529    9.422175   -3.696304
  82 H     1.0000    0     1.008    9.048009   -4.310465   -0.349599
  83 H     1.0000    0     1.008    9.184069    3.994881    3.613156
  84 H     1.0000    0     1.008   13.041000    6.672623    3.348595
  85 H     1.0000    0     1.008   13.951848   11.544337    0.672743
  86 H     1.0000    0     1.008   15.900156    8.791006    0.822031
  87 H     1.0000    0     1.008   14.968521   10.034446   -2.173185
  88 H     1.0000    0     1.008    9.983423    0.634948   -0.338261
  89 H     1.0000    0     1.008    7.029781    6.863485   -3.717091

--------------------------------
INTERNAL COORDINATES (ANGSTROEM)
--------------------------------
 C      0   0   0     0.000000000000     0.00000000     0.00000000
 C      1   0   0     6.529062566709     0.00000000     0.00000000
 C      1   2   0     2.413212381868    16.81114366     0.00000000
 C      3   1   2     1.403682656443    87.90195199     5.33642265
 C      4   3   1     1.379774981655   120.18791668     0.15362979
 C      5   4   3     2.448341683671   152.50367153     1.60712462
 C      2   1   3     1.368114030335     1.30253067   212.20356246
 C      7   2   4     1.434084376876   108.05010202   185.30498895
 C      2   1   3     1.434123425651   107.07617189     3.83102157
 C      1   2   7     1.381658785663    46.95170408   208.69663200
 N      1   2   7     1.351969304385    73.87754901    26.63869881
 N      9   2   1     1.376127174356   106.58526707   358.58592703
 N     12   9   2     2.925062050624   168.53581413   171.12065651
 N     13  12   9     2.954513327098    91.55032014    11.12112580
 N     14  13  12     2.925371258490    88.43092389   359.84326247
 C      8   7   2     1.404790019896   127.24786865   181.11170171
 C     13  12   9     1.366535034311    81.72106996   188.00453233
 C     14  13  12     5.758810554272    80.56209567   166.76250791
 C     17  13  12     1.459010623676   111.08861209   183.82872609
 C     18  14  13     2.412235892279    27.27532823    36.33507194
 C     20  18  14     1.402692767501    87.95206320   148.94598259
 C     21  20  18     1.382106725257   120.14573887   359.70382047
 C     18  14  13     2.446510985056   144.15733107    82.80075377
 C     19  17  13     1.353610726908   106.29293361   359.75308708
 C     13  12   9     1.366813447402   172.21332906    33.46711076
 C     18  14  13     1.380960173213    15.08449437   309.23336894
 N     22  21  20     1.352773077792   120.73759875     0.27865223
 C     25  13  17     1.410897586645   125.60330303   182.37774668
 C     14  13  12     1.376642291955    80.24689249   177.85461986
 C     14  13  12     5.764089607215   164.51507311   312.20821879
 C     29  14  13     1.435600919476   106.58649366   178.76395472
 C     30  14  13     2.413316804732    27.10625047    82.12560436
 C     32  30  14     1.403734305344    87.90059683   149.76154742
 C     33  32  30     1.380694028378   120.14881443   359.74174632
 C     34  33  32     2.448777858443   152.49203239     2.45173620
 C     31  29  14     1.368160809262   108.16950133     0.70383075
 C     14  13  12     1.376239804685   169.26375223   353.09862627
 C     30  14  13     1.380907310430    14.68948582   353.70041132
 N     34  33  32     1.352658863128   120.85575621     0.19603406
 C     37  14  29     1.404717053360   126.01551127   180.90772073
 C     15  14  13     1.366491126938    81.61824056   183.09049352
 C      2   1   3     4.249062720177   158.15117499   131.75721046
 C     41  15  14     1.459677704153   111.05201287   175.08990246
 C     42   2   1     2.412953791518    41.78584867   205.39211361
 C     44  42   2     1.403446472082    87.95153797   233.97558675
 C     45  44  42     1.381696421071   120.11137308     0.19721020
 C     42   2   1     2.450019795838   135.97209175   115.70696271
 C     43  41  15     1.354461516618   106.26758155     0.30894352
 C     15  14  13     1.367461151185   171.87382904   332.35056460
 C     42   2   1     1.381886391857    32.59078432   254.24739280
 C      9   2   1     1.404988612053   126.98745415   179.59026456
 N     42   2   1     1.352765315936   113.57249190   143.44355190
 H      1   2   7     1.083507729552   169.40394249   195.99254928
 H      2   1   3     1.079907866440   127.73388650   183.49822533
 H      4   3   1     1.083949260805   121.02442340   179.56014931
 H      5   4   3     1.082093341630   122.86206945   179.40937661
 H      6   5   4     1.092182219229   104.42896969   100.09778488
 H      6   5   4     1.089862835406    84.68463871   209.52330315
 H      6   5   4     1.089407178240   133.90686351   322.36189492
 H     55   4   3     0.841086202479   156.94385778    27.39418975
 H     10   1   2     1.083686762861   118.71703296   183.12538457
 H     12   9   2     1.016297692608   125.29023241   180.00180175
 H     14  13  12     1.014936943854    44.97226959   359.42596618
 H     18  14  13     1.082871645210   128.03556573   234.20482432
 H     61  10   1     0.836651062271   150.09603670   220.63835831
 H     21  20  18     1.083569563987   121.05669627   180.67006309
 H     22  21  20     1.082483256222   122.73097286   180.59748951
 H     23  18  14     1.092105306278   103.92715769   234.93429879
 H     23  18  14     1.088871893291   134.19244188    12.25587044
 H     23  18  14     1.089833473518    84.85857450   125.45241208
 H     24  19  17     1.080075460327   127.28078426   178.44613241
 H     26  18  14     1.083408048706   118.76995697   244.94906660
 H     30  14  13     1.082703098730   127.99711412   279.66882698
 H     31  29  14     1.079759695488   125.22293469   180.92530585
 H     33  32  30     1.083188810873   121.01964473   180.74284758
 H     34  33  32     1.082494341787   122.70821597   180.59516895
 H     35  34  33     1.092652735319   105.73575241    97.19771933
 H     35  34  33     1.089462711615    84.05943581   206.43036958
 H     35  34  33     1.089268102902   133.08365142   318.50306270
 H     36  31  29     1.079439669458   126.61599965   178.98859863
 H     38  30  73     1.083742127999   118.77264435   359.90091293
 H     42   2   1     1.082178358682   119.31790784     0.07508236
 H     43  41  15     1.080281907652   126.36969097   182.06329380
 H     45  44  42     1.083277434455   121.10105945   179.58025624
 H     46  45  44     1.082194529648   122.72144639   179.46906377
 H     47  42   2     1.091546151109   106.65128841   315.16475048
 H     47  42   2     1.088818625851   132.46019523    94.52397119
 H     47  42   2     1.089531091801    83.63838232   206.04504406
 H     48  43  41     1.080402239909   127.23657387   181.62955349
 H     50  42   2     1.083186502870   118.77001737    94.71359229

---------------------------
INTERNAL COORDINATES (A.U.)
---------------------------
 C      0   0   0     0.000000000000     0.00000000     0.00000000
 C      1   0   0    12.338140162317     0.00000000     0.00000000
 C      1   2   0     4.560310504718    16.81114366     0.00000000
 C      3   1   2     2.652575799613    87.90195199     5.33642265
 C      4   3   1     2.607396841763   120.18791668     0.15362979
 C      5   4   3     4.626695264401   152.50367153     1.60712462
 C      2   1   3     2.585360837309     1.30253067   212.20356246
 C      7   2   4     2.710026725231   108.05010202   185.30498895
 C      2   1   3     2.710100516721   107.07617189     3.83102157
 C      1   2   7     2.610956715429    46.95170408   208.69663200
 N      1   2   7     2.554851726756    73.87754901    26.63869881
 N      9   2   1     2.600503484979   106.58526707   358.58592703
 N     12   9   2     5.527566200405   168.53581413   171.12065651
 N     13  12   9     5.583221047236    91.55032014    11.12112580
 N     14  13  12     5.528150518591    88.43092389   359.84326247
 C      8   7   2     2.654668413270   127.24786865   181.11170171
 C     13  12   9     2.582376967257    81.72106996   188.00453233
 C     14  13  12    10.882574804710    80.56209567   166.76250791
 C     17  13  12     2.757130505230   111.08861209   183.82872609
 C     18  14  13     4.558465206823    27.27532823    36.33507194
 C     20  18  14     2.650705180609    87.95206320   148.94598259
 C     21  20  18     2.611803198586   120.14573887   359.70382047
 C     18  14  13     4.623235745386   144.15733107    82.80075377
 C     19  17  13     2.557953565794   106.29293361   359.75308708
 C     13  12   9     2.582903091751   172.21332906    33.46711076
 C     18  14  13     2.609636529225    15.08449437   309.23336894
 N     22  21  20     2.556370638369   120.73759875     0.27865223
 C     25  13  17     2.666210041769   125.60330303   182.37774668
 C     14  13  12     2.601476916169    80.24689249   177.85461986
 C     14  13  12    10.892550769017   164.51507311   312.20821879
 C     29  14  13     2.712892575415   106.58649366   178.76395472
 C     30  14  13     4.560507835333    27.10625047    82.12560436
 C     32  30  14     2.652673401891    87.90059683   149.76154742
 C     33  32  30     2.609133588376   120.14881443   359.74174632
 C     34  33  32     4.627519515267   152.49203239     2.45173620
 C     31  29  14     2.585449236669   108.16950133     0.70383075
 C     14  13  12     2.600716325456   169.26375223   353.09862627
 C     30  14  13     2.609536633043    14.68948582   353.70041132
 N     34  33  32     2.556154803934   120.85575621     0.19603406
 C     37  14  29     2.654530526499   126.01551127   180.90772073
 C     15  14  13     2.582293994346    81.61824056   183.09049352
 C      2   1   3     8.029564866989   158.15117499   131.75721046
 C     41  15  14     2.758391104639   111.05201287   175.08990246
 C     42   2   1     4.559821839776    41.78584867   205.39211361
 C     44  42   2     2.652129475853    87.95153797   233.97558675
 C     45  44  42     2.611027836043   120.11137308     0.19721020
 C     42   2   1     4.629866436820   135.97209175   115.70696271
 C     43  41  15     2.559561325344   106.26758155     0.30894352
 C     15  14  13     2.584127074516   171.87382904   332.35056460
 C     42   2   1     2.611386828803    32.59078432   254.24739280
 C      9   2   1     2.655043698059   126.98745415   179.59026456
 N     42   2   1     2.556355970587   113.57249190   143.44355190
 H      1   2   7     2.047532872841   169.40394249   195.99254928
 H      2   1   3     2.040730117440   127.73388650   183.49822533
 H      4   3   1     2.048367245988   121.02442340   179.56014931
 H      5   4   3     2.044860067020   122.86206945   179.40937661
 H      6   5   4     2.063925282681   104.42896969   100.09778488
 H      6   5   4     2.059542282457    84.68463871   209.52330315
 H      6   5   4     2.058681215201   133.90686351   322.36189492
 H     55   4   3     1.589422577705   156.94385778    27.39418975
 H     10   1   2     2.047871196763   118.71703296   183.12538457
 H     12   9   2     1.920524309565   125.29023241   180.00180175
 H     14  13  12     1.917952867083    44.97226959   359.42596618
 H     18  14  13     2.046330847636   128.03556573   234.20482432
 H     61  10   1     1.581041377347   150.09603670   220.63835831
 H     21  20  18     2.047649722989   121.05669627   180.67006309
 H     22  21  20     2.045596898814   122.73097286   180.59748951
 H     23  18  14     2.063779938267   103.92715769   234.93429879
 H     23  18  14     2.057669673245   134.19244188    12.25587044
 H     23  18  14     2.059486796529    84.85857450   125.45241208
 H     24  19  17     2.041046823986   127.28078426   178.44613241
 H     26  18  14     2.047344503340   118.76995697   244.94906660
 H     30  14  13     2.046012340948   127.99711412   279.66882698
 H     31  29  14     2.040450114918   125.22293469   180.92530585
 H     33  32  30     2.046930203877   121.01964473   180.74284758
 H     34  33  32     2.045617847496   122.70821597   180.59516895
 H     35  34  33     2.064814429233   105.73575241    97.19771933
 H     35  34  33     2.058786158072    84.05943581   206.43036958
 H     35  34  33     2.058418400901   133.08365142   318.50306270
 H     36  31  29     2.039845353366   126.61599965   178.98859863
 H     38  30  73     2.047975821711   118.77264435   359.90091293
 H     42   2   1     2.045020725966   119.31790784     0.07508236
 H     43  41  15     2.041436952892   126.36969097   182.06329380
 H     45  44  42     2.047097678177   121.10105945   179.58025624
 H     46  45  44     2.045051284662   122.72144639   179.46906377
 H     47  42   2     2.062723288131   106.65128841   315.16475048
 H     47  42   2     2.057569012371   132.46019523    94.52397119
 H     47  42   2     2.058915377895    83.63838232   206.04504406
 H     48  43  41     2.041664347903   127.23657387   181.62955349
 H     50  42   2     2.046925842384   118.77001737    94.71359229

---------------------
BASIS SET INFORMATION
---------------------
There are 3 groups of distinct atoms

 Group   1 Type C   : 17s4p1d contracted to 3s2p1d pattern {881/31/1}
 Group   2 Type N   : 17s4p1d contracted to 3s2p1d pattern {881/31/1}
 Group   3 Type H   : 4s1p contracted to 2s1p pattern {31/1}

Atom   0C    basis set group =>   1
Atom   1N    basis set group =>   2
Atom   2C    basis set group =>   1
Atom   3N    basis set group =>   2
Atom   4C    basis set group =>   1
Atom   5N    basis set group =>   2
Atom   6C    basis set group =>   1
Atom   7N    basis set group =>   2
Atom   8C    basis set group =>   1
Atom   9N    basis set group =>   2
Atom  10C    basis set group =>   1
Atom  11N    basis set group =>   2
Atom  12C    basis set group =>   1
Atom  13N    basis set group =>   2
Atom  14C    basis set group =>   1
Atom  15N    basis set group =>   2
Atom  16C    basis set group =>   1
Atom  17C    basis set group =>   1
Atom  18C    basis set group =>   1
Atom  19C    basis set group =>   1
Atom  20C    basis set group =>   1
Atom  21C    basis set group =>   1
Atom  22C    basis set group =>   1
Atom  23C    basis set group =>   1
Atom  24C    basis set group =>   1
Atom  25C    basis set group =>   1
Atom  26C    basis set group =>   1
Atom  27C    basis set group =>   1
Atom  28C    basis set group =>   1
Atom  29C    basis set group =>   1
Atom  30C    basis set group =>   1
Atom  31C    basis set group =>   1
Atom  32C    basis set group =>   1
Atom  33C    basis set group =>   1
Atom  34C    basis set group =>   1
Atom  35C    basis set group =>   1
Atom  36C    basis set group =>   1
Atom  37C    basis set group =>   1
Atom  38C    basis set group =>   1
Atom  39C    basis set group =>   1
Atom  40C    basis set group =>   1
Atom  41C    basis set group =>   1
Atom  42C    basis set group =>   1
Atom  43C    basis set group =>   1
Atom  44C    basis set group =>   1
Atom  45C    basis set group =>   1
Atom  46C    basis set group =>   1
Atom  47C    basis set group =>   1
Atom  48C    basis set group =>   1
Atom  49C    basis set group =>   1
Atom  50C    basis set group =>   1
Atom  51C    basis set group =>   1
Atom  52H    basis set group =>   3
Atom  53H    basis set group =>   3
Atom  54H    basis set group =>   3
Atom  55H    basis set group =>   3
Atom  56H    basis set group =>   3
Atom  57H    basis set group =>   3
Atom  58H    basis set group =>   3
Atom  59H    basis set group =>   3
Atom  60H    basis set group =>   3
Atom  61H    basis set group =>   3
Atom  62H    basis set group =>   3
Atom  63H    basis set group =>   3
Atom  64H    basis set group =>   3
Atom  65H    basis set group =>   3
Atom  66H    basis set group =>   3
Atom  67H    basis set group =>   3
Atom  68H    basis set group =>   3
Atom  69H    basis set group =>   3
Atom  70H    basis set group =>   3
Atom  71H    basis set group =>   3
Atom  72H    basis set group =>   3
Atom  73H    basis set group =>   3
Atom  74H    basis set group =>   3
Atom  75H    basis set group =>   3
Atom  76H    basis set group =>   3
Atom  77H    basis set group =>   3
Atom  78H    basis set group =>   3
Atom  79H    basis set group =>   3
Atom  80H    basis set group =>   3
Atom  81H    basis set group =>   3
Atom  82H    basis set group =>   3
Atom  83H    basis set group =>   3
Atom  84H    basis set group =>   3
Atom  85H    basis set group =>   3
Atom  86H    basis set group =>   3
Atom  87H    basis set group =>   3
Atom  88H    basis set group =>   3
Atom  89H    basis set group =>   3


           ************************************************************
           *        Program running with 16 parallel MPI-processes    *
           *              working on a common directory               *
           ************************************************************
------------------------------------------------------------------------------
                           ORCA GTO INTEGRAL CALCULATION
------------------------------------------------------------------------------
------------------------------------------------------------------------------
                   ___                                                        
                  /   \      - P O W E R E D   B Y -                         
                 /     \                                                     
                 |  |  |   _    _      __       _____    __    __             
                 |  |  |  | |  | |    /  \     |  _  \  |  |  /  |          
                  \  \/   | |  | |   /    \    | | | |  |  | /  /          
                 / \  \   | |__| |  /  /\  \   | |_| |  |  |/  /          
                |  |  |   |  __  | /  /__\  \  |    /   |      \           
                |  |  |   | |  | | |   __   |  |    \   |  |\   \          
                \     /   | |  | | |  |  |  |  | |\  \  |  | \   \       
                 \___/    |_|  |_| |__|  |__|  |_| \__\ |__|  \__/        
                                                                              
                      - O R C A' S   B I G   F R I E N D -                    
                                      &                                       
                       - I N T E G R A L  F E E D E R -                       
                                                                              
 v1 FN, 2020, v2 2021                                                         
------------------------------------------------------------------------------


Reading SHARK input file /scratch/allen/tmpyp4_amber_gaff2/conf1/conf1/Conf179.orca.SHARKINP.tmp ... ok
----------------------
SHARK INTEGRAL PACKAGE
----------------------

Number of atoms                             ...     90
Number of basis functions                   ...   1230
Number of shells                            ...    738
Maximum angular momentum                    ...      2
Integral batch strategy                     ... SHARK/LIBINT Hybrid
RI-J (if used) integral strategy            ... SPLIT-RIJ (Revised 2003 algorithm where possible)
Printlevel                                  ...      1
Contraction scheme used                     ... PARTIAL GENERAL contraction
Coulomb Range Separation                    ... NOT USED
Exchange Range Separation                   ... NOT USED
Finite Nucleus Model                        ... NOT USED
Auxiliary Coulomb fitting basis             ... NOT available
Auxiliary J/K fitting basis                 ... NOT available
Auxiliary Correlation fitting basis         ... NOT available
Auxiliary 'external' fitting basis          ... NOT available
Integral threshold                          ...     2.500000e-11
Primitive cut-off                           ...     2.500000e-12
Primitive pair pre-selection threshold      ...     2.500000e-12

Calculating pre-screening integrals         ... done (  0.1 sec) Dimension = 738
Calculating pre-screening integrals (ORCA)  ... done (  0.3 sec) Dimension = 426
Organizing shell pair data                  ... done (  0.7 sec)
Shell pair information
Total number of shell pairs                 ...    272691
Shell pairs after pre-screening             ...     71724
Total number of primitive shell pairs       ...    422091
Primitive shell pairs kept                  ...     92635
          la=0 lb=0:  29439 shell pairs
          la=1 lb=0:  26035 shell pairs
          la=1 lb=1:   4698 shell pairs
          la=2 lb=0:   7893 shell pairs
          la=2 lb=1:   3130 shell pairs
          la=2 lb=2:    529 shell pairs

Calculating one electron integrals          ... done (  0.2 sec)
Calculating Nuclear repulsion               ... done (  0.0 sec) ENN=   6235.792251735400 Eh

SHARK setup successfully completed in   2.2 seconds

Maximum memory used throughout the entire GTOINT-calculation: 99.1 MB


           ************************************************************
           *        Program running with 16 parallel MPI-processes    *
           *              working on a common directory               *
           ************************************************************
-------------------------------------------------------------------------------
                                 ORCA SCF
-------------------------------------------------------------------------------

------------
SCF SETTINGS
------------
Hamiltonian:
 Ab initio Hamiltonian  Method          .... Hartree-Fock(GTOs)


General Settings:
 Integral files         IntName         .... /scratch/allen/tmpyp4_amber_gaff2/conf1/conf1/Conf179.orca
 Hartree-Fock type      HFTyp           .... RHF
 Total Charge           Charge          ....    0
 Multiplicity           Mult            ....    1
 Number of Electrons    NEL             ....  358
 Basis Dimension        Dim             ....  918
 Nuclear Repulsion      ENuc            ....   6235.7922517354 Eh

Convergence Acceleration:
 DIIS                   CNVDIIS         .... on
   Start iteration      DIISMaxIt       ....    12
   Startup error        DIISStart       ....  0.200000
   # of expansion vecs  DIISMaxEq       ....     5
   Bias factor          DIISBfac        ....   1.050
   Max. coefficient     DIISMaxC        ....  10.000
 Trust-Rad. Augm. Hess. CNVTRAH         .... auto
   Auto Start mean grad. ratio tolernc. ....  1.125000
   Auto Start start iteration           ....    20
   Auto Start num. interpolation iter.  ....    10
   Max. Number of Micro iterations      ....    16
   Max. Number of Macro iterations      .... Maxiter - #DIIS iter
   Number of Davidson start vectors     ....     2
   Converg. threshold I  (grad. norm)   ....   1.000e-05
   Converg. threshold II (energy diff.) ....   1.000e-08
   Grad. Scal. Fac. for Micro threshold ....   0.100
   Minimum threshold for Micro iter.    ....   0.010
   NR start threshold (gradient norm)   ....   0.001
   Initial trust radius                 ....   0.400
   Minimum AH scaling param. (alpha)    ....   1.000
   Maximum AH scaling param. (alpha)    .... 1000.000
   Orbital update algorithm             .... Taylor
   White noise on init. David. guess    .... on
   Maximum white noise                  ....   0.010
   Quad. conv. algorithm                .... NR
 SOSCF                  CNVSOSCF        .... on
   Start iteration      SOSCFMaxIt      ....   150
   Startup grad/error   SOSCFStart      ....  0.003300
 Level Shifting         CNVShift        .... on
   Level shift para.    LevelShift      ....    0.2500
   Turn off err/grad.   ShiftErr        ....    0.0010
 Zerner damping         CNVZerner       .... off
 Static damping         CNVDamp         .... on
   Fraction old density DampFac         ....    0.7000
   Max. Damping (<1)    DampMax         ....    0.9800
   Min. Damping (>=0)   DampMin         ....    0.0000
   Turn off err/grad.   DampErr         ....    0.1000
 Fernandez-Rico         CNVRico         .... off

SCF Procedure:
 Maximum # iterations   MaxIter         ....   125
 SCF integral mode      SCFMode         .... Direct
   Integral package                     .... SHARK and LIBINT hybrid scheme
 Reset frequency        DirectResetFreq ....    20
 Integral Threshold     Thresh          ....  2.500e-11 Eh
 Primitive CutOff       TCut            ....  2.500e-12 Eh

Convergence Tolerance:
 Convergence Check Mode ConvCheckMode   .... Total+1el-Energy
 Convergence forced     ConvForced      .... 1
 Energy Change          TolE            ....  1.000e-08 Eh
 1-El. energy change                    ....  1.000e-05 Eh
 Orbital Gradient       TolG            ....  1.000e-05
 Orbital Rotation angle TolX            ....  1.000e-05
 DIIS Error             TolErr          ....  5.000e-07


Diagonalization of the overlap matrix:
Smallest eigenvalue                        ... 1.596e-04
Time for diagonalization                   ...    0.428 sec
Threshold for overlap eigenvalues          ... 1.000e-08
Number of eigenvalues below threshold      ... 0
Time for construction of square roots      ...    0.269 sec
Total time needed                          ...    0.703 sec

Time for model grid setup =    1.290 sec

------------------------------
INITIAL GUESS: MODEL POTENTIAL
------------------------------
Loading Hartree-Fock densities                     ... done
Calculating cut-offs                               ... done
Initializing the effective Hamiltonian             ... done
Setting up the integral package (SHARK)            ... done
Starting the Coulomb interaction                   ... done (   1.4 sec)
Reading the grid                                   ... done
Mapping shells                                     ... done
Starting the XC term evaluation                    ... done (   0.2 sec)
Transforming the Hamiltonian                       ... done (   0.3 sec)
Diagonalizing the Hamiltonian                      ... done (   0.4 sec)
Back transforming the eigenvectors                 ... done (   0.1 sec)
Now organizing SCF variables                       ... done
                      ------------------
                      INITIAL GUESS DONE (   3.8 sec)
                      ------------------
--------------
SCF ITERATIONS
--------------
ITER       Energy         Delta-E        Max-DP      RMS-DP      [F,P]     Damp
               ***  Starting incremental Fock matrix formation  ***
  0  -2121.5601703572   0.000000000000 0.07830831  0.00131725  0.2310154 0.7000
  1  -2122.1982338148  -0.638063457522 0.08295444  0.00106972  0.1434229 0.7000
                               ***Turning on DIIS***
  2  -2122.5970590432  -0.398825228478 0.13998838  0.00242155  0.0803349 0.0000
  3  -2118.0573867566   4.539672286608 0.11769560  0.00073328  0.0433627 0.0000
  4  -2123.3049983776  -5.247611620996 0.03316664  0.00024014  0.0094228 0.0000
  5  -2123.4243370769  -0.119338699229 0.01551639  0.00013682  0.0047975 0.0000
  6  -2123.4080966389   0.016240437973 0.00941809  0.00008657  0.0022754 0.0000
  7  -2123.4993910647  -0.091294425816 0.00572307  0.00006729  0.0016480 0.0000
  8  -2123.5046659137  -0.005274848962 0.00451062  0.00006420  0.0015455 0.0000
  9  -2123.4790217393   0.025644174384 0.00270637  0.00004602  0.0012458 0.0000
 10  -2123.4861679621  -0.007146222833 0.00547725  0.00009655  0.0009794 0.0000
                      *** Initiating the SOSCF procedure ***
                           *** Shutting down DIIS ***
                      *** Re-Reading the Fockian *** 
                      *** Removing any level shift *** 
ITER      Energy       Delta-E        Grad      Rot      Max-DP    RMS-DP
 11  -2123.38139924   0.1047687255  0.000189  0.000189  0.000249  0.000005
               *** Restarting incremental Fock matrix formation ***
 12  -2123.44670619  -0.0653069493  0.000946  0.006330  0.001531  0.000035
 13  -2123.44681825  -0.0001120690  0.001147  0.031362  0.006994  0.000137
 14  -2123.44700132  -0.0001830604  0.000411  0.002204  0.000645  0.000013
 15  -2123.44701647  -0.0000151535  0.000165  0.001883  0.000461  0.000012
 16  -2123.44702248  -0.0000060102  0.000131  0.001992  0.000512  0.000008
 17  -2123.44702489  -0.0000024148  0.000113  0.001669  0.000274  0.000007
 18  -2123.44702588  -0.0000009909  0.000054  0.000769  0.000196  0.000003
 19  -2123.44702646  -0.0000005791  0.000041  0.001286  0.000214  0.000005
 20  -2123.44702683  -0.0000003643  0.000022  0.000746  0.000140  0.000003
 21  -2123.44702698  -0.0000001560  0.000026  0.000968  0.000170  0.000003
 22  -2123.44702714  -0.0000001549  0.000019  0.000959  0.000148  0.000003
 23  -2123.44702724  -0.0000001035  0.000014  0.000400  0.000068  0.000001
 24  -2123.44702729  -0.0000000439  0.000007  0.000301  0.000051  0.000001
 25  -2123.44702732  -0.0000000292  0.000007  0.000118  0.000036  0.000000
 26  -2123.44702733  -0.0000000149  0.000006  0.000072  0.000028  0.000000
                  ***Gradient check signals convergence***
              ***Rediagonalizing the Fockian in SOSCF/NRSCF***

               *****************************************************
               *                     SUCCESS                       *
               *           SCF CONVERGED AFTER  27 CYCLES          *
               *****************************************************


----------------
TOTAL SCF ENERGY
----------------

Total Energy       :        -2123.44702733 Eh          -57781.93119 eV

Components:
Nuclear Repulsion  :         6235.79225174 Eh          169684.53376 eV
Electronic Energy  :        -8359.23927907 Eh         -227466.46496 eV
One Electron Energy:       -15311.98883562 Eh         -416660.39882 eV
Two Electron Energy:         6952.74955655 Eh          189193.93387 eV

Virial components:
Potential Energy   :        -4246.09277798 Eh         -115542.05853 eV
Kinetic Energy     :         2122.64575065 Eh           57760.12734 eV
Virial Ratio       :            2.00037749


---------------
SCF CONVERGENCE
---------------

  Last Energy change         ...   -4.5147e-09  Tolerance :   1.0000e-08
  Last MAX-Density change    ...    1.8476e-05  Tolerance :   1.0000e-07
  Last RMS-Density change    ...    3.0804e-07  Tolerance :   5.0000e-09
  Last Orbital Gradient      ...    2.4993e-06  Tolerance :   1.0000e-05
  Last Orbital Rotation      ...    5.4833e-05  Tolerance :   1.0000e-05

             **** THE GBW FILE WAS UPDATED (/scratch/allen/tmpyp4_amber_gaff2/conf1/conf1/Conf179.orca.gbw) ****
             **** DENSITY /scratch/allen/tmpyp4_amber_gaff2/conf1/conf1/Conf179.orca.scfp WAS UPDATED ****
             **** ENERGY FILE WAS UPDATED (/scratch/allen/tmpyp4_amber_gaff2/conf1/conf1/Conf179.orca.en.tmp) ****
             **** THE GBW FILE WAS UPDATED (/scratch/allen/tmpyp4_amber_gaff2/conf1/conf1/Conf179.orca.gbw) ****
             **** DENSITY /scratch/allen/tmpyp4_amber_gaff2/conf1/conf1/Conf179.orca.scfp WAS UPDATED ****
----------------
ORBITAL ENERGIES
----------------

  NO   OCC          E(Eh)            E(eV) 
   0   2.0000     -15.680097      -426.6771 
   1   2.0000     -15.634319      -425.4315 
   2   2.0000     -15.631529      -425.3555 
   3   2.0000     -15.587732      -424.1637 
   4   2.0000     -15.525118      -422.4599 
   5   2.0000     -15.515424      -422.1962 
   6   2.0000     -15.453685      -420.5161 
   7   2.0000     -15.439512      -420.1305 
   8   2.0000     -11.329689      -308.2965 
   9   2.0000     -11.328575      -308.2662 
  10   2.0000     -11.328108      -308.2535 
  11   2.0000     -11.299537      -307.4760 
  12   2.0000     -11.298205      -307.4398 
  13   2.0000     -11.293306      -307.3065 
  14   2.0000     -11.291013      -307.2441 
  15   2.0000     -11.286834      -307.1304 
  16   2.0000     -11.286225      -307.1138 
  17   2.0000     -11.282326      -307.0077 
  18   2.0000     -11.269246      -306.6518 
  19   2.0000     -11.263529      -306.4962 
  20   2.0000     -11.262533      -306.4691 
  21   2.0000     -11.249837      -306.1236 
  22   2.0000     -11.248454      -306.0860 
  23   2.0000     -11.238077      -305.8036 
  24   2.0000     -11.236331      -305.7561 
  25   2.0000     -11.231367      -305.6210 
  26   2.0000     -11.230698      -305.6028 
  27   2.0000     -11.229534      -305.5712 
  28   2.0000     -11.229321      -305.5654 
  29   2.0000     -11.211234      -305.0732 
  30   2.0000     -11.209721      -305.0320 
  31   2.0000     -11.193611      -304.5936 
  32   2.0000     -11.192323      -304.5586 
  33   2.0000     -11.191373      -304.5327 
  34   2.0000     -11.188281      -304.4486 
  35   2.0000     -11.187924      -304.4389 
  36   2.0000     -11.186782      -304.4078 
  37   2.0000     -11.174825      -304.0824 
  38   2.0000     -11.172498      -304.0191 
  39   2.0000     -11.170589      -303.9672 
  40   2.0000     -11.169931      -303.9493 
  41   2.0000     -11.168636      -303.9140 
  42   2.0000     -11.166797      -303.8640 
  43   2.0000     -11.161742      -303.7264 
  44   2.0000     -11.161057      -303.7078 
  45   2.0000     -11.156609      -303.5868 
  46   2.0000     -11.156484      -303.5834 
  47   2.0000     -11.150723      -303.4266 
  48   2.0000     -11.146931      -303.3234 
  49   2.0000     -11.135735      -303.0187 
  50   2.0000     -11.129749      -302.8559 
  51   2.0000     -11.117662      -302.5270 
  52   2.0000      -1.360629       -37.0246 
  53   2.0000      -1.321512       -35.9602 
  54   2.0000      -1.319367       -35.9018 
  55   2.0000      -1.279537       -34.8180 
  56   2.0000      -1.226274       -33.3686 
  57   2.0000      -1.210366       -32.9357 
  58   2.0000      -1.173346       -31.9284 
  59   2.0000      -1.150824       -31.3155 
  60   2.0000      -1.143818       -31.1249 
  61   2.0000      -1.110481       -30.2177 
  62   2.0000      -1.108774       -30.1713 
  63   2.0000      -1.082289       -29.4506 
  64   2.0000      -1.077204       -29.3122 
  65   2.0000      -1.045680       -28.4544 
  66   2.0000      -1.044032       -28.4095 
  67   2.0000      -1.041220       -28.3330 
  68   2.0000      -1.015035       -27.6205 
  69   2.0000      -1.014722       -27.6120 
  70   2.0000      -1.009093       -27.4588 
  71   2.0000      -0.993677       -27.0393 
  72   2.0000      -0.985500       -26.8168 
  73   2.0000      -0.981989       -26.7213 
  74   2.0000      -0.974293       -26.5119 
  75   2.0000      -0.962122       -26.1807 
  76   2.0000      -0.954724       -25.9794 
  77   2.0000      -0.946608       -25.7585 
  78   2.0000      -0.939052       -25.5529 
  79   2.0000      -0.916598       -24.9419 
  80   2.0000      -0.910823       -24.7848 
  81   2.0000      -0.898619       -24.4527 
  82   2.0000      -0.877554       -23.8795 
  83   2.0000      -0.872559       -23.7435 
  84   2.0000      -0.870747       -23.6942 
  85   2.0000      -0.861627       -23.4461 
  86   2.0000      -0.844599       -22.9827 
  87   2.0000      -0.839122       -22.8337 
  88   2.0000      -0.829438       -22.5702 
  89   2.0000      -0.796338       -21.6695 
  90   2.0000      -0.789193       -21.4750 
  91   2.0000      -0.775503       -21.1025 
  92   2.0000      -0.753229       -20.4964 
  93   2.0000      -0.734368       -19.9832 
  94   2.0000      -0.728891       -19.8341 
  95   2.0000      -0.726447       -19.7676 
  96   2.0000      -0.720483       -19.6053 
  97   2.0000      -0.717962       -19.5367 
  98   2.0000      -0.713927       -19.4269 
  99   2.0000      -0.699638       -19.0381 
 100   2.0000      -0.698481       -19.0066 
 101   2.0000      -0.694464       -18.8973 
 102   2.0000      -0.685543       -18.6546 
 103   2.0000      -0.684478       -18.6256 
 104   2.0000      -0.679080       -18.4787 
 105   2.0000      -0.674459       -18.3530 
 106   2.0000      -0.672846       -18.3091 
 107   2.0000      -0.660782       -17.9808 
 108   2.0000      -0.658243       -17.9117 
 109   2.0000      -0.653082       -17.7713 
 110   2.0000      -0.651906       -17.7393 
 111   2.0000      -0.646400       -17.5894 
 112   2.0000      -0.645804       -17.5732 
 113   2.0000      -0.638209       -17.3666 
 114   2.0000      -0.635311       -17.2877 
 115   2.0000      -0.628480       -17.1018 
 116   2.0000      -0.623084       -16.9550 
 117   2.0000      -0.620285       -16.8788 
 118   2.0000      -0.613114       -16.6837 
 119   2.0000      -0.612502       -16.6670 
 120   2.0000      -0.611915       -16.6510 
 121   2.0000      -0.611195       -16.6315 
 122   2.0000      -0.601287       -16.3618 
 123   2.0000      -0.589481       -16.0406 
 124   2.0000      -0.581877       -15.8337 
 125   2.0000      -0.580754       -15.8031 
 126   2.0000      -0.580355       -15.7923 
 127   2.0000      -0.571217       -15.5436 
 128   2.0000      -0.566711       -15.4210 
 129   2.0000      -0.559886       -15.2353 
 130   2.0000      -0.555740       -15.1225 
 131   2.0000      -0.547936       -14.9101 
 132   2.0000      -0.542849       -14.7717 
 133   2.0000      -0.540459       -14.7066 
 134   2.0000      -0.538910       -14.6645 
 135   2.0000      -0.535922       -14.5832 
 136   2.0000      -0.531913       -14.4741 
 137   2.0000      -0.518057       -14.0970 
 138   2.0000      -0.517036       -14.0693 
 139   2.0000      -0.514031       -13.9875 
 140   2.0000      -0.511795       -13.9267 
 141   2.0000      -0.510184       -13.8828 
 142   2.0000      -0.507728       -13.8160 
 143   2.0000      -0.505503       -13.7554 
 144   2.0000      -0.501992       -13.6599 
 145   2.0000      -0.495538       -13.4843 
 146   2.0000      -0.488554       -13.2942 
 147   2.0000      -0.481308       -13.0970 
 148   2.0000      -0.476231       -12.9589 
 149   2.0000      -0.467801       -12.7295 
 150   2.0000      -0.466167       -12.6851 
 151   2.0000      -0.456161       -12.4128 
 152   2.0000      -0.451312       -12.2808 
 153   2.0000      -0.445244       -12.1157 
 154   2.0000      -0.438066       -11.9204 
 155   2.0000      -0.427751       -11.6397 
 156   2.0000      -0.409197       -11.1348 
 157   2.0000      -0.391063       -10.6414 
 158   2.0000      -0.387984       -10.5576 
 159   2.0000      -0.383536       -10.4366 
 160   2.0000      -0.378409       -10.2970 
 161   2.0000      -0.373287       -10.1577 
 162   2.0000      -0.360930        -9.8214 
 163   2.0000      -0.356874        -9.7110 
 164   2.0000      -0.355662        -9.6781 
 165   2.0000      -0.341707        -9.2983 
 166   2.0000      -0.337624        -9.1872 
 167   2.0000      -0.324856        -8.8398 
 168   2.0000      -0.321132        -8.7384 
 169   2.0000      -0.305527        -8.3138 
 170   2.0000      -0.299239        -8.1427 
 171   2.0000      -0.285991        -7.7822 
 172   2.0000      -0.278152        -7.5689 
 173   2.0000      -0.263346        -7.1660 
 174   2.0000      -0.242062        -6.5869 
 175   2.0000      -0.190015        -5.1706 
 176   2.0000      -0.181455        -4.9376 
 177   2.0000      -0.080365        -2.1868 
 178   2.0000      -0.059764        -1.6263 
 179   0.0000       0.028420         0.7733 
 180   0.0000       0.065318         1.7774 
 181   0.0000       0.090205         2.4546 
 182   0.0000       0.106066         2.8862 
 183   0.0000       0.116964         3.1827 
 184   0.0000       0.136814         3.7229 
 185   0.0000       0.139594         3.7985 
 186   0.0000       0.140806         3.8315 
 187   0.0000       0.164508         4.4765 
 188   0.0000       0.165012         4.4902 
 189   0.0000       0.165811         4.5120 
 190   0.0000       0.175202         4.7675 
 191   0.0000       0.180219         4.9040 
 192   0.0000       0.183647         4.9973 
 193   0.0000       0.189464         5.1556 
 194   0.0000       0.204662         5.5691 
 195   0.0000       0.205699         5.5973 
 196   0.0000       0.208040         5.6611 
 197   0.0000       0.208817         5.6822 
 198   0.0000       0.216415         5.8890 
 199   0.0000       0.228893         6.2285 
 200   0.0000       0.233255         6.3472 
 201   0.0000       0.233719         6.3598 
 202   0.0000       0.238871         6.5000 
 203   0.0000       0.239823         6.5259 
 204   0.0000       0.246075         6.6960 
 205   0.0000       0.254881         6.9357 
 206   0.0000       0.256379         6.9764 
 207   0.0000       0.257332         7.0023 
 208   0.0000       0.259279         7.0553 
 209   0.0000       0.260629         7.0921 
 210   0.0000       0.264213         7.1896 
 211   0.0000       0.266816         7.2604 
 212   0.0000       0.268843         7.3156 
 213   0.0000       0.269971         7.3463 
 214   0.0000       0.272741         7.4217 
 215   0.0000       0.276505         7.5241 
 216   0.0000       0.278881         7.5887 
 217   0.0000       0.282108         7.6765 
 218   0.0000       0.285357         7.7650 
 219   0.0000       0.288164         7.8413 
 220   0.0000       0.288758         7.8575 
 221   0.0000       0.292847         7.9688 
 222   0.0000       0.294961         8.0263 
 223   0.0000       0.296493         8.0680 
 224   0.0000       0.297598         8.0980 
 225   0.0000       0.301703         8.2098 
 226   0.0000       0.305369         8.3095 
 227   0.0000       0.307808         8.3759 
 228   0.0000       0.319875         8.7042 
 229   0.0000       0.324730         8.8364 
 230   0.0000       0.328247         8.9321 
 231   0.0000       0.334604         9.1050 
 232   0.0000       0.343469         9.3463 
 233   0.0000       0.357120         9.7177 
 234   0.0000       0.370910        10.0930 
 235   0.0000       0.374199        10.1825 
 236   0.0000       0.387703        10.5499 
 237   0.0000       0.391062        10.6413 
 238   0.0000       0.397339        10.8121 
 239   0.0000       0.403910        10.9910 
 240   0.0000       0.405303        11.0289 
 241   0.0000       0.411068        11.1857 
 242   0.0000       0.412380        11.2214 
 243   0.0000       0.419958        11.4276 
 244   0.0000       0.429196        11.6790 
 245   0.0000       0.435310        11.8454 
 246   0.0000       0.440362        11.9829 
 247   0.0000       0.441393        12.0109 
 248   0.0000       0.441678        12.0187 
 249   0.0000       0.448143        12.1946 
 250   0.0000       0.453362        12.3366 
 251   0.0000       0.457492        12.4490 
 252   0.0000       0.467281        12.7154 
 253   0.0000       0.468952        12.7608 
 254   0.0000       0.471713        12.8360 
 255   0.0000       0.474388        12.9088 
 256   0.0000       0.476398        12.9634 
 257   0.0000       0.483885        13.1672 
 258   0.0000       0.488659        13.2971 
 259   0.0000       0.494598        13.4587 
 260   0.0000       0.504222        13.7206 
 261   0.0000       0.505139        13.7455 
 262   0.0000       0.505674        13.7601 
 263   0.0000       0.512166        13.9368 
 264   0.0000       0.515728        14.0337 
 265   0.0000       0.520568        14.1654 
 266   0.0000       0.525648        14.3036 
 267   0.0000       0.528464        14.3802 
 268   0.0000       0.535694        14.5770 
 269   0.0000       0.542128        14.7520 
 270   0.0000       0.550862        14.9897 
 271   0.0000       0.555980        15.1290 
 272   0.0000       0.558986        15.2108 
 273   0.0000       0.562417        15.3041 
 274   0.0000       0.565674        15.3928 
 275   0.0000       0.568592        15.4722 
 276   0.0000       0.573586        15.6081 
 277   0.0000       0.578556        15.7433 
 278   0.0000       0.581011        15.8101 
 279   0.0000       0.586440        15.9579 
 280   0.0000       0.592472        16.1220 
 281   0.0000       0.593759        16.1570 
 282   0.0000       0.595623        16.2077 
 283   0.0000       0.597468        16.2579 
 284   0.0000       0.598136        16.2761 
 285   0.0000       0.599933        16.3250 
 286   0.0000       0.602838        16.4041 
 287   0.0000       0.610565        16.6143 
 288   0.0000       0.617143        16.7933 
 289   0.0000       0.624182        16.9848 
 290   0.0000       0.625726        17.0269 
 291   0.0000       0.631297        17.1785 
 292   0.0000       0.634746        17.2723 
 293   0.0000       0.636898        17.3309 
 294   0.0000       0.646656        17.5964 
 295   0.0000       0.650766        17.7083 
 296   0.0000       0.654703        17.8154 
 297   0.0000       0.657751        17.8983 
 298   0.0000       0.661669        18.0049 
 299   0.0000       0.664633        18.0856 
 300   0.0000       0.670609        18.2482 
 301   0.0000       0.675569        18.3832 
 302   0.0000       0.677586        18.4380 
 303   0.0000       0.680697        18.5227 
 304   0.0000       0.684036        18.6136 
 305   0.0000       0.688831        18.7440 
 306   0.0000       0.689937        18.7741 
 307   0.0000       0.692979        18.8569 
 308   0.0000       0.695118        18.9151 
 309   0.0000       0.700713        19.0674 
 310   0.0000       0.703209        19.1353 
 311   0.0000       0.705135        19.1877 
 312   0.0000       0.709104        19.2957 
 313   0.0000       0.710750        19.3405 
 314   0.0000       0.711186        19.3523 
 315   0.0000       0.715178        19.4610 
 316   0.0000       0.716375        19.4936 
 317   0.0000       0.719391        19.5756 
 318   0.0000       0.723911        19.6986 
 319   0.0000       0.727362        19.7925 
 320   0.0000       0.727809        19.8047 
 321   0.0000       0.729726        19.8569 
 322   0.0000       0.731560        19.9068 
 323   0.0000       0.734418        19.9845 
 324   0.0000       0.736871        20.0513 
 325   0.0000       0.741130        20.1672 
 326   0.0000       0.745911        20.2973 
 327   0.0000       0.748736        20.3742 
 328   0.0000       0.749695        20.4002 
 329   0.0000       0.753671        20.5084 
 330   0.0000       0.758076        20.6283 
 331   0.0000       0.763947        20.7880 
 332   0.0000       0.766206        20.8495 
 333   0.0000       0.768065        20.9001 
 334   0.0000       0.771385        20.9904 
 335   0.0000       0.774325        21.0704 
 336   0.0000       0.778277        21.1780 
 337   0.0000       0.782280        21.2869 
 338   0.0000       0.786032        21.3890 
 339   0.0000       0.790817        21.5192 
 340   0.0000       0.792591        21.5675 
 341   0.0000       0.795715        21.6525 
 342   0.0000       0.799658        21.7598 
 343   0.0000       0.803117        21.8539 
 344   0.0000       0.807298        21.9677 
 345   0.0000       0.809397        22.0248 
 346   0.0000       0.810762        22.0619 
 347   0.0000       0.815169        22.1819 
 348   0.0000       0.815565        22.1927 
 349   0.0000       0.816889        22.2287 
 350   0.0000       0.820058        22.3149 
 351   0.0000       0.821732        22.3605 
 352   0.0000       0.823934        22.4204 
 353   0.0000       0.829377        22.5685 
 354   0.0000       0.830926        22.6106 
 355   0.0000       0.832470        22.6527 
 356   0.0000       0.835741        22.7417 
 357   0.0000       0.837229        22.7821 
 358   0.0000       0.837931        22.8013 
 359   0.0000       0.839919        22.8554 
 360   0.0000       0.842795        22.9336 
 361   0.0000       0.843239        22.9457 
 362   0.0000       0.847355        23.0577 
 363   0.0000       0.850578        23.1454 
 364   0.0000       0.852107        23.1870 
 365   0.0000       0.857315        23.3287 
 366   0.0000       0.861339        23.4382 
 367   0.0000       0.864506        23.5244 
 368   0.0000       0.867920        23.6173 
 369   0.0000       0.868508        23.6333 
 370   0.0000       0.869835        23.6694 
 371   0.0000       0.874601        23.7991 
 372   0.0000       0.877406        23.8754 
 373   0.0000       0.878149        23.8956 
 374   0.0000       0.880389        23.9566 
 375   0.0000       0.884812        24.0770 
 376   0.0000       0.890436        24.2300 
 377   0.0000       0.892693        24.2914 
 378   0.0000       0.893971        24.3262 
 379   0.0000       0.895729        24.3740 
 380   0.0000       0.897053        24.4101 
 381   0.0000       0.898947        24.4616 
 382   0.0000       0.900078        24.4924 
 383   0.0000       0.902871        24.5684 
 384   0.0000       0.906649        24.6712 
 385   0.0000       0.907936        24.7062 
 386   0.0000       0.910068        24.7642 
 387   0.0000       0.914179        24.8761 
 388   0.0000       0.917117        24.9560 
 389   0.0000       0.919535        25.0218 
 390   0.0000       0.920828        25.0570 
 391   0.0000       0.927257        25.2319 
 392   0.0000       0.927917        25.2499 
 393   0.0000       0.929324        25.2882 
 394   0.0000       0.930982        25.3333 
 395   0.0000       0.936278        25.4774 
 396   0.0000       0.936800        25.4916 
 397   0.0000       0.942072        25.6351 
 398   0.0000       0.945193        25.7200 
 399   0.0000       0.948492        25.8098 
 400   0.0000       0.949803        25.8454 
 401   0.0000       0.953527        25.9468 
 402   0.0000       0.956482        26.0272 
 403   0.0000       0.958492        26.0819 
 404   0.0000       0.962445        26.1894 
 405   0.0000       0.963887        26.2287 
 406   0.0000       0.970150        26.3991 
 407   0.0000       0.980397        26.6780 
 408   0.0000       0.982090        26.7240 
 409   0.0000       0.986758        26.8511 
 410   0.0000       0.989797        26.9337 
 411   0.0000       0.995602        27.0917 
 412   0.0000       0.998988        27.1838 
 413   0.0000       1.006948        27.4004 
 414   0.0000       1.015093        27.6221 
 415   0.0000       1.015885        27.6436 
 416   0.0000       1.017662        27.6920 
 417   0.0000       1.025577        27.9074 
 418   0.0000       1.030003        28.0278 
 419   0.0000       1.034093        28.1391 
 420   0.0000       1.034890        28.1608 
 421   0.0000       1.043824        28.4039 
 422   0.0000       1.052003        28.6265 
 423   0.0000       1.054649        28.6985 
 424   0.0000       1.055564        28.7234 
 425   0.0000       1.074201        29.2305 
 426   0.0000       1.077395        29.3174 
 427   0.0000       1.079302        29.3693 
 428   0.0000       1.082058        29.4443 
 429   0.0000       1.085255        29.5313 
 430   0.0000       1.089834        29.6559 
 431   0.0000       1.095022        29.7971 
 432   0.0000       1.101262        29.9669 
 433   0.0000       1.103655        30.0320 
 434   0.0000       1.109757        30.1980 
 435   0.0000       1.113398        30.2971 
 436   0.0000       1.114413        30.3247 
 437   0.0000       1.119001        30.4496 
 438   0.0000       1.122438        30.5431 
 439   0.0000       1.125231        30.6191 
 440   0.0000       1.128676        30.7128 
 441   0.0000       1.130225        30.7550 
 442   0.0000       1.135220        30.8909 
 443   0.0000       1.137700        30.9584 
 444   0.0000       1.138815        30.9887 
 445   0.0000       1.143422        31.1141 
 446   0.0000       1.148715        31.2581 
 447   0.0000       1.150558        31.3083 
 448   0.0000       1.155025        31.4298 
 449   0.0000       1.156407        31.4674 
 450   0.0000       1.160497        31.5787 
 451   0.0000       1.164948        31.6998 
 452   0.0000       1.168326        31.7918 
 453   0.0000       1.169276        31.8176 
 454   0.0000       1.174079        31.9483 
 455   0.0000       1.179095        32.0848 
 456   0.0000       1.184457        32.2307 
 457   0.0000       1.194562        32.5057 
 458   0.0000       1.197107        32.5749 
 459   0.0000       1.200594        32.6698 
 460   0.0000       1.203641        32.7527 
 461   0.0000       1.206845        32.8399 
 462   0.0000       1.208817        32.8936 
 463   0.0000       1.212809        33.0022 
 464   0.0000       1.214846        33.0576 
 465   0.0000       1.215609        33.0784 
 466   0.0000       1.222478        33.2653 
 467   0.0000       1.229917        33.4678 
 468   0.0000       1.231859        33.5206 
 469   0.0000       1.234900        33.6033 
 470   0.0000       1.236550        33.6482 
 471   0.0000       1.240781        33.7634 
 472   0.0000       1.243607        33.8403 
 473   0.0000       1.244772        33.8720 
 474   0.0000       1.249189        33.9922 
 475   0.0000       1.249301        33.9952 
 476   0.0000       1.253400        34.1068 
 477   0.0000       1.255673        34.1686 
 478   0.0000       1.261130        34.3171 
 479   0.0000       1.261929        34.3388 
 480   0.0000       1.267724        34.4965 
 481   0.0000       1.271148        34.5897 
 482   0.0000       1.272521        34.6270 
 483   0.0000       1.275348        34.7040 
 484   0.0000       1.279711        34.8227 
 485   0.0000       1.285001        34.9666 
 486   0.0000       1.286644        35.0114 
 487   0.0000       1.291284        35.1376 
 488   0.0000       1.292890        35.1813 
 489   0.0000       1.297372        35.3033 
 490   0.0000       1.301907        35.4267 
 491   0.0000       1.302260        35.4363 
 492   0.0000       1.308123        35.5958 
 493   0.0000       1.309660        35.6377 
 494   0.0000       1.315280        35.7906 
 495   0.0000       1.319827        35.9143 
 496   0.0000       1.322138        35.9772 
 497   0.0000       1.327743        36.1297 
 498   0.0000       1.330609        36.2077 
 499   0.0000       1.334995        36.3271 
 500   0.0000       1.337345        36.3910 
 501   0.0000       1.338841        36.4317 
 502   0.0000       1.342272        36.5251 
 503   0.0000       1.348099        36.6836 
 504   0.0000       1.349043        36.7093 
 505   0.0000       1.351012        36.7629 
 506   0.0000       1.353434        36.8288 
 507   0.0000       1.356099        36.9013 
 508   0.0000       1.360678        37.0259 
 509   0.0000       1.363599        37.1054 
 510   0.0000       1.368650        37.2429 
[...]
      px      :     0.043618
      py      :     0.014044
 77 H s       :     0.884426  s :     0.884426
      pz      :     0.047985  p :     0.079300
      px      :     0.015024
      py      :     0.016291
 78 H s       :     0.884778  s :     0.884778
      pz      :     0.025887  p :     0.079270
      px      :     0.020453
      py      :     0.032930
 79 H s       :     0.910793  s :     0.910793
      pz      :     0.021800  p :     0.086301
      px      :     0.021655
      py      :     0.042846
 80 H s       :     0.864292  s :     0.864292
      pz      :     0.039400  p :     0.084847
      px      :     0.030296
      py      :     0.015151
 81 H s       :     0.886810  s :     0.886810
      pz      :     0.037827  p :     0.084133
      px      :     0.016184
      py      :     0.030122
 82 H s       :     0.916134  s :     0.916134
      pz      :     0.021966  p :     0.086726
      px      :     0.031654
      py      :     0.033106
 83 H s       :     0.873455  s :     0.873455
      pz      :     0.039272  p :     0.084104
      px      :     0.015276
      py      :     0.029556
 84 H s       :     0.886706  s :     0.886706
      pz      :     0.035765  p :     0.083421
      px      :     0.031695
      py      :     0.015961
 85 H s       :     0.892863  s :     0.892863
      pz      :     0.022489  p :     0.079783
      px      :     0.014070
      py      :     0.043224
 86 H s       :     0.891015  s :     0.891015
      pz      :     0.024729  p :     0.078826
      px      :     0.032979
      py      :     0.021117
 87 H s       :     0.889842  s :     0.889842
      pz      :     0.048019  p :     0.078741
      px      :     0.015585
      py      :     0.015137
 88 H s       :     0.910538  s :     0.910538
      pz      :     0.021618  p :     0.087018
      px      :     0.042941
      py      :     0.022458
 89 H s       :     0.871021  s :     0.871021
      pz      :     0.037962  p :     0.083857
      px      :     0.030507
      py      :     0.015387


                      *****************************
                      * MAYER POPULATION ANALYSIS *
                      *****************************

  NA   - Mulliken gross atomic population
  ZA   - Total nuclear charge
  QA   - Mulliken gross atomic charge
  VA   - Mayer's total valence
  BVA  - Mayer's bonded valence
  FA   - Mayer's free valence

  ATOM       NA         ZA         QA         VA         BVA        FA
  0 C      5.7762     6.0000     0.2238     3.8504     3.8504     0.0000
  1 N      7.4561     7.0000    -0.4561     3.3506     3.3506    -0.0000
  2 C      6.0685     6.0000    -0.0685     3.9234     3.9234     0.0000
  3 N      7.3411     7.0000    -0.3411     3.4555     3.4555    -0.0000
  4 C      6.1178     6.0000    -0.1178     4.1867     4.1867    -0.0000
  5 N      7.5691     7.0000    -0.5691     3.0955     3.0955    -0.0000
  6 C      6.1052     6.0000    -0.1052     3.9372     3.9372    -0.0000
  7 N      7.3411     7.0000    -0.3411     3.4321     3.4321     0.0000
  8 C      5.7730     6.0000     0.2270     3.8540     3.8540     0.0000
  9 N      7.5625     7.0000    -0.5625     3.0770     3.0770    -0.0000
 10 C      5.8802     6.0000     0.1198     3.9091     3.9091     0.0000
 11 N      7.4383     7.0000    -0.4383     3.3786     3.3786     0.0000
 12 C      6.0513     6.0000    -0.0513     3.8010     3.8010    -0.0000
 13 N      7.4293     7.0000    -0.4293     3.4289     3.4289     0.0000
 14 C      5.7909     6.0000     0.2091     3.8191     3.8191    -0.0000
 15 N      7.4410     7.0000    -0.4410     3.3722     3.3722    -0.0000
 16 C      5.7641     6.0000     0.2359     3.7781     3.7781     0.0000
 17 C      6.1039     6.0000    -0.1039     3.9212     3.9212    -0.0000
 18 C      6.1682     6.0000    -0.1682     3.7416     3.7416    -0.0000
 19 C      5.7937     6.0000     0.2063     3.8840     3.8840    -0.0000
 20 C      5.7860     6.0000     0.2140     3.8290     3.8290    -0.0000
 21 C      6.0490     6.0000    -0.0490     3.7996     3.7996    -0.0000
 22 C      6.0900     6.0000    -0.0900     3.9824     3.9824     0.0000
 23 C      6.0395     6.0000    -0.0395     3.9926     3.9926     0.0000
 24 C      5.8066     6.0000     0.1934     3.8210     3.8210    -0.0000
 25 C      5.8854     6.0000     0.1146     3.8914     3.8914     0.0000
 26 C      6.0888     6.0000    -0.0888     3.9091     3.9091     0.0000
 27 C      5.7818     6.0000     0.2182     3.8616     3.8616    -0.0000
 28 C      6.0618     6.0000    -0.0618     3.9887     3.9887    -0.0000
 29 C      6.1835     6.0000    -0.1835     3.7482     3.7482     0.0000
 30 C      5.7543     6.0000     0.2457     3.7996     3.7996    -0.0000
 31 C      5.7694     6.0000     0.2306     3.8169     3.8169     0.0000
 32 C      6.0613     6.0000    -0.0613     3.9234     3.9234    -0.0000
 33 C      6.0598     6.0000    -0.0598     3.9710     3.9710    -0.0000
 34 C      6.0511     6.0000    -0.0511     3.9833     3.9833     0.0000
 35 C      5.7713     6.0000     0.2287     3.8163     3.8163     0.0000
 36 C      5.8918     6.0000     0.1082     3.8745     3.8745     0.0000
 37 C      6.0645     6.0000    -0.0645     3.9177     3.9177     0.0000
 38 C      5.7687     6.0000     0.2313     3.8015     3.8015     0.0000
 39 C      6.0577     6.0000    -0.0577     3.9829     3.9829    -0.0000
 40 C      6.1818     6.0000    -0.1818     3.7260     3.7260    -0.0000
 41 C      5.7741     6.0000     0.2259     3.8878     3.8878     0.0000
 42 C      5.8029     6.0000     0.1971     3.8255     3.8255    -0.0000
 43 C      6.0728     6.0000    -0.0728     3.8999     3.8999     0.0000
 44 C      6.0898     6.0000    -0.0898     3.9851     3.9851    -0.0000
 45 C      6.0617     6.0000    -0.0617     3.9918     3.9918     0.0000
 46 C      5.7883     6.0000     0.2117     3.8286     3.8286     0.0000
 47 C      5.8846     6.0000     0.1154     3.8930     3.8930     0.0000
 48 C      6.0665     6.0000    -0.0665     3.9095     3.9095     0.0000
 49 C      5.7623     6.0000     0.2377     3.8964     3.8964    -0.0000
 50 C      6.0461     6.0000    -0.0461     3.9904     3.9904    -0.0000
 51 C      6.1936     6.0000    -0.1936     3.7387     3.7387    -0.0000
 52 H      0.9665     1.0000     0.0335     0.9856     0.9856    -0.0000
 53 H      1.0187     1.0000    -0.0187     0.9995     0.9995     0.0000
 54 H      0.9406     1.0000     0.0594     0.9515     0.9515    -0.0000
 55 H      0.9695     1.0000     0.0305     0.9866     0.9866    -0.0000
 56 H      0.9506     1.0000     0.0494     0.9695     0.9695     0.0000
 57 H      0.9530     1.0000     0.0470     0.9823     0.9823     0.0000
 58 H      0.9534     1.0000     0.0466     0.9847     0.9847    -0.0000
 59 H      1.0217     1.0000    -0.0217     0.9725     0.9725     0.0000
 60 H      0.9477     1.0000     0.0523     0.9943     0.9943     0.0000
 61 H      0.8291     1.0000     0.1709     1.0424     1.0424    -0.0000
 62 H      0.8245     1.0000     0.1755     1.0437     1.0437    -0.0000
 63 H      0.9446     1.0000     0.0554     0.9852     0.9852     0.0000
 64 H      1.0378     1.0000    -0.0378     0.9860     0.9860     0.0000
 65 H      0.9531     1.0000     0.0469     1.0101     1.0101     0.0000
 66 H      0.9444     1.0000     0.0556     0.9855     0.9855    -0.0000
 67 H      0.9374     1.0000     0.0626     0.9719     0.9719    -0.0000
 68 H      0.9428     1.0000     0.0572     0.9868     0.9868     0.0000
 69 H      0.9436     1.0000     0.0564     0.9828     0.9828     0.0000
 70 H      1.0305     1.0000    -0.0305     0.9941     0.9941    -0.0000
 71 H      0.9550     1.0000     0.0450     1.0058     1.0058     0.0000
 72 H      0.9284     1.0000     0.0716     0.9835     0.9835    -0.0000
 73 H      1.0079     1.0000    -0.0079     1.0010     1.0010     0.0000
 74 H      0.9393     1.0000     0.0607     1.0101     1.0101     0.0000
 75 H      0.9290     1.0000     0.0710     0.9838     0.9838     0.0000
 76 H      0.9248     1.0000     0.0752     0.9721     0.9721     0.0000
 77 H      0.9318     1.0000     0.0682     0.9855     0.9855     0.0000
 78 H      0.9325     1.0000     0.0675     0.9854     0.9854     0.0000
 79 H      1.0167     1.0000    -0.0167     0.9975     0.9975     0.0000
 80 H      0.9384     1.0000     0.0616     1.0072     1.0072     0.0000
 81 H      0.9457     1.0000     0.0543     0.9856     0.9856     0.0000
 82 H      1.0251     1.0000    -0.0251     0.9934     0.9934     0.0000
 83 H      0.9582     1.0000     0.0418     1.0083     1.0083     0.0000
 84 H      0.9459     1.0000     0.0541     0.9852     0.9852     0.0000
 85 H      0.9392     1.0000     0.0608     0.9716     0.9716     0.0000
 86 H      0.9445     1.0000     0.0555     0.9839     0.9839     0.0000
 87 H      0.9428     1.0000     0.0572     0.9857     0.9857     0.0000
 88 H      1.0144     1.0000    -0.0144     0.9968     0.9968    -0.0000
 89 H      0.9529     1.0000     0.0471     1.0075     1.0075    -0.0000

  Mayer bond orders larger than 0.100000
B(  0-C ,  1-N ) :   1.0960 B(  0-C , 17-C ) :   1.7291 B(  0-C , 52-H ) :   0.9582 
B(  1-N ,  8-C ) :   1.0984 B(  1-N , 10-C ) :   0.9772 B(  2-C , 12-C ) :   1.4809 
B(  2-C , 16-C ) :   1.3813 B(  2-C , 53-H ) :   0.9705 B(  3-N , 14-C ) :   1.2267 
B(  3-N , 16-C ) :   1.1774 B(  3-N , 61-H ) :   0.8973 B(  4-C ,  6-C ) :   1.2276 
B(  4-C , 17-C ) :   1.2297 B(  4-C , 18-C ) :   1.4877 B(  5-N , 19-C ) :   1.4622 
B(  5-N , 27-C ) :   1.3676 B(  6-C ,  8-C ) :   1.7330 B(  6-C , 54-H ) :   0.8554 
B(  7-N , 30-C ) :   1.1947 B(  7-N , 38-C ) :   1.1898 B(  7-N , 62-H ) :   0.8967 
B(  8-C , 55-H ) :   0.9598 B(  9-N , 41-C ) :   1.3945 B(  9-N , 49-C ) :   1.4249 
B( 10-C , 56-H ) :   0.9777 B( 10-C , 57-H ) :   0.9827 B( 10-C , 58-H ) :   0.9834 
B( 11-N , 20-C ) :   1.1316 B( 11-N , 24-C ) :   1.1070 B( 11-N , 25-C ) :   0.9601 
B( 12-C , 14-C ) :   1.3652 B( 12-C , 59-H ) :   0.8965 B( 13-N , 31-C ) :   1.1622 
B( 13-N , 35-C ) :   1.1609 B( 13-N , 36-C ) :   0.9411 B( 14-C , 18-C ) :   1.1148 
B( 15-N , 42-C ) :   1.1073 B( 15-N , 46-C ) :   1.1246 B( 15-N , 47-C ) :   0.9613 
B( 16-C , 51-C ) :   1.1673 B( 17-C , 60-H ) :   0.8457 B( 18-C , 19-C ) :   1.1136 
B( 19-C , 21-C ) :   1.2544 B( 20-C , 28-C ) :   1.6283 B( 20-C , 63-H ) :   0.9702 
B( 21-C , 26-C ) :   1.5782 B( 21-C , 64-H ) :   0.8929 B( 22-C , 23-C ) :   1.2901 
B( 22-C , 28-C ) :   1.2640 B( 22-C , 29-C ) :   1.2261 B( 23-C , 24-C ) :   1.6195 
B( 23-C , 65-H ) :   0.9703 B( 24-C , 66-H ) :   0.9695 B( 25-C , 67-H ) :   0.9760 
B( 25-C , 68-H ) :   0.9828 B( 25-C , 69-H ) :   0.9823 B( 26-C , 27-C ) :   1.2662 
B( 26-C , 70-H ) :   0.9653 B( 27-C , 29-C ) :   1.2058 B( 28-C , 71-H ) :   0.9720 
B( 29-C , 30-C ) :   1.2479 B( 30-C , 32-C ) :   1.2780 B( 31-C , 39-C ) :   1.5871 
B( 31-C , 72-H ) :   0.9681 B( 32-C , 37-C ) :   1.5809 B( 32-C , 73-H ) :   0.9786 
B( 33-C , 34-C ) :   1.3075 B( 33-C , 39-C ) :   1.3045 B( 33-C , 40-C ) :   1.1753 
B( 34-C , 35-C ) :   1.5847 B( 34-C , 74-H ) :   0.9696 B( 35-C , 75-H ) :   0.9681 
B( 36-C , 76-H ) :   0.9768 B( 36-C , 77-H ) :   0.9816 B( 36-C , 78-H ) :   0.9823 
B( 37-C , 38-C ) :   1.2840 B( 37-C , 79-H ) :   0.9764 B( 38-C , 40-C ) :   1.2348 
B( 39-C , 80-H ) :   0.9705 B( 40-C , 41-C ) :   1.2502 B( 41-C , 43-C ) :   1.1845 
B( 42-C , 50-C ) :   1.6333 B( 42-C , 81-H ) :   0.9697 B( 43-C , 48-C ) :   1.6684 
B( 43-C , 82-H ) :   0.9721 B( 44-C , 45-C ) :   1.2630 B( 44-C , 50-C ) :   1.2723 
B( 44-C , 51-C ) :   1.2613 B( 45-C , 46-C ) :   1.6348 B( 45-C , 83-H ) :   0.9718 
B( 46-C , 84-H ) :   0.9700 B( 47-C , 85-H ) :   0.9762 B( 47-C , 86-H ) :   0.9829 
B( 47-C , 87-H ) :   0.9824 B( 48-C , 49-C ) :   1.1879 B( 48-C , 88-H ) :   0.9749 
B( 49-C , 51-C ) :   1.2462 B( 50-C , 89-H ) :   0.9708 B( 54-H , 59-H ) :   0.1203 
B( 60-H , 64-H ) :   0.1296 

-------
TIMINGS
-------

Total SCF time: 0 days 0 hours 27 min 52 sec 

Total time                  ....    1672.244 sec
Sum of individual times     ....    1667.603 sec  ( 99.7%)

Fock matrix formation       ....    1640.471 sec  ( 98.1%)
Diagonalization             ....       8.773 sec  (  0.5%)
Density matrix formation    ....       0.521 sec  (  0.0%)
Population analysis         ....       0.631 sec  (  0.0%)
Initial guess               ....       2.511 sec  (  0.2%)
Orbital Transformation      ....       0.000 sec  (  0.0%)
Orbital Orthonormalization  ....       0.000 sec  (  0.0%)
DIIS solution               ....       3.963 sec  (  0.2%)
SOSCF solution              ....       9.443 sec  (  0.6%)

Maximum memory used throughout the entire SCF-calculation: 302.7 MB


           ************************************************************
           *        Program running with 16 parallel MPI-processes    *
           *              working on a common directory               *
           ************************************************************

------------------------------------------------------------------------------
                                ORCA  MP2 
------------------------------------------------------------------------------

Freezing NCore=104 chemical core electrons

----------
MP2 ENERGY (disk based algorithm)
----------

Dimension of the basis                    ...  918
Memory devoted to MP2                     ... 2000 MB   
Data format for buffers                   ... DOUBLE
Compression type for matrix containers    ... UNCOMPRESSED

-------------------------------
PARTIAL EXCHANGE TRANSFORMATION
-------------------------------

Transformation type                        ... one-operator
Generation of integrals (i,mue|j,nue)      ... ON
Generation of integrals (mue,kappa|nue,tau)... OFF
Generation of integrals (i,mue|a,nue)      ... OFF
Dimension of the basis                     ...  918
Number of internal MOs                     ...  127 (  52- 178)
Pair cutoff                                ... 2.500e-12 Eh
Number of AO pairs in the trafo            ... 421821
Total Number of distinct AO pairs          ... 421821
Memory devoted for trafo                   ... 2000.0 MB 
Max. Number of MO pairs treated together   ...  311      
Number Format for Storage                  ... Double (8 Byte)
Integral package used                      ... LIBINT

Starting integral evaluation:
    ... done with AO integral generation
Closing buffer AOK     (38.16 GB; CompressionRatio= 1.33)
Collecting buffer AOK 
Number of MO pairs included in the trafo   ... 8128
------------------------
SORTING OF (i,mue|j,nue)
------------------------

IBATCH = 1 of  2
IBATCH = 2 of  2
Closing buffer KAO     (51.03 GB; CompressionRatio= 1.00)
Collecting buffer KAO 
N(AO-Batches) Done                         ...  86268924 
N(AO-Batches) Skipped                      ...  82269862 
N(IJ)-pairs Skipped                        ...         0 
TOTAL TIME for half transformation         ...  2974.636 sec
AO-integral generation                     ...   212.726 sec
Half transformation                        ...   423.568 sec
K-integral sorting                         ...  2109.767 sec
Process 10:   Internal MO 132
Process 13:   Internal MO 156

Finished integral transformation - now doing MP2 part

OPERATOR COMBINATION   0   0: ij=( 52..178, 52..178)
Process  1:   Internal MO  60
Process  7:   Internal MO 108
Process  4:   Internal MO  84
Process  0:   Internal MO  54
Process  2:   Internal MO  69
Process  0:   Internal MO  57
Process  1:   Internal MO  63
Process  3:   Internal MO  78
Process  2:   Internal MO  72
Process  5:   Internal MO  93
Process  8:   Internal MO 117
Process  1:   Internal MO  66
Process  6:   Internal MO 102
Process 14:   Internal MO 165
Process  4:   Internal MO  87
Process  2:   Internal MO  75
Process  3:   Internal MO  81
Process 11:   Internal MO 141
Process  9:   Internal MO 126
Process  4:   Internal MO  90
Process 12:   Internal MO 150
Process  5:   Internal MO  96
Process 10:   Internal MO 135
Process  8:   Internal MO 120
Process 15:   Internal MO 174
Process  6:   Internal MO 105
Process  5:   Internal MO  99
Process  7:   Internal MO 111
Process  9:   Internal MO 129
Process 13:   Internal MO 159
Process 11:   Internal MO 144
Process 14:   Internal MO 168
Process  8:   Internal MO 123
Process 12:   Internal MO 153
Process 10:   Internal MO 138
Process  7:   Internal MO 114
Process 15:   Internal MO 177
Process 13:   Internal MO 162
Process 11:   Internal MO 147
Process 14:   Internal MO 171
-----------------------------------------------
 MP2 CORRELATION ENERGY   :     -7.293213863 Eh
-----------------------------------------------


-------
TIMINGS
-------
Total time                : 3272.303 sec
Integral trafo            : 2976.757 sec ( 91.0%)
K(i,j)                    :    8.366 sec (  0.3%)
T(i,j)                    :    0.118 sec (  0.0%)

---------------------------------------
MP2 TOTAL ENERGY:    -2130.740241198 Eh
---------------------------------------

Maximum memory used throughout the entire MP2-calculation: 2275.3 MB

-------------------------   --------------------
FINAL SINGLE POINT ENERGY     -2130.740241198068
-------------------------   --------------------


                            ***************************************
                            *     ORCA property calculations      *
                            ***************************************


  WARNING: The energy has been calculated at the MP2 level but the densities
           used in the property calculations are still SCF densities
           MP2 response densities have not been calculated 
           use %mp2 Density relaxed end
           or  %mp2 Density unrelaxed end

                                    ---------------------
                                    Active property flags
                                    ---------------------
   (+) Dipole Moment


------------------------------------------------------------------------------
                       ORCA ELECTRIC PROPERTIES CALCULATION
------------------------------------------------------------------------------

Dipole Moment Calculation                       ... on
Quadrupole Moment Calculation                   ... off
Polarizability Calculation                      ... off
GBWName                                         ... /scratch/allen/tmpyp4_amber_gaff2/conf1/conf1/Conf179.orca.gbw
Electron density                                ... /scratch/allen/tmpyp4_amber_gaff2/conf1/conf1/Conf179.orca.scfp
The origin for moment calculation is the CENTER OF MASS  = ( 0.003349, -0.001801  0.000414)

-------------
DIPOLE MOMENT
-------------
                                X             Y             Z
Electronic contribution:      2.75625      -4.39798      -0.20343
Nuclear contribution   :      0.06166       0.22902       0.20322
                        -----------------------------------------
Total Dipole Moment    :      2.81791      -4.16897      -0.00021
                        -----------------------------------------
Magnitude (a.u.)       :      5.03199
Magnitude (Debye)      :     12.79029



--------------------
Rotational spectrum 
--------------------
 
Rotational constants in cm-1:     0.001502     0.001480     0.000760 
Rotational constants in MHz :    45.013892    44.359444    22.780483 

 Dipole components along the rotational axes: 
x,y,z [a.u.] :    -3.483022    -3.631727     0.001688 
x,y,z [Debye]:    -8.853138    -9.231116     0.004290 

 

Timings for individual modules:

Sum of individual times         ...     4967.197 sec (=  82.787 min)
GTO integral calculation        ...        3.420 sec (=   0.057 min)   0.1 %
SCF iterations                  ...     1673.466 sec (=  27.891 min)  33.7 %
MP2 module                      ...     3290.311 sec (=  54.839 min)  66.2 %
                             ****ORCA TERMINATED NORMALLY****
TOTAL RUN TIME: 0 days 1 hours 22 minutes 50 seconds 558 msec
# of primitive gaussian functions

