
                                 *****************
                                 * O   R   C   A *
                                 *****************

                                            #,                                       
                                            ###                                      
                                            ####                                     
                                            #####                                    
                                            ######                                   
                                           ########,                                 
                                     ,,################,,,,,                         
                               ,,#################################,,                 
                          ,,##########################################,,             
                       ,#########################################, ''#####,          
                    ,#############################################,,   '####,        
                  ,##################################################,,,,####,       
                ,###########''''           ''''###############################       
              ,#####''   ,,,,##########,,,,          '''####'''          '####       
            ,##' ,,,,###########################,,,                        '##       
           ' ,,###''''                  '''############,,,                           
         ,,##''                                '''############,,,,        ,,,,,,###''
      ,#''                                            '''#######################'''  
     '                                                          ''''####''''         
             ,#######,   #######,   ,#######,      ##                                
            ,#'     '#,  ##    ##  ,#'     '#,    #''#        ######   ,####,        
            ##       ##  ##   ,#'  ##            #'  '#       #        #'  '#        
            ##       ##  #######   ##           ,######,      #####,   #    #        
            '#,     ,#'  ##    ##  '#,     ,#' ,#      #,         ##   #,  ,#        
             '#######'   ##     ##  '#######'  #'      '#     #####' # '####'        



                  #######################################################
                  #                        -***-                        #
                  #          Department of theory and spectroscopy      #
                  #    Directorship and core code : Frank Neese         #
                  #        Max Planck Institute fuer Kohlenforschung    #
                  #                Kaiser Wilhelm Platz 1               #
                  #                 D-45470 Muelheim/Ruhr               #
                  #                      Germany                        #
                  #                                                     #
                  #                  All rights reserved                #
                  #                        -***-                        #
                  #######################################################


                         Program Version 5.0.4 -  RELEASE  -


 With contributions from (in alphabetic order):
   Daniel Aravena         : Magnetic Suceptibility
   Michael Atanasov       : Ab Initio Ligand Field Theory (pilot matlab implementation)
   Alexander A. Auer      : GIAO ZORA, VPT2 properties, NMR spectrum
   Ute Becker             : Parallelization
   Giovanni Bistoni       : ED, misc. LED, open-shell LED, HFLD
   Martin Brehm           : Molecular dynamics
   Dmytro Bykov           : SCF Hessian
   Vijay G. Chilkuri      : MRCI spin determinant printing, contributions to CSF-ICE
   Dipayan Datta          : RHF DLPNO-CCSD density
   Achintya Kumar Dutta   : EOM-CC, STEOM-CC
   Dmitry Ganyushin       : Spin-Orbit,Spin-Spin,Magnetic field MRCI
   Miquel Garcia          : C-PCM and meta-GGA Hessian, CC/C-PCM, Gaussian charge scheme
   Yang Guo               : DLPNO-NEVPT2, F12-NEVPT2, CIM, IAO-localization
   Andreas Hansen         : Spin unrestricted coupled pair/coupled cluster methods
   Benjamin Helmich-Paris : MC-RPA, TRAH-SCF, COSX integrals
   Lee Huntington         : MR-EOM, pCC
   Robert Izsak           : Overlap fitted RIJCOSX, COSX-SCS-MP3, EOM
   Marcus Kettner         : VPT2
   Christian Kollmar      : KDIIS, OOCD, Brueckner-CCSD(T), CCSD density, CASPT2, CASPT2-K
   Simone Kossmann        : Meta GGA functionals, TD-DFT gradient, OOMP2, MP2 Hessian
   Martin Krupicka        : Initial AUTO-CI
   Lucas Lang             : DCDCAS
   Marvin Lechner         : AUTO-CI (C++ implementation), FIC-MRCC
   Dagmar Lenk            : GEPOL surface, SMD
   Dimitrios Liakos       : Extrapolation schemes; Compound Job, initial MDCI parallelization
   Dimitrios Manganas     : Further ROCIS development; embedding schemes
   Dimitrios Pantazis     : SARC Basis sets
   Anastasios Papadopoulos: AUTO-CI, single reference methods and gradients
   Taras Petrenko         : DFT Hessian,TD-DFT gradient, ASA, ECA, R-Raman, ABS, FL, XAS/XES, NRVS
   Peter Pinski           : DLPNO-MP2, DLPNO-MP2 Gradient
   Christoph Reimann      : Effective Core Potentials
   Marius Retegan         : Local ZFS, SOC
   Christoph Riplinger    : Optimizer, TS searches, QM/MM, DLPNO-CCSD(T), (RO)-DLPNO pert. Triples
   Tobias Risthaus        : Range-separated hybrids, TD-DFT gradient, RPA, STAB
   Michael Roemelt        : Original ROCIS implementation
   Masaaki Saitow         : Open-shell DLPNO-CCSD energy and density
   Barbara Sandhoefer     : DKH picture change effects
   Avijit Sen             : IP-ROCIS
   Kantharuban Sivalingam : CASSCF convergence, NEVPT2, FIC-MRCI
   Bernardo de Souza      : ESD, SOC TD-DFT
   Georgi Stoychev        : AutoAux, RI-MP2 NMR, DLPNO-MP2 response
   Willem Van den Heuvel  : Paramagnetic NMR
   Boris Wezisla          : Elementary symmetry handling
   Frank Wennmohs         : Technical directorship


 We gratefully acknowledge several colleagues who have allowed us to
 interface, adapt or use parts of their codes:
   Stefan Grimme, W. Hujo, H. Kruse, P. Pracht,  : VdW corrections, initial TS optimization,
                  C. Bannwarth, S. Ehlert          DFT functionals, gCP, sTDA/sTD-DF
   Ed Valeev, F. Pavosevic, A. Kumar             : LibInt (2-el integral package), F12 methods
   Garnet Chan, S. Sharma, J. Yang, R. Olivares  : DMRG
   Ulf Ekstrom                                   : XCFun DFT Library
   Mihaly Kallay                                 : mrcc  (arbitrary order and MRCC methods)
   Jiri Pittner, Ondrej Demel                    : Mk-CCSD
   Frank Weinhold                                : gennbo (NPA and NBO analysis)
   Christopher J. Cramer and Donald G. Truhlar   : smd solvation model
   Lars Goerigk                                  : TD-DFT with DH, B97 family of functionals
   V. Asgeirsson, H. Jonsson                     : NEB implementation
   FAccTs GmbH                                   : IRC, NEB, NEB-TS, DLPNO-Multilevel, CI-OPT
                                                   MM, QMMM, 2- and 3-layer-ONIOM, Crystal-QMMM,
                                                   LR-CPCM, SF, NACMEs, symmetry and pop. for TD-DFT,
                                                   nearIR, NL-DFT gradient (VV10), updates on ESD,
                                                   ML-optimized integration grids
   S Lehtola, MJT Oliveira, MAL Marques          : LibXC Library
   Liviu Ungur et al                             : ANISO software


 Your calculation uses the libint2 library for the computation of 2-el integrals
 For citations please refer to: http://libint.valeyev.net

 Your ORCA version has been built with support for libXC version: 5.1.0
 For citations please refer to: https://tddft.org/programs/libxc/

 This ORCA versions uses:
   CBLAS   interface :  Fast vector & matrix operations
   LAPACKE interface :  Fast linear algebra routines
   SCALAPACK package :  Parallel linear algebra routines
   Shared memory     :  Shared parallel matrices
   BLAS/LAPACK       :  OpenBLAS 0.3.15  USE64BITINT DYNAMIC_ARCH NO_AFFINITY Sandybridge SINGLE_THREADED
        Core in use  :  Sandybridge
   Copyright (c) 2011-2014, The OpenBLAS Project


================================================================================

----- Orbital basis set information -----
Your calculation utilizes the basis: cc-pVDZ 
       H, B-Ne : Obtained from the ccRepo (grant-hill.group.shef.ac.uk/ccrepo) Feb. 2017
                 T. H. Dunning, Jr., J. Chem. Phys. 90, 1007 (1989)
            He : Obtained from the ccRepo (grant-hill.group.shef.ac.uk/ccrepo) Feb. 2017
                 D. E. Woon, T. H. Dunning, Jr., J. Chem. Phys. 100, 2975 (1994)
  Li-Be, Na-Mg : Obtained from the ccRepo (grant-hill.group.shef.ac.uk/ccrepo) Feb. 2017
                 B. P. Prascher, D. E. Woon, K. A. Peterson, T. H. Dunning, Jr., A. K. Wilson, Theor. Chem. Acc. 128, 69 (2011)
         Al-Ar : Obtained from the ccRepo (grant-hill.group.shef.ac.uk/ccrepo) Feb. 2017
                 D. E. Woon, T. H. Dunning, Jr., J. Chem. Phys. 98, 1358 (1993)
            Ca : Obtained from the Peterson Research Group Website (tyr0.chem.wsu.edu/~kipeters) Feb. 2017
                 J. Koput, K. A. Peterson, J. Phys. Chem. 106, 9595 (2002)
         Sc-Zn : Obtained from the ccRepo (grant-hill.group.shef.ac.uk/ccrepo) Feb. 2017
                 N. B. Balabanov, K. A. Peterson, J. Chem. Phys. 123, 064107 (2005)
                 N. B. Balabanov, K. A. Peterson, J. Chem. Phys. 125, 074110 (2006)
         Ga-Kr : Obtained from the ccRepo (grant-hill.group.shef.ac.uk/ccrepo) Feb. 2017
                 A. K. Wilson, D. E. Woon, K. A. Peterson, T. H. Dunning, Jr., J. Chem. Phys. 110, 7667 (1999)

================================================================================
                                        WARNINGS
                       Please study these warnings very carefully!
================================================================================


WARNING: No MP2 level density has been requested!
         To caclulate MP2 level properties use
         %mp2 Density relaxed end
         or
         %mp2 Density unrelaxed end

WARNING: Post HF methods need fully converged wavefunctions
  ===> : Setting SCFConvForced true
         You can overwrite this default with %scf ConvForced false 


INFO   : the flag for use of the SHARK integral package has been found!

================================================================================
                                       INPUT FILE
================================================================================
NAME = /scratch/allen/tmpyp4_amber_gaff2/2.Mdgx/conf11/conf11/Conf309.orca
|  1> ! PAL2
|  2> ! mp2 cc-pvdz TightSCF  NoKeepInts
|  3> 
|  4> %scf
|  5>   MaxCore 2000
|  6> end
|  7> %mp2
|  8>   MaxCore 2000
|  9> end
| 10> * xyz 0 1
| 11>    C       -3.42100         6.21100         1.02600
| 12>    C        1.47400         4.04100         0.05700
| 13>    C       -2.80200         4.09300         0.04900
| 14>    C       -3.81300         4.29500        -0.90300
| 15>    C       -4.58600         5.43800        -0.86200
| 16>    C       -5.20700         7.60600         0.08800
| 17>    C        0.13200         4.30700         0.06100
| 18>    C       -0.56900         3.05600         0.04700
| 19>    C        1.64900         2.61800         0.02300
| 20>    C       -2.61800         5.08700         1.02300
| 21>    N       -4.38800         6.37500         0.09400
| 22>    N        0.38800         2.06700         0.02500
| 23>    N       -2.01000         0.39500        -0.07500
| 24>    N       -0.38800        -2.07400        -0.02700
| 25>    N        2.01000        -0.40100         0.06500
| 26>    C       -1.96000         2.86100         0.02400
| 27>    C       -2.62300         1.61500        -0.01800
| 28>    C       -5.57300        -4.32900         1.06600
| 29>    C       -4.07300         1.47100         0.05600
| 30>    C       -4.10600        -2.75600        -0.02600
| 31>    C       -4.99500        -2.75700        -1.11100
| 32>    C       -6.13200        -3.54200        -1.07600
| 33>    C       -7.65100        -5.11300         0.04000
| 34>    C       -4.32400         0.14100         0.03700
| 35>    C       -3.02500        -0.52000        -0.04800
| 36>    C       -4.42200        -3.56600         1.07500
| 37>    N       -6.40700        -4.31300         0.00100
| 38>    C       -2.86700        -1.92200        -0.04000
| 39>    C       -1.65000        -2.62400        -0.02700
| 40>    C        3.56800        -6.14200        -1.04000
| 41>    C       -1.47600        -4.04900        -0.03400
| 42>    C        2.80300        -4.09900        -0.00800
| 43>    C        3.65700        -4.38400         1.06900
| 44>    C        4.42700        -5.53000         1.05900
| 45>    C        5.24500        -7.58800         0.01400
| 46>    C       -0.13400        -4.31500        -0.02200
| 47>    C        0.56800        -3.06400        -0.02700
| 48>    C        2.77500        -5.01200        -1.07400
| 49>    N        4.37600        -6.39100         0.01700
| 50>    C        1.95900        -2.86900        -0.00900
| 51>    C        2.62100        -1.62200         0.00900
| 52>    C        5.54300         4.33900        -1.13000
| 53>    C        4.07000        -1.47900        -0.09400
| 54>    C        4.10400         2.75100        -0.02100
| 55>    C        5.02700         2.72900         1.03600
| 56>    C        6.16600         3.50900         0.97800
| 57>    C        7.61900         5.15300        -0.11500
| 58>    C        4.32100        -0.14800        -0.09200
| 59>    C        3.02500         0.51400         0.01500
| 60>    C        4.38700         3.58200        -1.11500
| 61>    C        2.86600         1.91600         0.01300
| 62>    N        6.41300         4.29600        -0.09500
| 63>    H       -3.32300         6.99700         1.76500
| 64>    H        2.27400         4.76600         0.08100
| 65>    H       -3.99700         3.56800        -1.68500
| 66>    H       -5.37100         5.64100        -1.57900
| 67>    H       -4.74500         8.33800        -0.57800
| 68>    H       -6.20900         7.36000        -0.26400
| 69>    H       -5.25500         8.00100         1.10300
| 70>    H       -0.33200         5.28200         0.06900
| 71>    H       -1.86300         4.98300         1.79400
| 72>    H        0.18200         1.07200         0.00500
| 73>    H       -0.18300        -1.08000        -0.02100
| 74>    H       -5.86400        -4.96200         1.89500
| 75>    H       -4.79400         2.27200         0.13900
| 76>    H       -4.80000        -2.16000        -1.99400
| 77>    H       -6.84100        -3.58200        -1.89300
| 78>    H       -8.42800        -4.53600         0.54600
| 79>    H       -7.95600        -5.33700        -0.98100
| 80>    H       -7.45600        -6.03700         0.58400
| 81>    H       -5.28700        -0.34400         0.10000
| 82>    H       -3.78000        -3.60100         1.94700
| 83>    H        3.58700        -6.86800        -1.84300
| 84>    H       -2.27600        -4.77400        -0.05000
| 85>    H        3.71400        -3.72400         1.92600
| 86>    H        5.09200        -5.79500         1.87100
| 87>    H        6.20500        -7.32900        -0.43900
| 88>    H        5.39300        -7.91700         1.04200
| 89>    H        4.75900        -8.37300        -0.56400
| 90>    H        0.32900        -5.29000        -0.00800
| 91>    H        2.14600        -4.84200        -1.94000
| 92>    H        5.80800         4.98600        -1.95600
| 93>    H        4.78800        -2.28100        -0.18500
| 94>    H        4.86000         2.11400         1.91200
| 95>    H        6.90100         3.53100         1.77200
| 96>    H        7.38300         6.10900         0.35600
| 97>    H        8.41400         4.65200         0.43500
| 98>    H        7.92100         5.31000        -1.15000
| 99>    H        5.28300         0.33600        -0.17900
|100>    H        3.72000         3.63200        -1.96700
|101> *
|102> 
|103>                          ****END OF INPUT****
================================================================================

                       ****************************
                       * Single Point Calculation *
                       ****************************

---------------------------------
CARTESIAN COORDINATES (ANGSTROEM)
---------------------------------
  C     -3.421000    6.211000    1.026000
  C      1.474000    4.041000    0.057000
  C     -2.802000    4.093000    0.049000
  C     -3.813000    4.295000   -0.903000
  C     -4.586000    5.438000   -0.862000
  C     -5.207000    7.606000    0.088000
  C      0.132000    4.307000    0.061000
  C     -0.569000    3.056000    0.047000
  C      1.649000    2.618000    0.023000
  C     -2.618000    5.087000    1.023000
  N     -4.388000    6.375000    0.094000
  N      0.388000    2.067000    0.025000
  N     -2.010000    0.395000   -0.075000
  N     -0.388000   -2.074000   -0.027000
  N      2.010000   -0.401000    0.065000
  C     -1.960000    2.861000    0.024000
  C     -2.623000    1.615000   -0.018000
  C     -5.573000   -4.329000    1.066000
  C     -4.073000    1.471000    0.056000
  C     -4.106000   -2.756000   -0.026000
  C     -4.995000   -2.757000   -1.111000
  C     -6.132000   -3.542000   -1.076000
  C     -7.651000   -5.113000    0.040000
  C     -4.324000    0.141000    0.037000
  C     -3.025000   -0.520000   -0.048000
  C     -4.422000   -3.566000    1.075000
  N     -6.407000   -4.313000    0.001000
  C     -2.867000   -1.922000   -0.040000
  C     -1.650000   -2.624000   -0.027000
  C      3.568000   -6.142000   -1.040000
  C     -1.476000   -4.049000   -0.034000
  C      2.803000   -4.099000   -0.008000
  C      3.657000   -4.384000    1.069000
  C      4.427000   -5.530000    1.059000
  C      5.245000   -7.588000    0.014000
  C     -0.134000   -4.315000   -0.022000
  C      0.568000   -3.064000   -0.027000
  C      2.775000   -5.012000   -1.074000
  N      4.376000   -6.391000    0.017000
  C      1.959000   -2.869000   -0.009000
  C      2.621000   -1.622000    0.009000
  C      5.543000    4.339000   -1.130000
  C      4.070000   -1.479000   -0.094000
  C      4.104000    2.751000   -0.021000
  C      5.027000    2.729000    1.036000
  C      6.166000    3.509000    0.978000
  C      7.619000    5.153000   -0.115000
  C      4.321000   -0.148000   -0.092000
  C      3.025000    0.514000    0.015000
  C      4.387000    3.582000   -1.115000
  C      2.866000    1.916000    0.013000
  N      6.413000    4.296000   -0.095000
  H     -3.323000    6.997000    1.765000
  H      2.274000    4.766000    0.081000
  H     -3.997000    3.568000   -1.685000
  H     -5.371000    5.641000   -1.579000
  H     -4.745000    8.338000   -0.578000
  H     -6.209000    7.360000   -0.264000
  H     -5.255000    8.001000    1.103000
  H     -0.332000    5.282000    0.069000
  H     -1.863000    4.983000    1.794000
  H      0.182000    1.072000    0.005000
  H     -0.183000   -1.080000   -0.021000
  H     -5.864000   -4.962000    1.895000
  H     -4.794000    2.272000    0.139000
  H     -4.800000   -2.160000   -1.994000
  H     -6.841000   -3.582000   -1.893000
  H     -8.428000   -4.536000    0.546000
  H     -7.956000   -5.337000   -0.981000
  H     -7.456000   -6.037000    0.584000
  H     -5.287000   -0.344000    0.100000
  H     -3.780000   -3.601000    1.947000
  H      3.587000   -6.868000   -1.843000
  H     -2.276000   -4.774000   -0.050000
  H      3.714000   -3.724000    1.926000
  H      5.092000   -5.795000    1.871000
  H      6.205000   -7.329000   -0.439000
  H      5.393000   -7.917000    1.042000
  H      4.759000   -8.373000   -0.564000
  H      0.329000   -5.290000   -0.008000
  H      2.146000   -4.842000   -1.940000
  H      5.808000    4.986000   -1.956000
  H      4.788000   -2.281000   -0.185000
  H      4.860000    2.114000    1.912000
  H      6.901000    3.531000    1.772000
  H      7.383000    6.109000    0.356000
  H      8.414000    4.652000    0.435000
  H      7.921000    5.310000   -1.150000
  H      5.283000    0.336000   -0.179000
  H      3.720000    3.632000   -1.967000

----------------------------
CARTESIAN COORDINATES (A.U.)
----------------------------
  NO LB      ZA    FRAG     MASS         X           Y           Z
   0 C     6.0000    0    12.011   -6.464753   11.737089    1.938859
   1 C     6.0000    0    12.011    2.785456    7.636383    0.107714
   2 C     6.0000    0    12.011   -5.295013    7.734649    0.092597
   3 C     6.0000    0    12.011   -7.205526    8.116374   -1.706423
   4 C     6.0000    0    12.011   -8.666284   10.276331   -1.628944
   5 C     6.0000    0    12.011   -9.839804   14.373257    0.166296
   6 C     6.0000    0    12.011    0.249444    8.139050    0.115273
   7 C     6.0000    0    12.011   -1.075254    5.775003    0.088817
   8 C     6.0000    0    12.011    3.116158    4.947303    0.043464
   9 C     6.0000    0    12.011   -4.947303    9.613037    1.933190
  10 N     7.0000    0    14.007   -8.292118   12.047004    0.177634
  11 N     7.0000    0    14.007    0.733214    3.906064    0.047243
  12 N     7.0000    0    14.007   -3.798350    0.746442   -0.141729
  13 N     7.0000    0    14.007   -0.733214   -3.919292   -0.051023
  14 N     7.0000    0    14.007    3.798350   -0.757780    0.122832
  15 C     6.0000    0    12.011   -3.703863    5.406506    0.045353
  16 C     6.0000    0    12.011   -4.956752    3.051908   -0.034015
  17 C     6.0000    0    12.011  -10.531444   -8.180624    2.014448
  18 C     6.0000    0    12.011   -7.696855    2.779787    0.105825
  19 C     6.0000    0    12.011   -7.759216   -5.208085   -0.049133
  20 C     6.0000    0    12.011   -9.439182   -5.209975   -2.099486
  21 C     6.0000    0    12.011  -11.587801   -6.693410   -2.033345
  22 C     6.0000    0    12.011  -14.458295   -9.662170    0.075589
  23 C     6.0000    0    12.011   -8.171176    0.266451    0.069920
  24 C     6.0000    0    12.011   -5.716422   -0.982658   -0.090707
  25 C     6.0000    0    12.011   -8.356369   -6.738763    2.031456
  26 N     7.0000    0    14.007  -12.107475   -8.150389    0.001890
  27 C     6.0000    0    12.011   -5.417845   -3.632054   -0.075589
  28 C     6.0000    0    12.011   -3.118048   -4.958641   -0.051023
  29 C     6.0000    0    12.011    6.742543  -11.606698   -1.965315
  30 C     6.0000    0    12.011   -2.789236   -7.651501   -0.064251
  31 C     6.0000    0    12.011    5.296902   -7.745987   -0.015118
  32 C     6.0000    0    12.011    6.910728   -8.284559    2.020117
  33 C     6.0000    0    12.011    8.365818  -10.450186    2.001220
  34 C     6.0000    0    12.011    9.911614  -14.339242    0.026456
  35 C     6.0000    0    12.011   -0.253223   -8.154168   -0.041574
  36 C     6.0000    0    12.011    1.073364   -5.790121   -0.051023
  37 C     6.0000    0    12.011    5.243990   -9.471307   -2.029566
  38 N     7.0000    0    14.007    8.269442  -12.077240    0.032125
  39 C     6.0000    0    12.011    3.701973   -5.421624   -0.017008
  40 C     6.0000    0    12.011    4.952972   -3.065136    0.017008
  41 C     6.0000    0    12.011   10.474752    8.199522   -2.135391
  42 C     6.0000    0    12.011    7.691185   -2.794905   -0.177634
  43 C     6.0000    0    12.011    7.755436    5.198637   -0.039684
  44 C     6.0000    0    12.011    9.499653    5.157063    1.957756
  45 C     6.0000    0    12.011   11.652051    6.631049    1.848152
  46 C     6.0000    0    12.011   14.397823    9.737759   -0.217319
  47 C     6.0000    0    12.011    8.165507   -0.279679   -0.173855
  48 C     6.0000    0    12.011    5.716422    0.971319    0.028346
  49 C     6.0000    0    12.011    8.290229    6.768999   -2.107045
  50 C     6.0000    0    12.011    5.415955    3.620715    0.024566
  51 N     7.0000    0    14.007   12.118814    8.118263   -0.179524
  52 H     1.0000    0     1.008   -6.279560   13.222414    3.335367
  53 H     1.0000    0     1.008    4.297237    9.006435    0.153068
  54 H     1.0000    0     1.008   -7.553235    6.742543   -3.184189
  55 H     1.0000    0     1.008  -10.149719   10.659945   -2.983878
  56 H     1.0000    0     1.008   -8.966751   15.756537   -1.092262
  57 H     1.0000    0     1.008  -11.733310   13.908384   -0.498888
  58 H     1.0000    0     1.008   -9.930511   15.119699    2.084368
  59 H     1.0000    0     1.008   -0.627389    9.981533    0.130391
  60 H     1.0000    0     1.008   -3.520560    9.416505    3.390169
  61 H     1.0000    0     1.008    0.343930    2.025786    0.009449
  62 H     1.0000    0     1.008   -0.345820   -2.040904   -0.039684
  63 H     1.0000    0     1.008  -11.081354   -9.376821    3.581031
  64 H     1.0000    0     1.008   -9.059347    4.293458    0.262672
  65 H     1.0000    0     1.008   -9.070685   -4.081808   -3.768114
  66 H     1.0000    0     1.008  -12.927616   -6.768999   -3.577252
  67 H     1.0000    0     1.008  -15.926612   -8.571798    1.031790
  68 H     1.0000    0     1.008  -15.034661  -10.085468   -1.853821
  69 H     1.0000    0     1.008  -14.089798  -11.408277    1.103600
  70 H     1.0000    0     1.008   -9.990982   -0.650066    0.188973
  71 H     1.0000    0     1.008   -7.143165   -6.804904    3.679297
  72 H     1.0000    0     1.008    6.778448  -12.978639   -3.482765
  73 H     1.0000    0     1.008   -4.301017   -9.021553   -0.094486
  74 H     1.0000    0     1.008    7.018443   -7.037340    3.639613
  75 H     1.0000    0     1.008    9.622485  -10.950963    3.535678
  76 H     1.0000    0     1.008   11.725751  -13.849803   -0.829590
  77 H     1.0000    0     1.008   10.191293  -14.960962    1.969095
  78 H     1.0000    0     1.008    8.993207  -15.822677   -1.065806
  79 H     1.0000    0     1.008    0.621720   -9.996651   -0.015118
  80 H     1.0000    0     1.008    4.055352   -9.150054   -3.666069
  81 H     1.0000    0     1.008   10.975529    9.422175   -3.696304
  82 H     1.0000    0     1.008    9.048009   -4.310465   -0.349599
  83 H     1.0000    0     1.008    9.184069    3.994881    3.613156
  84 H     1.0000    0     1.008   13.041000    6.672623    3.348595
  85 H     1.0000    0     1.008   13.951848   11.544337    0.672743
  86 H     1.0000    0     1.008   15.900156    8.791006    0.822031
  87 H     1.0000    0     1.008   14.968521   10.034446   -2.173185
  88 H     1.0000    0     1.008    9.983423    0.634948   -0.338261
  89 H     1.0000    0     1.008    7.029781    6.863485   -3.717091

--------------------------------
INTERNAL COORDINATES (ANGSTROEM)
--------------------------------
 C      0   0   0     0.000000000000     0.00000000     0.00000000
 C      1   0   0     5.441404781856     0.00000000     0.00000000
 C      1   2   0     2.413216525718    49.24307809     0.00000000
 C      3   1   2     1.403292200506    87.90932888   222.18790442
 C      4   3   1     1.380456084053   120.16288281     0.12343761
 C      5   4   3     2.447113605863   152.52081766     1.66519336
 C      2   1   3     1.368114030335    16.16365822    15.07941375
 C      7   2   1     1.434084376876   108.05010202   218.37833375
 C      2   1   3     1.434123425651   120.64352979   332.67786449
 C      1   2   3     1.381373953714    32.02557924    39.34782326
 N      1   2   3     1.353000000000   124.65339811   305.33576773
 N      9   2   1     1.376127174356   106.58526707    10.63586872
 N     12   9   2     2.925062050624   168.53581413   171.12065651
 N     13  12   9     2.954513327098    91.55032014    11.12112580
 N     14  13  12     2.925371258490    88.43092389   359.84326247
 C      8   7   2     1.404790019896   127.24786865   181.11170171
 C     13  12   9     1.366535034311    81.72106996   188.00453233
 C     14  13  12     5.758810554272    80.56209567   166.76250791
 C     17  13  12     1.459010623676   111.08861209   183.82872609
 C     18  14  13     2.412235892279    27.27532823    36.33507194
 C     20  18  14     1.402692767501    87.95206320   148.94598259
 C     21  20  18     1.382106725257   120.14573887   359.70382047
 C     18  14  13     2.446510985056   144.15733107    82.80075377
 C     19  17  13     1.353610726908   106.29293361   359.75308708
 C     13  12   9     1.366813447402   172.21332906    33.46711076
 C     18  14  13     1.380960173213    15.08449437   309.23336894
 N     22  21  20     1.352773077792   120.73759875     0.27865223
 C     25  13  17     1.410897586645   125.60330303   182.37774668
 C     14  13  12     1.376642291955    80.24689249   177.85461986
 C     14  13  12     5.764089607215   164.51507311   312.20821879
 C     29  14  13     1.435600919476   106.58649366   178.76395472
 C     30  14  13     2.413316804732    27.10625047    82.12560436
 C     32  30  14     1.403734305344    87.90059683   149.76154742
 C     33  32  30     1.380694028378   120.14881443   359.74174632
 C     34  33  32     2.448777858443   152.49203239     2.45173620
 C     31  29  14     1.368160809262   108.16950133     0.70383075
 C     14  13  12     1.376239804685   169.26375223   353.09862627
 C     30  14  13     1.380907310430    14.68948582   353.70041132
 N     34  33  32     1.352658863128   120.85575621     0.19603406
 C     37  14  29     1.404717053360   126.01551127   180.90772073
 C     15  14  13     1.366491126938    81.61824056   183.09049352
 C      2   1   3     4.249062720177   152.03581608   141.88081868
 C     41  15  14     1.459677704153   111.05201287   175.08990246
 C     42   2   1     2.412953791518    41.78584867   165.64419350
 C     44  42   2     1.403446472082    87.95153797   233.97558675
 C     45  44  42     1.381696421071   120.11137308     0.19721020
 C     42   2   1     2.450019795838   135.97209175    75.95904260
 C     43  41  15     1.354461516618   106.26758155     0.30894352
 C     15  14  13     1.367461151185   171.87382904   332.35056460
 C     42   2   1     1.381886391857    32.59078432   214.49947269
 C      9   2   1     1.404988612053   126.98745415   191.64020625
 N     42   2   1     1.352765315936   113.57249190   103.69563180
 H      1   2   3     1.083291742791   109.23555590   160.62659399
 H      2   1   3     1.079907866440   113.24887407   163.09420456
 H      4   3   1     1.083470811790   121.02447530   179.58257150
 H      5   4   3     1.082369160684   122.80166901   179.48476925
 H      6   5   4     1.092164822726   104.46004706   100.10922740
 H      6   5   4     1.090148613722    84.72011626   209.50289076
 H      6   5   4     1.090208236990   133.91540045   322.31282248
 H      7   2   1     1.079807853278   126.66122480    38.61674754
 H     10   1   2     1.084104238531   118.77363998    73.75773130
 H     12   9   2     1.016297692608   125.29023241   180.00180175
 H     14  13  12     1.014936943854    44.97226959   359.42596618
 H     18  14  13     1.082871645210   128.03556573   234.20482432
 H     19  17  13     1.080893611786   126.41830519   178.11313280
 H     21  20  18     1.083569563987   121.05669627   180.67006309
 H     22  21  20     1.082483256222   122.73097286   180.59748951
 H     23  18  14     1.092105306278   103.92715769   234.93429879
 H     23  18  14     1.088871893291   134.19244188    12.25587044
 H     23  18  14     1.089833473518    84.85857450   125.45241208
 H     24  19  17     1.080075460327   127.28078426   178.44613241
 H     26  18  14     1.083408048706   118.76995697   244.94906660
 H     30  14  13     1.082703098730   127.99711412   279.66882698
 H     31  29  14     1.079759695488   125.22293469   180.92530585
 H     33  32  30     1.083188810873   121.01964473   180.74284758
 H     34  33  32     1.082494341787   122.70821597   180.59516895
 H     35  34  33     1.092652735319   105.73575241    97.19771933
 H     35  34  33     1.089462711615    84.05943581   206.43036958
 H     35  34  33     1.089268102902   133.08365142   318.50306270
 H     36  31  29     1.079439669458   126.61599965   178.98859863
 H     38  30  73     1.083742127999   118.77264435   359.90091293
 H     42   2   1     1.082178358682   119.31790784   320.32716225
 H     43  41  15     1.080281907652   126.36969097   182.06329380
 H     45  44  42     1.083277434455   121.10105945   179.58025624
 H     46  45  44     1.082194529648   122.72144639   179.46906377
 H     47  42   2     1.091546151109   106.65128841   315.16475048
 H     47  42   2     1.088818625851   132.46019523    94.52397119
 H     47  42   2     1.089531091801    83.63838232   206.04504406
 H     48  43  41     1.080402239909   127.23657387   181.62955349
 H     50  42   2     1.083186502870   118.77001737    94.71359229

---------------------------
INTERNAL COORDINATES (A.U.)
---------------------------
 C      0   0   0     0.000000000000     0.00000000     0.00000000
 C      1   0   0    10.282764821516     0.00000000     0.00000000
 C      1   2   0     4.560318335461    49.24307809     0.00000000
 C      3   1   2     2.651837944823    87.90932888   222.18790442
 C      4   3   1     2.608683938766   120.16288281     0.12343761
 C      5   4   3     4.624374533674   152.52081766     1.66519336
 C      2   1   3     2.585360837309    16.16365822    15.07941375
 C      7   2   1     2.710026725231   108.05010202   218.37833375
 C      2   1   3     2.710100516721   120.64352979   332.67786449
 C      1   2   3     2.610418461052    32.02557924    39.34782326
 N      1   2   3     2.556799459195   124.65339811   305.33576773
 N      9   2   1     2.600503484979   106.58526707    10.63586872
 N     12   9   2     5.527566200405   168.53581413   171.12065651
 N     13  12   9     5.583221047236    91.55032014    11.12112580
 N     14  13  12     5.528150518591    88.43092389   359.84326247
 C      8   7   2     2.654668413270   127.24786865   181.11170171
 C     13  12   9     2.582376967257    81.72106996   188.00453233
 C     14  13  12    10.882574804710    80.56209567   166.76250791
 C     17  13  12     2.757130505230   111.08861209   183.82872609
 C     18  14  13     4.558465206823    27.27532823    36.33507194
 C     20  18  14     2.650705180609    87.95206320   148.94598259
 C     21  20  18     2.611803198586   120.14573887   359.70382047
 C     18  14  13     4.623235745386   144.15733107    82.80075377
 C     19  17  13     2.557953565794   106.29293361   359.75308708
 C     13  12   9     2.582903091751   172.21332906    33.46711076
 C     18  14  13     2.609636529225    15.08449437   309.23336894
 N     22  21  20     2.556370638369   120.73759875     0.27865223
 C     25  13  17     2.666210041769   125.60330303   182.37774668
 C     14  13  12     2.601476916169    80.24689249   177.85461986
 C     14  13  12    10.892550769017   164.51507311   312.20821879
 C     29  14  13     2.712892575415   106.58649366   178.76395472
 C     30  14  13     4.560507835333    27.10625047    82.12560436
 C     32  30  14     2.652673401891    87.90059683   149.76154742
 C     33  32  30     2.609133588376   120.14881443   359.74174632
 C     34  33  32     4.627519515267   152.49203239     2.45173620
 C     31  29  14     2.585449236669   108.16950133     0.70383075
 C     14  13  12     2.600716325456   169.26375223   353.09862627
 C     30  14  13     2.609536633043    14.68948582   353.70041132
 N     34  33  32     2.556154803934   120.85575621     0.19603406
 C     37  14  29     2.654530526499   126.01551127   180.90772073
 C     15  14  13     2.582293994346    81.61824056   183.09049352
 C      2   1   3     8.029564866989   152.03581608   141.88081868
 C     41  15  14     2.758391104639   111.05201287   175.08990246
 C     42   2   1     4.559821839776    41.78584867   165.64419350
 C     44  42   2     2.652129475853    87.95153797   233.97558675
 C     45  44  42     2.611027836043   120.11137308     0.19721020
 C     42   2   1     4.629866436820   135.97209175    75.95904260
 C     43  41  15     2.559561325344   106.26758155     0.30894352
 C     15  14  13     2.584127074516   171.87382904   332.35056460
 C     42   2   1     2.611386828803    32.59078432   214.49947269
 C      9   2   1     2.655043698059   126.98745415   191.64020625
 N     42   2   1     2.556355970587   113.57249190   103.69563180
 H      1   2   3     2.047124717014   109.23555590   160.62659399
 H      2   1   3     2.040730117440   113.24887407   163.09420456
 H      4   3   1     2.047463108380   121.02447530   179.58257150
 H      5   4   3     2.045381289495   122.80166901   179.48476925
 H      6   5   4     2.063892408055   104.46004706   100.10922740
 H      6   5   4     2.060082325208    84.72011626   209.50289076
 H      6   5   4     2.060194996855   133.91540045   322.31282248
 H      7   2   1     2.040541119952   126.66122480    38.61674754
 H     10   1   2     2.048660111446   118.77363998    73.75773130
 H     12   9   2     1.920524309565   125.29023241   180.00180175
 H     14  13  12     1.917952867083    44.97226959   359.42596618
 H     18  14  13     2.046330847636   128.03556573   234.20482432
 H     19  17  13     2.042592906181   126.41830519   178.11313280
 H     21  20  18     2.047649722989   121.05669627   180.67006309
 H     22  21  20     2.045596898814   122.73097286   180.59748951
 H     23  18  14     2.063779938267   103.92715769   234.93429879
 H     23  18  14     2.057669673245   134.19244188    12.25587044
 H     23  18  14     2.059486796529    84.85857450   125.45241208
 H     24  19  17     2.041046823986   127.28078426   178.44613241
 H     26  18  14     2.047344503340   118.76995697   244.94906660
 H     30  14  13     2.046012340948   127.99711412   279.66882698
 H     31  29  14     2.040450114918   125.22293469   180.92530585
 H     33  32  30     2.046930203877   121.01964473   180.74284758
 H     34  33  32     2.045617847496   122.70821597   180.59516895
 H     35  34  33     2.064814429233   105.73575241    97.19771933
 H     35  34  33     2.058786158072    84.05943581   206.43036958
 H     35  34  33     2.058418400901   133.08365142   318.50306270
 H     36  31  29     2.039845353366   126.61599965   178.98859863
 H     38  30  73     2.047975821711   118.77264435   359.90091293
 H     42   2   1     2.045020725966   119.31790784   320.32716225
 H     43  41  15     2.041436952892   126.36969097   182.06329380
 H     45  44  42     2.047097678177   121.10105945   179.58025624
 H     46  45  44     2.045051284662   122.72144639   179.46906377
 H     47  42   2     2.062723288131   106.65128841   315.16475048
 H     47  42   2     2.057569012371   132.46019523    94.52397119
 H     47  42   2     2.058915377895    83.63838232   206.04504406
 H     48  43  41     2.041664347903   127.23657387   181.62955349
 H     50  42   2     2.046925842384   118.77001737    94.71359229

---------------------
BASIS SET INFORMATION
---------------------
There are 3 groups of distinct atoms

 Group   1 Type C   : 17s4p1d contracted to 3s2p1d pattern {881/31/1}
 Group   2 Type N   : 17s4p1d contracted to 3s2p1d pattern {881/31/1}
 Group   3 Type H   : 4s1p contracted to 2s1p pattern {31/1}

Atom   0C    basis set group =>   1
Atom   1N    basis set group =>   2
Atom   2C    basis set group =>   1
Atom   3N    basis set group =>   2
Atom   4C    basis set group =>   1
Atom   5N    basis set group =>   2
Atom   6C    basis set group =>   1
Atom   7N    basis set group =>   2
Atom   8C    basis set group =>   1
Atom   9N    basis set group =>   2
Atom  10C    basis set group =>   1
Atom  11N    basis set group =>   2
Atom  12C    basis set group =>   1
Atom  13N    basis set group =>   2
Atom  14C    basis set group =>   1
Atom  15N    basis set group =>   2
Atom  16C    basis set group =>   1
Atom  17C    basis set group =>   1
Atom  18C    basis set group =>   1
Atom  19C    basis set group =>   1
Atom  20C    basis set group =>   1
Atom  21C    basis set group =>   1
Atom  22C    basis set group =>   1
Atom  23C    basis set group =>   1
Atom  24C    basis set group =>   1
Atom  25C    basis set group =>   1
Atom  26C    basis set group =>   1
Atom  27C    basis set group =>   1
Atom  28C    basis set group =>   1
Atom  29C    basis set group =>   1
Atom  30C    basis set group =>   1
Atom  31C    basis set group =>   1
Atom  32C    basis set group =>   1
Atom  33C    basis set group =>   1
Atom  34C    basis set group =>   1
Atom  35C    basis set group =>   1
Atom  36C    basis set group =>   1
Atom  37C    basis set group =>   1
Atom  38C    basis set group =>   1
Atom  39C    basis set group =>   1
Atom  40C    basis set group =>   1
Atom  41C    basis set group =>   1
Atom  42C    basis set group =>   1
Atom  43C    basis set group =>   1
Atom  44C    basis set group =>   1
Atom  45C    basis set group =>   1
Atom  46C    basis set group =>   1
Atom  47C    basis set group =>   1
Atom  48C    basis set group =>   1
Atom  49C    basis set group =>   1
Atom  50C    basis set group =>   1
Atom  51C    basis set group =>   1
Atom  52H    basis set group =>   3
Atom  53H    basis set group =>   3
Atom  54H    basis set group =>   3
Atom  55H    basis set group =>   3
Atom  56H    basis set group =>   3
Atom  57H    basis set group =>   3
Atom  58H    basis set group =>   3
Atom  59H    basis set group =>   3
Atom  60H    basis set group =>   3
Atom  61H    basis set group =>   3
Atom  62H    basis set group =>   3
Atom  63H    basis set group =>   3
Atom  64H    basis set group =>   3
Atom  65H    basis set group =>   3
Atom  66H    basis set group =>   3
Atom  67H    basis set group =>   3
Atom  68H    basis set group =>   3
Atom  69H    basis set group =>   3
Atom  70H    basis set group =>   3
Atom  71H    basis set group =>   3
Atom  72H    basis set group =>   3
Atom  73H    basis set group =>   3
Atom  74H    basis set group =>   3
Atom  75H    basis set group =>   3
Atom  76H    basis set group =>   3
Atom  77H    basis set group =>   3
Atom  78H    basis set group =>   3
Atom  79H    basis set group =>   3
Atom  80H    basis set group =>   3
Atom  81H    basis set group =>   3
Atom  82H    basis set group =>   3
Atom  83H    basis set group =>   3
Atom  84H    basis set group =>   3
Atom  85H    basis set group =>   3
Atom  86H    basis set group =>   3
Atom  87H    basis set group =>   3
Atom  88H    basis set group =>   3
Atom  89H    basis set group =>   3


           ************************************************************
           *        Program running with 8 parallel MPI-processes     *
           *              working on a common directory               *
           ************************************************************
------------------------------------------------------------------------------
                           ORCA GTO INTEGRAL CALCULATION
------------------------------------------------------------------------------
------------------------------------------------------------------------------
                   ___                                                        
                  /   \      - P O W E R E D   B Y -                         
                 /     \                                                     
                 |  |  |   _    _      __       _____    __    __             
                 |  |  |  | |  | |    /  \     |  _  \  |  |  /  |          
                  \  \/   | |  | |   /    \    | | | |  |  | /  /          
                 / \  \   | |__| |  /  /\  \   | |_| |  |  |/  /          
                |  |  |   |  __  | /  /__\  \  |    /   |      \           
                |  |  |   | |  | | |   __   |  |    \   |  |\   \          
                \     /   | |  | | |  |  |  |  | |\  \  |  | \   \       
                 \___/    |_|  |_| |__|  |__|  |_| \__\ |__|  \__/        
                                                                              
                      - O R C A' S   B I G   F R I E N D -                    
                                      &                                       
                       - I N T E G R A L  F E E D E R -                       
                                                                              
 v1 FN, 2020, v2 2021                                                         
------------------------------------------------------------------------------


Reading SHARK input file /scratch/chu_02/allen/tmpyp4_amber_gaff2/conf1/conf1/Conf309.orca.SHARKINP.tmp ... ok
----------------------
SHARK INTEGRAL PACKAGE
----------------------

Number of atoms                             ...     90
Number of basis functions                   ...   1230
Number of shells                            ...    738
Maximum angular momentum                    ...      2
Integral batch strategy                     ... SHARK/LIBINT Hybrid
RI-J (if used) integral strategy            ... SPLIT-RIJ (Revised 2003 algorithm where possible)
Printlevel                                  ...      1
Contraction scheme used                     ... PARTIAL GENERAL contraction
Coulomb Range Separation                    ... NOT USED
Exchange Range Separation                   ... NOT USED
Finite Nucleus Model                        ... NOT USED
Auxiliary Coulomb fitting basis             ... NOT available
Auxiliary J/K fitting basis                 ... NOT available
Auxiliary Correlation fitting basis         ... NOT available
Auxiliary 'external' fitting basis          ... NOT available
Integral threshold                          ...     2.500000e-11
Primitive cut-off                           ...     2.500000e-12
Primitive pair pre-selection threshold      ...     2.500000e-12

Calculating pre-screening integrals         ... done (  0.1 sec) Dimension = 738
Calculating pre-screening integrals (ORCA)  ... done (  0.3 sec) Dimension = 426
Organizing shell pair data                  ... done (  0.5 sec)
Shell pair information
Total number of shell pairs                 ...    272691
Shell pairs after pre-screening             ...     71602
Total number of primitive shell pairs       ...    422091
Primitive shell pairs kept                  ...     92378
          la=0 lb=0:  29416 shell pairs
          la=1 lb=0:  25965 shell pairs
          la=1 lb=1:   4699 shell pairs
          la=2 lb=0:   7869 shell pairs
          la=2 lb=1:   3122 shell pairs
          la=2 lb=2:    531 shell pairs

Calculating one electron integrals          ... done (  0.2 sec)
Calculating Nuclear repulsion               ... done (  0.0 sec) ENN=   6226.070704813491 Eh

SHARK setup successfully completed in   1.6 seconds

Maximum memory used throughout the entire GTOINT-calculation: 98.9 MB


           ************************************************************
           *        Program running with 8 parallel MPI-processes     *
           *              working on a common directory               *
           ************************************************************
-------------------------------------------------------------------------------
                                 ORCA SCF
-------------------------------------------------------------------------------

------------
SCF SETTINGS
------------
Hamiltonian:
 Ab initio Hamiltonian  Method          .... Hartree-Fock(GTOs)


General Settings:
 Integral files         IntName         .... /scratch/chu_02/allen/tmpyp4_amber_gaff2/conf1/conf1/Conf309.orca
 Hartree-Fock type      HFTyp           .... RHF
 Total Charge           Charge          ....    0
 Multiplicity           Mult            ....    1
 Number of Electrons    NEL             ....  358
 Basis Dimension        Dim             ....  918
 Nuclear Repulsion      ENuc            ....   6226.0707048135 Eh

Convergence Acceleration:
 DIIS                   CNVDIIS         .... on
   Start iteration      DIISMaxIt       ....    12
   Startup error        DIISStart       ....  0.200000
   # of expansion vecs  DIISMaxEq       ....     5
   Bias factor          DIISBfac        ....   1.050
   Max. coefficient     DIISMaxC        ....  10.000
 Trust-Rad. Augm. Hess. CNVTRAH         .... auto
   Auto Start mean grad. ratio tolernc. ....  1.125000
   Auto Start start iteration           ....    20
   Auto Start num. interpolation iter.  ....    10
   Max. Number of Micro iterations      ....    16
   Max. Number of Macro iterations      .... Maxiter - #DIIS iter
   Number of Davidson start vectors     ....     2
   Converg. threshold I  (grad. norm)   ....   1.000e-05
   Converg. threshold II (energy diff.) ....   1.000e-08
   Grad. Scal. Fac. for Micro threshold ....   0.100
   Minimum threshold for Micro iter.    ....   0.010
   NR start threshold (gradient norm)   ....   0.001
   Initial trust radius                 ....   0.400
   Minimum AH scaling param. (alpha)    ....   1.000
   Maximum AH scaling param. (alpha)    .... 1000.000
   Orbital update algorithm             .... Taylor
   White noise on init. David. guess    .... on
   Maximum white noise                  ....   0.010
   Quad. conv. algorithm                .... NR
 SOSCF                  CNVSOSCF        .... on
   Start iteration      SOSCFMaxIt      ....   150
   Startup grad/error   SOSCFStart      ....  0.003300
 Level Shifting         CNVShift        .... on
   Level shift para.    LevelShift      ....    0.2500
   Turn off err/grad.   ShiftErr        ....    0.0010
 Zerner damping         CNVZerner       .... off
 Static damping         CNVDamp         .... on
   Fraction old density DampFac         ....    0.7000
   Max. Damping (<1)    DampMax         ....    0.9800
   Min. Damping (>=0)   DampMin         ....    0.0000
   Turn off err/grad.   DampErr         ....    0.1000
 Fernandez-Rico         CNVRico         .... off

SCF Procedure:
 Maximum # iterations   MaxIter         ....   125
 SCF integral mode      SCFMode         .... Direct
   Integral package                     .... SHARK and LIBINT hybrid scheme
 Reset frequency        DirectResetFreq ....    20
 Integral Threshold     Thresh          ....  2.500e-11 Eh
 Primitive CutOff       TCut            ....  2.500e-12 Eh

Convergence Tolerance:
 Convergence Check Mode ConvCheckMode   .... Total+1el-Energy
 Convergence forced     ConvForced      .... 1
 Energy Change          TolE            ....  1.000e-08 Eh
 1-El. energy change                    ....  1.000e-05 Eh
 Orbital Gradient       TolG            ....  1.000e-05
 Orbital Rotation angle TolX            ....  1.000e-05
 DIIS Error             TolErr          ....  5.000e-07


Diagonalization of the overlap matrix:
Smallest eigenvalue                        ... 2.250e-04
Time for diagonalization                   ...    0.207 sec
Threshold for overlap eigenvalues          ... 1.000e-08
Number of eigenvalues below threshold      ... 0
Time for construction of square roots      ...    0.121 sec
Total time needed                          ...    0.332 sec

Time for model grid setup =    1.319 sec

------------------------------
INITIAL GUESS: MODEL POTENTIAL
------------------------------
Loading Hartree-Fock densities                     ... done
Calculating cut-offs                               ... done
Initializing the effective Hamiltonian             ... done
Setting up the integral package (SHARK)            ... done
Starting the Coulomb interaction                   ... done (   1.6 sec)
Reading the grid                                   ... done
Mapping shells                                     ... done
Starting the XC term evaluation                    ... done (   0.3 sec)
Transforming the Hamiltonian                       ... done (   0.1 sec)
Diagonalizing the Hamiltonian                      ... done (   0.2 sec)
Back transforming the eigenvectors                 ... done (   0.0 sec)
Now organizing SCF variables                       ... done
                      ------------------
                      INITIAL GUESS DONE (   3.6 sec)
                      ------------------
--------------
SCF ITERATIONS
--------------
ITER       Energy         Delta-E        Max-DP      RMS-DP      [F,P]     Damp
               ***  Starting incremental Fock matrix formation  ***
  0  -2121.6840642433   0.000000000000 0.06889147  0.00120749  0.2327855 0.7000
  1  -2122.3469666460  -0.662902402673 0.05224696  0.00097983  0.1440697 0.7000
                               ***Turning on DIIS***
  2  -2122.7586226855  -0.411656039505 0.11604361  0.00222094  0.0802440 0.0000
  3  -2117.7832276218   4.975395063737 0.03019489  0.00067710  0.0441912 0.0000
  4  -2123.4235323677  -5.640304745948 0.00877404  0.00022719  0.0071664 0.0000
  5  -2123.5982056384  -0.174673270698 0.00510495  0.00013407  0.0049626 0.0000
  6  -2123.5807063180   0.017499320427 0.00339494  0.00008678  0.0019309 0.0000
  7  -2123.6838689381  -0.103162620126 0.00286910  0.00006835  0.0015112 0.0000
  8  -2123.7000671551  -0.016198216967 0.00294604  0.00006409  0.0014044 0.0000
  9  -2123.6656059110   0.034461244133 0.00237401  0.00004387  0.0011084 0.0000
 10  -2123.6782734235  -0.012667512543 0.00489155  0.00008675  0.0008457 0.0000
                      *** Initiating the SOSCF procedure ***
                           *** Shutting down DIIS ***
                      *** Re-Reading the Fockian *** 
                      *** Removing any level shift *** 
ITER      Energy       Delta-E        Grad      Rot      Max-DP    RMS-DP
 11  -2123.56448381   0.1137896124  0.000278  0.000278  0.000282  0.000006
               *** Restarting incremental Fock matrix formation ***
 12  -2123.62863953  -0.0641557141  0.000873  0.005889  0.001107  0.000028
 13  -2123.62870763  -0.0000681031  0.000952  0.025200  0.005091  0.000097
 14  -2123.62880148  -0.0000938530  0.000449  0.002092  0.000515  0.000011
 15  -2123.62881448  -0.0000129964  0.000177  0.002959  0.000765  0.000013
 16  -2123.62882136  -0.0000068807  0.000123  0.004215  0.000767  0.000015
 17  -2123.62882551  -0.0000041534  0.000141  0.003350  0.000485  0.000010
 18  -2123.62882756  -0.0000020468  0.000065  0.001614  0.000224  0.000005
 19  -2123.62882864  -0.0000010769  0.000061  0.000583  0.000166  0.000003
 20  -2123.62882898  -0.0000003462  0.000028  0.000527  0.000135  0.000002
 21  -2123.62882912  -0.0000001389  0.000021  0.000167  0.000060  0.000001
 22  -2123.62882920  -0.0000000836  0.000016  0.000387  0.000097  0.000002
 23  -2123.62882927  -0.0000000630  0.000010  0.000155  0.000050  0.000001
 24  -2123.62882929  -0.0000000182  0.000005  0.000081  0.000027  0.000000
 25  -2123.62882930  -0.0000000111  0.000003  0.000034  0.000016  0.000000
                  ***Gradient check signals convergence***
              ***Rediagonalizing the Fockian in SOSCF/NRSCF***

               *****************************************************
               *                     SUCCESS                       *
               *           SCF CONVERGED AFTER  26 CYCLES          *
               *****************************************************


----------------
TOTAL SCF ENERGY
----------------

Total Energy       :        -2123.62882930 Eh          -57786.87827 eV

Components:
Nuclear Repulsion  :         6226.07070481 Eh          169419.99702 eV
Electronic Energy  :        -8349.69953412 Eh         -227206.87530 eV
One Electron Energy:       -15293.21306052 Eh         -416149.48401 eV
Two Electron Energy:         6943.51352640 Eh          188942.60871 eV

Virial components:
Potential Energy   :        -4245.63748366 Eh         -115529.66935 eV
Kinetic Energy     :         2122.00865435 Eh           57742.79107 eV
Virial Ratio       :            2.00076351


---------------
SCF CONVERGENCE
---------------

  Last Energy change         ...   -5.4479e-09  Tolerance :   1.0000e-08
  Last MAX-Density change    ...    1.0038e-05  Tolerance :   1.0000e-07
  Last RMS-Density change    ...    1.5288e-07  Tolerance :   5.0000e-09
  Last Orbital Gradient      ...    1.8817e-06  Tolerance :   1.0000e-05
  Last Orbital Rotation      ...    3.0227e-05  Tolerance :   1.0000e-05

             **** THE GBW FILE WAS UPDATED (/scratch/chu_02/allen/tmpyp4_amber_gaff2/conf1/conf1/Conf309.orca.gbw) ****
             **** DENSITY /scratch/chu_02/allen/tmpyp4_amber_gaff2/conf1/conf1/Conf309.orca.scfp WAS UPDATED ****
             **** ENERGY FILE WAS UPDATED (/scratch/chu_02/allen/tmpyp4_amber_gaff2/conf1/conf1/Conf309.orca.en.tmp) ****
             **** THE GBW FILE WAS UPDATED (/scratch/chu_02/allen/tmpyp4_amber_gaff2/conf1/conf1/Conf309.orca.gbw) ****
             **** DENSITY /scratch/chu_02/allen/tmpyp4_amber_gaff2/conf1/conf1/Conf309.orca.scfp WAS UPDATED ****
----------------
ORBITAL ENERGIES
----------------

  NO   OCC          E(Eh)            E(eV) 
   0   2.0000     -15.651014      -425.8857 
   1   2.0000     -15.639327      -425.5677 
   2   2.0000     -15.628691      -425.2783 
   3   2.0000     -15.610836      -424.7924 
   4   2.0000     -15.521271      -422.3552 
   5   2.0000     -15.515559      -422.1998 
   6   2.0000     -15.446698      -420.3260 
   7   2.0000     -15.443844      -420.2484 
   8   2.0000     -11.310087      -307.7631 
   9   2.0000     -11.305930      -307.6500 
  10   2.0000     -11.303394      -307.5810 
  11   2.0000     -11.302584      -307.5589 
  12   2.0000     -11.296085      -307.3821 
  13   2.0000     -11.295653      -307.3703 
  14   2.0000     -11.293072      -307.3001 
  15   2.0000     -11.286674      -307.1260 
  16   2.0000     -11.285726      -307.1002 
  17   2.0000     -11.284917      -307.0782 
  18   2.0000     -11.273094      -306.7565 
  19   2.0000     -11.271454      -306.7119 
  20   2.0000     -11.254852      -306.2601 
  21   2.0000     -11.242940      -305.9359 
  22   2.0000     -11.242759      -305.9310 
  23   2.0000     -11.242046      -305.9116 
  24   2.0000     -11.234750      -305.7131 
  25   2.0000     -11.234155      -305.6969 
  26   2.0000     -11.233176      -305.6702 
  27   2.0000     -11.226835      -305.4977 
  28   2.0000     -11.226669      -305.4932 
  29   2.0000     -11.219163      -305.2890 
  30   2.0000     -11.213894      -305.1456 
  31   2.0000     -11.213431      -305.1330 
  32   2.0000     -11.204253      -304.8832 
  33   2.0000     -11.203459      -304.8616 
  34   2.0000     -11.192209      -304.5555 
  35   2.0000     -11.191838      -304.5454 
  36   2.0000     -11.177943      -304.1673 
  37   2.0000     -11.175692      -304.1060 
  38   2.0000     -11.175465      -304.0999 
  39   2.0000     -11.173291      -304.0407 
  40   2.0000     -11.167409      -303.8806 
  41   2.0000     -11.167199      -303.8749 
  42   2.0000     -11.166724      -303.8620 
  43   2.0000     -11.164554      -303.8030 
  44   2.0000     -11.163727      -303.7804 
  45   2.0000     -11.162738      -303.7535 
  46   2.0000     -11.150812      -303.4290 
  47   2.0000     -11.148078      -303.3546 
  48   2.0000     -11.148069      -303.3544 
  49   2.0000     -11.145120      -303.2741 
  50   2.0000     -11.139374      -303.1178 
  51   2.0000     -11.135551      -303.0137 
  52   2.0000      -1.335832       -36.3498 
  53   2.0000      -1.325779       -36.0763 
  54   2.0000      -1.316657       -35.8280 
  55   2.0000      -1.302315       -35.4378 
  56   2.0000      -1.220691       -33.2167 
  57   2.0000      -1.211583       -32.9688 
  58   2.0000      -1.163803       -31.6687 
  59   2.0000      -1.156410       -31.4675 
  60   2.0000      -1.122835       -30.5539 
  61   2.0000      -1.113791       -30.3078 
  62   2.0000      -1.105943       -30.0942 
  63   2.0000      -1.094442       -29.7813 
  64   2.0000      -1.059217       -28.8227 
  65   2.0000      -1.049649       -28.5624 
  66   2.0000      -1.041293       -28.3350 
  67   2.0000      -1.029190       -28.0057 
  68   2.0000      -1.028392       -27.9840 
  69   2.0000      -1.011909       -27.5354 
  70   2.0000      -1.009353       -27.4659 
  71   2.0000      -0.995369       -27.0854 
  72   2.0000      -0.985087       -26.8056 
  73   2.0000      -0.974409       -26.5150 
  74   2.0000      -0.972118       -26.4527 
  75   2.0000      -0.958876       -26.0923 
  76   2.0000      -0.951779       -25.8992 
  77   2.0000      -0.945334       -25.7238 
  78   2.0000      -0.938702       -25.5434 
  79   2.0000      -0.922815       -25.1111 
  80   2.0000      -0.894958       -24.3531 
  81   2.0000      -0.884416       -24.0662 
  82   2.0000      -0.876409       -23.8483 
  83   2.0000      -0.868896       -23.6439 
  84   2.0000      -0.862236       -23.4626 
  85   2.0000      -0.855585       -23.2817 
  86   2.0000      -0.848679       -23.0937 
  87   2.0000      -0.841445       -22.8969 
  88   2.0000      -0.821762       -22.3613 
  89   2.0000      -0.798728       -21.7345 
  90   2.0000      -0.796882       -21.6843 
  91   2.0000      -0.740617       -20.1532 
  92   2.0000      -0.733248       -19.9527 
  93   2.0000      -0.730271       -19.8717 
  94   2.0000      -0.722007       -19.6468 
  95   2.0000      -0.719528       -19.5794 
  96   2.0000      -0.712590       -19.3906 
  97   2.0000      -0.706411       -19.2224 
  98   2.0000      -0.699854       -19.0440 
  99   2.0000      -0.694514       -18.8987 
 100   2.0000      -0.688618       -18.7382 
 101   2.0000      -0.681259       -18.5380 
 102   2.0000      -0.678986       -18.4761 
 103   2.0000      -0.673439       -18.3252 
 104   2.0000      -0.669801       -18.2262 
 105   2.0000      -0.665549       -18.1105 
 106   2.0000      -0.664612       -18.0850 
 107   2.0000      -0.659392       -17.9430 
 108   2.0000      -0.658282       -17.9128 
 109   2.0000      -0.657247       -17.8846 
 110   2.0000      -0.651666       -17.7327 
 111   2.0000      -0.649233       -17.6665 
 112   2.0000      -0.645246       -17.5580 
 113   2.0000      -0.638529       -17.3753 
 114   2.0000      -0.635086       -17.2816 
 115   2.0000      -0.625121       -17.0104 
 116   2.0000      -0.622747       -16.9458 
 117   2.0000      -0.616408       -16.7733 
 118   2.0000      -0.611929       -16.6514 
 119   2.0000      -0.610290       -16.6068 
 120   2.0000      -0.608477       -16.5575 
 121   2.0000      -0.602952       -16.4072 
 122   2.0000      -0.596069       -16.2199 
 123   2.0000      -0.592926       -16.1343 
 124   2.0000      -0.591632       -16.0991 
 125   2.0000      -0.585060       -15.9203 
 126   2.0000      -0.578368       -15.7382 
 127   2.0000      -0.574410       -15.6305 
 128   2.0000      -0.567114       -15.4320 
 129   2.0000      -0.559407       -15.2222 
 130   2.0000      -0.553912       -15.0727 
 131   2.0000      -0.547760       -14.9053 
 132   2.0000      -0.541838       -14.7442 
 133   2.0000      -0.536613       -14.6020 
 134   2.0000      -0.534115       -14.5340 
 135   2.0000      -0.528884       -14.3917 
 136   2.0000      -0.525562       -14.3013 
 137   2.0000      -0.522373       -14.2145 
 138   2.0000      -0.519567       -14.1381 
 139   2.0000      -0.517241       -14.0748 
 140   2.0000      -0.509625       -13.8676 
 141   2.0000      -0.506854       -13.7922 
 142   2.0000      -0.506152       -13.7731 
 143   2.0000      -0.501171       -13.6376 
 144   2.0000      -0.500013       -13.6060 
 145   2.0000      -0.498345       -13.5607 
 146   2.0000      -0.494495       -13.4559 
 147   2.0000      -0.491533       -13.3753 
 148   2.0000      -0.489297       -13.3144 
 149   2.0000      -0.469235       -12.7685 
 150   2.0000      -0.461582       -12.5603 
 151   2.0000      -0.453050       -12.3281 
 152   2.0000      -0.448403       -12.2017 
 153   2.0000      -0.446255       -12.1432 
 154   2.0000      -0.446210       -12.1420 
 155   2.0000      -0.439191       -11.9510 
 156   2.0000      -0.435356       -11.8466 
 157   2.0000      -0.430860       -11.7243 
 158   2.0000      -0.394350       -10.7308 
 159   2.0000      -0.383541       -10.4367 
 160   2.0000      -0.379459       -10.3256 
 161   2.0000      -0.371687       -10.1141 
 162   2.0000      -0.368189       -10.0189 
 163   2.0000      -0.360022        -9.7967 
 164   2.0000      -0.353042        -9.6067 
 165   2.0000      -0.341448        -9.2913 
 166   2.0000      -0.337255        -9.1772 
 167   2.0000      -0.334154        -9.0928 
 168   2.0000      -0.329195        -8.9578 
 169   2.0000      -0.300118        -8.1666 
 170   2.0000      -0.298653        -8.1267 
 171   2.0000      -0.288036        -7.8379 
 172   2.0000      -0.286485        -7.7957 
 173   2.0000      -0.256480        -6.9792 
 174   2.0000      -0.247448        -6.7334 
 175   2.0000      -0.188655        -5.1336 
 176   2.0000      -0.178651        -4.8614 
 177   2.0000      -0.068481        -1.8635 
 178   2.0000      -0.055719        -1.5162 
 179   0.0000       0.030106         0.8192 
 180   0.0000       0.069774         1.8987 
 181   0.0000       0.092869         2.5271 
 182   0.0000       0.100080         2.7233 
 183   0.0000       0.125800         3.4232 
 184   0.0000       0.133842         3.6420 
 185   0.0000       0.141691         3.8556 
 186   0.0000       0.154161         4.1949 
 187   0.0000       0.155997         4.2449 
 188   0.0000       0.161761         4.4017 
 189   0.0000       0.162484         4.4214 
 190   0.0000       0.167755         4.5649 
 191   0.0000       0.176310         4.7976 
 192   0.0000       0.195696         5.3251 
 193   0.0000       0.199091         5.4175 
 194   0.0000       0.201978         5.4961 
 195   0.0000       0.205619         5.5952 
 196   0.0000       0.207870         5.6564 
 197   0.0000       0.210907         5.7391 
 198   0.0000       0.215928         5.8757 
 199   0.0000       0.220777         6.0077 
 200   0.0000       0.230581         6.2744 
 201   0.0000       0.237071         6.4510 
 202   0.0000       0.241874         6.5817 
 203   0.0000       0.248251         6.7552 
 204   0.0000       0.250771         6.8238 
 205   0.0000       0.253979         6.9111 
 206   0.0000       0.255914         6.9638 
 207   0.0000       0.259154         7.0520 
 208   0.0000       0.263236         7.1630 
 209   0.0000       0.263979         7.1832 
 210   0.0000       0.266896         7.2626 
 211   0.0000       0.269895         7.3442 
 212   0.0000       0.271336         7.3834 
 213   0.0000       0.275275         7.4906 
 214   0.0000       0.277856         7.5609 
 215   0.0000       0.279589         7.6080 
 216   0.0000       0.281370         7.6565 
 217   0.0000       0.282079         7.6758 
 218   0.0000       0.285734         7.7752 
 219   0.0000       0.286881         7.8064 
 220   0.0000       0.290544         7.9061 
 221   0.0000       0.292295         7.9537 
 222   0.0000       0.293466         7.9856 
 223   0.0000       0.295178         8.0322 
 224   0.0000       0.298855         8.1322 
 225   0.0000       0.300887         8.1876 
 226   0.0000       0.305029         8.3003 
 227   0.0000       0.307335         8.3630 
 228   0.0000       0.308721         8.4007 
 229   0.0000       0.311671         8.4810 
 230   0.0000       0.314921         8.5694 
 231   0.0000       0.319548         8.6953 
 232   0.0000       0.324785         8.8379 
 233   0.0000       0.329326         8.9614 
 234   0.0000       0.332291         9.0421 
 235   0.0000       0.338929         9.2227 
 236   0.0000       0.355482         9.6732 
 237   0.0000       0.385173        10.4811 
 238   0.0000       0.395368        10.7585 
 239   0.0000       0.399541        10.8721 
 240   0.0000       0.405220        11.0266 
 241   0.0000       0.412670        11.2293 
 242   0.0000       0.420208        11.4344 
 243   0.0000       0.424272        11.5450 
 244   0.0000       0.429510        11.6876 
 245   0.0000       0.431862        11.7516 
 246   0.0000       0.433669        11.8007 
 247   0.0000       0.438165        11.9231 
 248   0.0000       0.440508        11.9868 
 249   0.0000       0.443970        12.0810 
 250   0.0000       0.448388        12.2013 
 251   0.0000       0.455376        12.3914 
 252   0.0000       0.456405        12.4194 
 253   0.0000       0.464222        12.6321 
 254   0.0000       0.470314        12.7979 
 255   0.0000       0.474809        12.9202 
 256   0.0000       0.482917        13.1408 
 257   0.0000       0.485421        13.2090 
 258   0.0000       0.493065        13.4170 
 259   0.0000       0.496103        13.4997 
 260   0.0000       0.500437        13.6176 
 261   0.0000       0.502653        13.6779 
 262   0.0000       0.507125        13.7996 
 263   0.0000       0.510374        13.8880 
 264   0.0000       0.510845        13.9008 
 265   0.0000       0.515003        14.0140 
 266   0.0000       0.518240        14.1020 
 267   0.0000       0.522594        14.2205 
 268   0.0000       0.535815        14.5803 
 269   0.0000       0.538044        14.6409 
 270   0.0000       0.541896        14.7457 
 271   0.0000       0.544505        14.8167 
 272   0.0000       0.545725        14.8499 
 273   0.0000       0.553702        15.0670 
 274   0.0000       0.560161        15.2428 
 275   0.0000       0.564677        15.3656 
 276   0.0000       0.572938        15.5904 
 277   0.0000       0.578693        15.7470 
 278   0.0000       0.579800        15.7772 
 279   0.0000       0.584796        15.9131 
 280   0.0000       0.586487        15.9591 
 281   0.0000       0.590802        16.0766 
 282   0.0000       0.593622        16.1533 
 283   0.0000       0.597248        16.2519 
 284   0.0000       0.599767        16.3205 
 285   0.0000       0.600474        16.3397 
 286   0.0000       0.606367        16.5001 
 287   0.0000       0.609420        16.5832 
 288   0.0000       0.611578        16.6419 
 289   0.0000       0.617026        16.7901 
 290   0.0000       0.621074        16.9003 
 291   0.0000       0.627696        17.0805 
 292   0.0000       0.637528        17.3480 
 293   0.0000       0.638092        17.3634 
 294   0.0000       0.644514        17.5381 
 295   0.0000       0.650931        17.7127 
 296   0.0000       0.656099        17.8534 
 297   0.0000       0.659058        17.9339 
 298   0.0000       0.661736        18.0068 
 299   0.0000       0.664362        18.0782 
 300   0.0000       0.670524        18.2459 
 301   0.0000       0.671603        18.2752 
 302   0.0000       0.679763        18.4973 
 303   0.0000       0.682296        18.5662 
 304   0.0000       0.685197        18.6452 
 305   0.0000       0.685523        18.6540 
 306   0.0000       0.690550        18.7908 
 307   0.0000       0.691280        18.8107 
 308   0.0000       0.697369        18.9764 
 309   0.0000       0.699390        19.0314 
 310   0.0000       0.703041        19.1307 
 311   0.0000       0.704892        19.1811 
 312   0.0000       0.706436        19.2231 
 313   0.0000       0.707960        19.2646 
 314   0.0000       0.712305        19.3828 
 315   0.0000       0.714164        19.4334 
 316   0.0000       0.716552        19.4984 
 317   0.0000       0.718264        19.5450 
 318   0.0000       0.719905        19.5896 
 319   0.0000       0.722387        19.6571 
 320   0.0000       0.727634        19.7999 
 321   0.0000       0.730276        19.8718 
 322   0.0000       0.732067        19.9206 
 323   0.0000       0.733510        19.9598 
 324   0.0000       0.739179        20.1141 
 325   0.0000       0.742703        20.2100 
 326   0.0000       0.743441        20.2301 
 327   0.0000       0.745235        20.2789 
 328   0.0000       0.746487        20.3129 
 329   0.0000       0.748799        20.3759 
 330   0.0000       0.753068        20.4920 
 331   0.0000       0.754946        20.5431 
 332   0.0000       0.757623        20.6160 
 333   0.0000       0.762927        20.7603 
 334   0.0000       0.765130        20.8202 
 335   0.0000       0.773557        21.0496 
 336   0.0000       0.776285        21.1238 
 337   0.0000       0.780598        21.2412 
 338   0.0000       0.785578        21.3767 
 339   0.0000       0.787568        21.4308 
 340   0.0000       0.789331        21.4788 
 341   0.0000       0.792930        21.5767 
 342   0.0000       0.796533        21.6748 
 343   0.0000       0.800786        21.7905 
 344   0.0000       0.804406        21.8890 
 345   0.0000       0.807043        21.9608 
 346   0.0000       0.810363        22.0511 
 347   0.0000       0.810924        22.0664 
 348   0.0000       0.813850        22.1460 
 349   0.0000       0.816527        22.2188 
 350   0.0000       0.819764        22.3069 
 351   0.0000       0.824364        22.4321 
 352   0.0000       0.825949        22.4752 
 353   0.0000       0.827511        22.5177 
 354   0.0000       0.829595        22.5744 
 355   0.0000       0.831250        22.6195 
 356   0.0000       0.832733        22.6598 
 357   0.0000       0.834945        22.7200 
 358   0.0000       0.837893        22.8002 
 359   0.0000       0.838752        22.8236 
 360   0.0000       0.840490        22.8709 
 361   0.0000       0.841365        22.8947 
 362   0.0000       0.842180        22.9169 
 363   0.0000       0.845423        23.0051 
 364   0.0000       0.846884        23.0449 
 365   0.0000       0.848400        23.0861 
 366   0.0000       0.851471        23.1697 
 367   0.0000       0.855419        23.2771 
 368   0.0000       0.859518        23.3887 
 369   0.0000       0.863297        23.4915 
 370   0.0000       0.864669        23.5289 
 371   0.0000       0.869770        23.6676 
 372   0.0000       0.873089        23.7580 
 373   0.0000       0.878901        23.9161 
 374   0.0000       0.879359        23.9286 
 375   0.0000       0.880995        23.9731 
 376   0.0000       0.884472        24.0677 
 377   0.0000       0.888337        24.1729 
 378   0.0000       0.892831        24.2952 
 379   0.0000       0.894081        24.3292 
 380   0.0000       0.898620        24.4527 
 381   0.0000       0.899797        24.4847 
 382   0.0000       0.903553        24.5869 
 383   0.0000       0.903950        24.5977 
 384   0.0000       0.904312        24.6076 
 385   0.0000       0.906217        24.6594 
 386   0.0000       0.908754        24.7285 
 387   0.0000       0.910734        24.7823 
 388   0.0000       0.912009        24.8170 
 389   0.0000       0.914955        24.8972 
 390   0.0000       0.917845        24.9758 
 391   0.0000       0.919712        25.0266 
 392   0.0000       0.922987        25.1157 
 393   0.0000       0.926946        25.2235 
 394   0.0000       0.927026        25.2257 
 395   0.0000       0.930850        25.3297 
 396   0.0000       0.934054        25.4169 
 397   0.0000       0.935995        25.4697 
 398   0.0000       0.937147        25.5011 
 399   0.0000       0.942048        25.6344 
 400   0.0000       0.942539        25.6478 
 401   0.0000       0.946415        25.7533 
 402   0.0000       0.949606        25.8401 
 403   0.0000       0.952962        25.9314 
 404   0.0000       0.954938        25.9852 
 405   0.0000       0.957714        26.0607 
 406   0.0000       0.960201        26.1284 
 407   0.0000       0.962678        26.1958 
 408   0.0000       0.965705        26.2782 
 409   0.0000       0.971134        26.4259 
 410   0.0000       0.975184        26.5361 
 411   0.0000       0.976488        26.5716 
 412   0.0000       0.982051        26.7230 
 413   0.0000       0.985420        26.8146 
 414   0.0000       0.988500        26.8984 
 415   0.0000       0.990604        26.9557 
 416   0.0000       0.999595        27.2004 
 417   0.0000       1.001724        27.2583 
 418   0.0000       1.006852        27.3978 
 419   0.0000       1.014719        27.6119 
 420   0.0000       1.022909        27.8348 
 421   0.0000       1.026213        27.9247 
 422   0.0000       1.032033        28.0830 
 423   0.0000       1.039561        28.2879 
 424   0.0000       1.045209        28.4416 
 425   0.0000       1.048500        28.5311 
 426   0.0000       1.053596        28.6698 
 427   0.0000       1.062823        28.9209 
 428   0.0000       1.064595        28.9691 
 429   0.0000       1.071092        29.1459 
 430   0.0000       1.076992        29.3064 
 431   0.0000       1.080663        29.4063 
 432   0.0000       1.085161        29.5287 
 433   0.0000       1.089497        29.6467 
 434   0.0000       1.098081        29.8803 
 435   0.0000       1.105032        30.0694 
 436   0.0000       1.108398        30.1611 
 437   0.0000       1.109602        30.1938 
 438   0.0000       1.116068        30.3698 
 439   0.0000       1.117441        30.4071 
 440   0.0000       1.120688        30.4955 
 441   0.0000       1.124613        30.6023 
 442   0.0000       1.129247        30.7284 
 443   0.0000       1.130308        30.7572 
 444   0.0000       1.133592        30.8466 
 445   0.0000       1.134432        30.8695 
 446   0.0000       1.135378        30.8952 
 447   0.0000       1.141033        31.0491 
 448   0.0000       1.143697        31.1216 
 449   0.0000       1.146441        31.1962 
 450   0.0000       1.151474        31.3332 
 451   0.0000       1.153916        31.3997 
 452   0.0000       1.154153        31.4061 
 453   0.0000       1.156201        31.4618 
 454   0.0000       1.159804        31.5599 
 455   0.0000       1.167861        31.7791 
 456   0.0000       1.173240        31.9255 
 457   0.0000       1.177397        32.0386 
 458   0.0000       1.181134        32.1403 
 459   0.0000       1.184818        32.2405 
 460   0.0000       1.188271        32.3345 
 461   0.0000       1.191149        32.4128 
 462   0.0000       1.201176        32.6857 
 463   0.0000       1.203347        32.7447 
 464   0.0000       1.206943        32.8426 
 465   0.0000       1.207598        32.8604 
 466   0.0000       1.214276        33.0421 
 467   0.0000       1.215918        33.0868 
 468   0.0000       1.221438        33.2370 
 469   0.0000       1.230072        33.4720 
 470   0.0000       1.231726        33.5170 
 471   0.0000       1.234171        33.5835 
 472   0.0000       1.235329        33.6150 
 473   0.0000       1.238423        33.6992 
 474   0.0000       1.242283        33.8043 
 475   0.0000       1.247183        33.9376 
 476   0.0000       1.251281        34.0491 
 477   0.0000       1.252728        34.0885 
 478   0.0000       1.254029        34.1239 
 479   0.0000       1.256358        34.1872 
 480   0.0000       1.259740        34.2793 
 481   0.0000       1.264212        34.4010 
 482   0.0000       1.268708        34.5233 
 483   0.0000       1.271959        34.6118 
 484   0.0000       1.274500        34.6809 
 485   0.0000       1.275709        34.7138 
 486   0.0000       1.280922        34.8557 
 487   0.0000       1.284301        34.9476 
 488   0.0000       1.289182        35.0804 
 489   0.0000       1.291253        35.1368 
 490   0.0000       1.293504        35.1980 
 491   0.0000       1.301415        35.4133 
 492   0.0000       1.302039        35.4303 
 493   0.0000       1.310547        35.6618 
 494   0.0000       1.312132        35.7049 
 495   0.0000       1.314453        35.7681 
 496   0.0000       1.316561        35.8254 
 497   0.0000       1.321286        35.9540 
 498   0.0000       1.324826        36.0504 
 499   0.0000       1.330069        36.1930 
 500   0.0000       1.333687        36.2915 
 501   0.0000       1.337828        36.4042 
 502   0.0000       1.341871        36.5142 
 503   0.0000       1.346040        36.6276 
 504   0.0000       1.350163        36.7398 
 505   0.0000       1.353043        36.8182 
 506   0.0000       1.354111        36.8472 
 507   0.0000       1.355217        36.8773 
 508   0.0000       1.359839        37.0031 
 509   0.0000       1.362538        37.0765 
 510   0.0000       1.366158        37.1751 
 511   0.0000       1.368110        37.2282 
[...]
 76 H s       :     0.889884  s :     0.889884
      pz      :     0.022011  p :     0.079632
      px      :     0.043393
      py      :     0.014227
 77 H s       :     0.887807  s :     0.887807
      pz      :     0.047729  p :     0.079003
      px      :     0.015015
      py      :     0.016259
 78 H s       :     0.888226  s :     0.888226
      pz      :     0.025753  p :     0.078945
      px      :     0.020527
      py      :     0.032664
 79 H s       :     0.909355  s :     0.909355
      pz      :     0.022014  p :     0.086607
      px      :     0.021738
      py      :     0.042855
 80 H s       :     0.869050  s :     0.869050
      pz      :     0.039016  p :     0.084321
      px      :     0.030032
      py      :     0.015273
 81 H s       :     0.887154  s :     0.887154
      pz      :     0.037773  p :     0.083950
      px      :     0.016160
      py      :     0.030017
 82 H s       :     0.915565  s :     0.915565
      pz      :     0.022086  p :     0.086814
      px      :     0.031434
      py      :     0.033294
 83 H s       :     0.873092  s :     0.873092
      pz      :     0.039240  p :     0.084006
      px      :     0.015265
      py      :     0.029501
 84 H s       :     0.887161  s :     0.887161
      pz      :     0.035771  p :     0.083631
      px      :     0.031709
      py      :     0.016151
 85 H s       :     0.893581  s :     0.893581
      pz      :     0.022492  p :     0.079743
      px      :     0.014088
      py      :     0.043162
 86 H s       :     0.890930  s :     0.890930
      pz      :     0.024723  p :     0.078843
      px      :     0.032984
      py      :     0.021136
 87 H s       :     0.890123  s :     0.890123
      pz      :     0.047978  p :     0.078711
      px      :     0.015601
      py      :     0.015132
 88 H s       :     0.912928  s :     0.912928
      pz      :     0.021960  p :     0.086986
      px      :     0.042630
      py      :     0.022396
 89 H s       :     0.871839  s :     0.871839
      pz      :     0.037930  p :     0.083881
      px      :     0.030490
      py      :     0.015461


                      *****************************
                      * MAYER POPULATION ANALYSIS *
                      *****************************

  NA   - Mulliken gross atomic population
  ZA   - Total nuclear charge
  QA   - Mulliken gross atomic charge
  VA   - Mayer's total valence
  BVA  - Mayer's bonded valence
  FA   - Mayer's free valence

  ATOM       NA         ZA         QA         VA         BVA        FA
  0 C      5.7954     6.0000     0.2046     3.8357     3.8357    -0.0000
  1 N      7.4476     7.0000    -0.4476     3.3485     3.3485     0.0000
  2 C      6.0645     6.0000    -0.0645     3.9191     3.9191    -0.0000
  3 N      7.3368     7.0000    -0.3368     3.4508     3.4508    -0.0000
  4 C      6.0654     6.0000    -0.0654     3.9842     3.9842     0.0000
  5 N      7.5612     7.0000    -0.5612     3.0897     3.0897    -0.0000
  6 C      6.0784     6.0000    -0.0784     4.0033     4.0033     0.0000
  7 N      7.3390     7.0000    -0.3390     3.4383     3.4383     0.0000
  8 C      5.7977     6.0000     0.2023     3.8327     3.8327    -0.0000
  9 N      7.5628     7.0000    -0.5628     3.0821     3.0821    -0.0000
 10 C      5.8835     6.0000     0.1165     3.9013     3.9013     0.0000
 11 N      7.4373     7.0000    -0.4373     3.3845     3.3845     0.0000
 12 C      6.0731     6.0000    -0.0731     3.9177     3.9177    -0.0000
 13 N      7.4361     7.0000    -0.4361     3.3967     3.3967     0.0000
 14 C      5.7650     6.0000     0.2350     3.7869     3.7869     0.0000
 15 N      7.4410     7.0000    -0.4410     3.3709     3.3709     0.0000
 16 C      5.7679     6.0000     0.2321     3.7856     3.7856    -0.0000
 17 C      6.0848     6.0000    -0.0848     4.0025     4.0025     0.0000
 18 C      6.1925     6.0000    -0.1925     3.7626     3.7626     0.0000
 19 C      5.7769     6.0000     0.2231     3.8707     3.8707     0.0000
 20 C      5.7889     6.0000     0.2111     3.8263     3.8263    -0.0000
 21 C      6.0821     6.0000    -0.0821     3.9089     3.9089    -0.0000
 22 C      6.0868     6.0000    -0.0868     3.9828     3.9828    -0.0000
 23 C      6.0455     6.0000    -0.0455     3.9909     3.9909    -0.0000
 24 C      5.7976     6.0000     0.2024     3.8225     3.8225     0.0000
 25 C      5.8862     6.0000     0.1138     3.8896     3.8896     0.0000
 26 C      6.0734     6.0000    -0.0734     3.9043     3.9043     0.0000
 27 C      5.7823     6.0000     0.2177     3.8759     3.8759    -0.0000
 28 C      6.0554     6.0000    -0.0554     3.9882     3.9882    -0.0000
 29 C      6.1829     6.0000    -0.1829     3.7387     3.7387    -0.0000
 30 C      5.7608     6.0000     0.2392     3.7947     3.7947    -0.0000
 31 C      5.7816     6.0000     0.2184     3.8240     3.8240     0.0000
 32 C      6.0636     6.0000    -0.0636     3.9200     3.9200    -0.0000
 33 C      6.0741     6.0000    -0.0741     3.9807     3.9807    -0.0000
 34 C      6.0497     6.0000    -0.0497     3.9892     3.9892     0.0000
 35 C      5.7880     6.0000     0.2120     3.8221     3.8221    -0.0000
 36 C      5.8880     6.0000     0.1120     3.8856     3.8856    -0.0000
 37 C      6.0657     6.0000    -0.0657     3.9176     3.9176    -0.0000
 38 C      5.7644     6.0000     0.2356     3.8005     3.8005    -0.0000
 39 C      6.0607     6.0000    -0.0607     3.9883     3.9883     0.0000
 40 C      6.1858     6.0000    -0.1858     3.7361     3.7361     0.0000
 41 C      5.7784     6.0000     0.2216     3.8827     3.8827    -0.0000
 42 C      5.7994     6.0000     0.2006     3.8270     3.8270    -0.0000
 43 C      6.0734     6.0000    -0.0734     3.9019     3.9019    -0.0000
 44 C      6.0898     6.0000    -0.0898     3.9855     3.9855    -0.0000
 45 C      6.0561     6.0000    -0.0561     3.9924     3.9924     0.0000
 46 C      5.7941     6.0000     0.2059     3.8269     3.8269    -0.0000
 47 C      5.8843     6.0000     0.1157     3.8938     3.8938     0.0000
 48 C      6.0723     6.0000    -0.0723     3.9059     3.9059     0.0000
 49 C      5.7696     6.0000     0.2304     3.8881     3.8881     0.0000
 50 C      6.0504     6.0000    -0.0504     3.9905     3.9905    -0.0000
 51 C      6.1912     6.0000    -0.1912     3.7369     3.7369    -0.0000
 52 H      0.9515     1.0000     0.0485     0.9855     0.9855     0.0000
 53 H      1.0150     1.0000    -0.0150     0.9987     0.9987     0.0000
 54 H      0.9548     1.0000     0.0452     1.0113     1.0113     0.0000
 55 H      0.9534     1.0000     0.0466     0.9862     0.9862    -0.0000
 56 H      0.9459     1.0000     0.0541     0.9707     0.9707     0.0000
 57 H      0.9471     1.0000     0.0529     0.9827     0.9827     0.0000
 58 H      0.9477     1.0000     0.0523     0.9858     0.9858    -0.0000
 59 H      1.0079     1.0000    -0.0079     1.0015     1.0015    -0.0000
 60 H      0.9539     1.0000     0.0461     1.0082     1.0082    -0.0000
 61 H      0.8281     1.0000     0.1719     1.0422     1.0422    -0.0000
 62 H      0.8260     1.0000     0.1740     1.0435     1.0435    -0.0000
 63 H      0.9429     1.0000     0.0571     0.9853     0.9853    -0.0000
 64 H      1.0140     1.0000    -0.0140     0.9956     0.9956     0.0000
 65 H      0.9532     1.0000     0.0468     1.0095     1.0095    -0.0000
 66 H      0.9425     1.0000     0.0575     0.9851     0.9851    -0.0000
 67 H      0.9365     1.0000     0.0635     0.9720     0.9720     0.0000
 68 H      0.9418     1.0000     0.0582     0.9868     0.9868     0.0000
 69 H      0.9415     1.0000     0.0585     0.9830     0.9830    -0.0000
 70 H      1.0261     1.0000    -0.0261     0.9933     0.9933     0.0000
 71 H      0.9523     1.0000     0.0477     1.0063     1.0063    -0.0000
 72 H      0.9382     1.0000     0.0618     0.9845     0.9845    -0.0000
 73 H      1.0119     1.0000    -0.0119     0.9994     0.9994    -0.0000
 74 H      0.9484     1.0000     0.0516     1.0101     1.0101     0.0000
 75 H      0.9392     1.0000     0.0608     0.9850     0.9850     0.0000
 76 H      0.9334     1.0000     0.0666     0.9718     0.9718     0.0000
 77 H      0.9384     1.0000     0.0616     0.9852     0.9852    -0.0000
 78 H      0.9392     1.0000     0.0608     0.9849     0.9849    -0.0000
 79 H      1.0145     1.0000    -0.0145     0.9989     0.9989     0.0000
 80 H      0.9480     1.0000     0.0520     1.0071     1.0071     0.0000
 81 H      0.9464     1.0000     0.0536     0.9855     0.9855    -0.0000
 82 H      1.0244     1.0000    -0.0244     0.9938     0.9938    -0.0000
 83 H      0.9579     1.0000     0.0421     1.0089     1.0089     0.0000
 84 H      0.9469     1.0000     0.0531     0.9854     0.9854    -0.0000
 85 H      0.9406     1.0000     0.0594     0.9716     0.9716    -0.0000
 86 H      0.9442     1.0000     0.0558     0.9839     0.9839    -0.0000
 87 H      0.9433     1.0000     0.0567     0.9856     0.9856     0.0000
 88 H      1.0193     1.0000    -0.0193     0.9953     0.9953     0.0000
 89 H      0.9543     1.0000     0.0457     1.0069     1.0069    -0.0000

  Mayer bond orders larger than 0.100000
B(  0-C ,  1-N ) :   1.1032 B(  0-C , 17-C ) :   1.6674 B(  0-C , 52-H ) :   0.9688 
B(  1-N ,  8-C ) :   1.0981 B(  1-N , 10-C ) :   0.9701 B(  2-C , 12-C ) :   1.5275 
B(  2-C , 16-C ) :   1.3339 B(  2-C , 53-H ) :   0.9774 B(  3-N , 14-C ) :   1.2096 
B(  3-N , 16-C ) :   1.1938 B(  3-N , 61-H ) :   0.8990 B(  4-C ,  6-C ) :   1.2403 
B(  4-C , 17-C ) :   1.2375 B(  4-C , 18-C ) :   1.3374 B(  5-N , 19-C ) :   1.4338 
B(  5-N , 27-C ) :   1.3945 B(  6-C ,  8-C ) :   1.6676 B(  6-C , 54-H ) :   0.9692 
B(  7-N , 30-C ) :   1.1932 B(  7-N , 38-C ) :   1.1982 B(  7-N , 62-H ) :   0.8976 
B(  8-C , 55-H ) :   0.9702 B(  9-N , 41-C ) :   1.4010 B(  9-N , 49-C ) :   1.4219 
B( 10-C , 56-H ) :   0.9763 B( 10-C , 57-H ) :   0.9827 B( 10-C , 58-H ) :   0.9832 
B( 11-N , 20-C ) :   1.1288 B( 11-N , 24-C ) :   1.1190 B( 11-N , 25-C ) :   0.9579 
B( 12-C , 14-C ) :   1.3369 B( 12-C , 59-H ) :   0.9759 B( 13-N , 31-C ) :   1.1378 
B( 13-N , 35-C ) :   1.1309 B( 13-N , 36-C ) :   0.9532 B( 14-C , 18-C ) :   1.1725 
B( 15-N , 42-C ) :   1.1118 B( 15-N , 46-C ) :   1.1174 B( 15-N , 47-C ) :   0.9623 
B( 16-C , 51-C ) :   1.1902 B( 17-C , 60-H ) :   0.9697 B( 18-C , 19-C ) :   1.1820 
B( 19-C , 21-C ) :   1.2246 B( 20-C , 28-C ) :   1.6230 B( 20-C , 63-H ) :   0.9702 
B( 21-C , 26-C ) :   1.6326 B( 21-C , 64-H ) :   0.9725 B( 22-C , 23-C ) :   1.2877 
B( 22-C , 28-C ) :   1.2727 B( 22-C , 29-C ) :   1.2233 B( 23-C , 24-C ) :   1.6165 
B( 23-C , 65-H ) :   0.9707 B( 24-C , 66-H ) :   0.9692 B( 25-C , 67-H ) :   0.9761 
B( 25-C , 68-H ) :   0.9828 B( 25-C , 69-H ) :   0.9822 B( 26-C , 27-C ) :   1.2200 
B( 26-C , 70-H ) :   0.9725 B( 27-C , 29-C ) :   1.2238 B( 28-C , 71-H ) :   0.9716 
B( 29-C , 30-C ) :   1.2248 B( 30-C , 32-C ) :   1.2990 B( 31-C , 39-C ) :   1.6155 
B( 31-C , 72-H ) :   0.9691 B( 32-C , 37-C ) :   1.5597 B( 32-C , 73-H ) :   0.9780 
B( 33-C , 34-C ) :   1.2874 B( 33-C , 39-C ) :   1.2802 B( 33-C , 40-C ) :   1.2216 
B( 34-C , 35-C ) :   1.6122 B( 34-C , 74-H ) :   0.9701 B( 35-C , 75-H ) :   0.9691 
B( 36-C , 76-H ) :   0.9764 B( 36-C , 77-H ) :   0.9819 B( 36-C , 78-H ) :   0.9828 
B( 37-C , 38-C ) :   1.3015 B( 37-C , 79-H ) :   0.9774 B( 38-C , 40-C ) :   1.2185 
B( 39-C , 80-H ) :   0.9712 B( 40-C , 41-C ) :   1.2296 B( 41-C , 43-C ) :   1.2053 
B( 42-C , 50-C ) :   1.6344 B( 42-C , 81-H ) :   0.9696 B( 43-C , 48-C ) :   1.6461 
B( 43-C , 82-H ) :   0.9731 B( 44-C , 45-C ) :   1.2669 B( 44-C , 50-C ) :   1.2682 
B( 44-C , 51-C ) :   1.2598 B( 45-C , 46-C ) :   1.6345 B( 45-C , 83-H ) :   0.9714 
B( 46-C , 84-H ) :   0.9702 B( 47-C , 85-H ) :   0.9762 B( 47-C , 86-H ) :   0.9829 
B( 47-C , 87-H ) :   0.9825 B( 48-C , 49-C ) :   1.2067 B( 48-C , 88-H ) :   0.9742 
B( 49-C , 51-C ) :   1.2239 B( 50-C , 89-H ) :   0.9712 

-------
TIMINGS
-------

Total SCF time: 0 days 0 hours 39 min 38 sec 

Total time                  ....    2378.151 sec
Sum of individual times     ....    2375.287 sec  ( 99.9%)

Fock matrix formation       ....    2358.469 sec  ( 99.2%)
Diagonalization             ....       4.734 sec  (  0.2%)
Density matrix formation    ....       0.460 sec  (  0.0%)
Population analysis         ....       0.336 sec  (  0.0%)
Initial guess               ....       2.282 sec  (  0.1%)
Orbital Transformation      ....       0.000 sec  (  0.0%)
Orbital Orthonormalization  ....       0.000 sec  (  0.0%)
DIIS solution               ....       2.598 sec  (  0.1%)
SOSCF solution              ....       5.090 sec  (  0.2%)

Maximum memory used throughout the entire SCF-calculation: 304.2 MB


           ************************************************************
           *        Program running with 8 parallel MPI-processes     *
           *              working on a common directory               *
           ************************************************************

------------------------------------------------------------------------------
                                ORCA  MP2 
------------------------------------------------------------------------------

Freezing NCore=104 chemical core electrons

----------
MP2 ENERGY (disk based algorithm)
----------

Dimension of the basis                    ...  918
Memory devoted to MP2                     ... 7000 MB   
Data format for buffers                   ... DOUBLE
Compression type for matrix containers    ... UNCOMPRESSED

-------------------------------
PARTIAL EXCHANGE TRANSFORMATION
-------------------------------

Transformation type                        ... one-operator
Generation of integrals (i,mue|j,nue)      ... ON
Generation of integrals (mue,kappa|nue,tau)... OFF
Generation of integrals (i,mue|a,nue)      ... OFF
Dimension of the basis                     ...  918
Number of internal MOs                     ...  127 (  52- 178)
Pair cutoff                                ... 2.500e-12 Eh
Number of AO pairs in the trafo            ... 421821
Total Number of distinct AO pairs          ... 421821
Memory devoted for trafo                   ... 7000.0 MB 
Max. Number of MO pairs treated together   ... 1088      
Number Format for Storage                  ... Double (8 Byte)
Integral package used                      ... LIBINT

Starting integral evaluation:
    ... done with AO integral generation
Closing buffer AOK     (38.19 GB; CompressionRatio= 1.33)
Collecting buffer AOK 
Number of MO pairs included in the trafo   ... 8128
------------------------
SORTING OF (i,mue|j,nue)
------------------------

IBATCH = 1 of  1
Closing buffer KAO     (51.03 GB; CompressionRatio= 1.00)
Collecting buffer KAO 
N(AO-Batches) Done                         ... 173859215 
N(AO-Batches) Skipped                      ... 167158116 
N(IJ)-pairs Skipped                        ...         0 
TOTAL TIME for half transformation         ...  1290.607 sec
AO-integral generation                     ...   256.473 sec
Half transformation                        ...   484.140 sec
K-integral sorting                         ...   223.175 sec

Finished integral transformation - now doing MP2 part

OPERATOR COMBINATION   0   0: ij=( 52..178, 52..178)
Process 5:   Internal MO 132
Process 2:   Internal MO  84
Process 0:   Internal MO  54
Process 0:   Internal MO  57
Process 1:   Internal MO  69
Process 0:   Internal MO  60
Process 4:   Internal MO 117
Process 0:   Internal MO  63
Process 1:   Internal MO  72
Process 2:   Internal MO  87
Process 3:   Internal MO 102
Process 0:   Internal MO  66
Process 7:   Internal MO 165
Process 1:   Internal MO  75
Process 6:   Internal MO 150
Process 2:   Internal MO  90
Process 1:   Internal MO  78
Process 5:   Internal MO 135
Process 4:   Internal MO 120
Process 3:   Internal MO 105
Process 1:   Internal MO  81
Process 2:   Internal MO  93
Process 3:   Internal MO 108
Process 2:   Internal MO  96
Process 4:   Internal MO 123
Process 7:   Internal MO 168
Process 6:   Internal MO 153
Process 5:   Internal MO 138
Process 2:   Internal MO  99
Process 3:   Internal MO 111
Process 4:   Internal MO 126
Process 5:   Internal MO 141
Process 6:   Internal MO 156
Process 3:   Internal MO 114
Process 7:   Internal MO 171
Process 4:   Internal MO 129
Process 5:   Internal MO 144
Process 6:   Internal MO 159
Process 7:   Internal MO 174
Process 5:   Internal MO 147
Process 6:   Internal MO 162
Process 7:   Internal MO 177
-----------------------------------------------
 MP2 CORRELATION ENERGY   :     -7.287311720 Eh
-----------------------------------------------


-------
TIMINGS
-------
Total time                : 1583.227 sec
Integral trafo            : 1303.428 sec ( 82.3%)
K(i,j)                    :    7.404 sec (  0.5%)
T(i,j)                    :    0.103 sec (  0.0%)

---------------------------------------
MP2 TOTAL ENERGY:    -2130.916141022 Eh
---------------------------------------

Maximum memory used throughout the entire MP2-calculation: 6735.7 MB

-------------------------   --------------------
FINAL SINGLE POINT ENERGY     -2130.916141022007
-------------------------   --------------------


                            ***************************************
                            *     ORCA property calculations      *
                            ***************************************


  WARNING: The energy has been calculated at the MP2 level but the densities
           used in the property calculations are still SCF densities
           MP2 response densities have not been calculated 
           use %mp2 Density relaxed end
           or  %mp2 Density unrelaxed end

                                    ---------------------
                                    Active property flags
                                    ---------------------
   (+) Dipole Moment


------------------------------------------------------------------------------
                       ORCA ELECTRIC PROPERTIES CALCULATION
------------------------------------------------------------------------------

Dipole Moment Calculation                       ... on
Quadrupole Moment Calculation                   ... off
Polarizability Calculation                      ... off
GBWName                                         ... /scratch/chu_02/allen/tmpyp4_amber_gaff2/conf1/conf1/Conf309.orca.gbw
Electron density                                ... /scratch/chu_02/allen/tmpyp4_amber_gaff2/conf1/conf1/Conf309.orca.scfp
The origin for moment calculation is the CENTER OF MASS  = (-0.000939, -0.004706 -0.000523)

-------------
DIPOLE MOMENT
-------------
                                X             Y             Z
Electronic contribution:      0.70187      -2.20203      -0.05944
Nuclear contribution   :      0.01676       0.19934       0.07182
                        -----------------------------------------
Total Dipole Moment    :      0.71863      -2.00269       0.01238
                        -----------------------------------------
Magnitude (a.u.)       :      2.12776
Magnitude (Debye)      :      5.40833



--------------------
Rotational spectrum 
--------------------
 
Rotational constants in cm-1:     0.001500     0.001474     0.000762 
Rotational constants in MHz :    44.973173    44.185909    22.836936 

 Dipole components along the rotational axes: 
x,y,z [a.u.] :     1.298388    -1.685630     0.014126 
x,y,z [Debye]:     3.300239    -4.284531     0.035905 

 

Timings for individual modules:

Sum of individual times         ...     3966.731 sec (=  66.112 min)
GTO integral calculation        ...        2.809 sec (=   0.047 min)   0.1 %
SCF iterations                  ...     2379.340 sec (=  39.656 min)  60.0 %
MP2 module                      ...     1584.582 sec (=  26.410 min)  39.9 %
                             ****ORCA TERMINATED NORMALLY****
TOTAL RUN TIME: 0 days 1 hours 6 minutes 14 seconds 852 msec
# of primitive gaussian functions

