
                                 *****************
                                 * O   R   C   A *
                                 *****************

                                            #,                                       
                                            ###                                      
                                            ####                                     
                                            #####                                    
                                            ######                                   
                                           ########,                                 
                                     ,,################,,,,,                         
                               ,,#################################,,                 
                          ,,##########################################,,             
                       ,#########################################, ''#####,          
                    ,#############################################,,   '####,        
                  ,##################################################,,,,####,       
                ,###########''''           ''''###############################       
              ,#####''   ,,,,##########,,,,          '''####'''          '####       
            ,##' ,,,,###########################,,,                        '##       
           ' ,,###''''                  '''############,,,                           
         ,,##''                                '''############,,,,        ,,,,,,###''
      ,#''                                            '''#######################'''  
     '                                                          ''''####''''         
             ,#######,   #######,   ,#######,      ##                                
            ,#'     '#,  ##    ##  ,#'     '#,    #''#        ######   ,####,        
            ##       ##  ##   ,#'  ##            #'  '#       #        #'  '#        
            ##       ##  #######   ##           ,######,      #####,   #    #        
            '#,     ,#'  ##    ##  '#,     ,#' ,#      #,         ##   #,  ,#        
             '#######'   ##     ##  '#######'  #'      '#     #####' # '####'        



                  #######################################################
                  #                        -***-                        #
                  #          Department of theory and spectroscopy      #
                  #    Directorship and core code : Frank Neese         #
                  #        Max Planck Institute fuer Kohlenforschung    #
                  #                Kaiser Wilhelm Platz 1               #
                  #                 D-45470 Muelheim/Ruhr               #
                  #                      Germany                        #
                  #                                                     #
                  #                  All rights reserved                #
                  #                        -***-                        #
                  #######################################################


                         Program Version 5.0.4 -  RELEASE  -


 With contributions from (in alphabetic order):
   Daniel Aravena         : Magnetic Suceptibility
   Michael Atanasov       : Ab Initio Ligand Field Theory (pilot matlab implementation)
   Alexander A. Auer      : GIAO ZORA, VPT2 properties, NMR spectrum
   Ute Becker             : Parallelization
   Giovanni Bistoni       : ED, misc. LED, open-shell LED, HFLD
   Martin Brehm           : Molecular dynamics
   Dmytro Bykov           : SCF Hessian
   Vijay G. Chilkuri      : MRCI spin determinant printing, contributions to CSF-ICE
   Dipayan Datta          : RHF DLPNO-CCSD density
   Achintya Kumar Dutta   : EOM-CC, STEOM-CC
   Dmitry Ganyushin       : Spin-Orbit,Spin-Spin,Magnetic field MRCI
   Miquel Garcia          : C-PCM and meta-GGA Hessian, CC/C-PCM, Gaussian charge scheme
   Yang Guo               : DLPNO-NEVPT2, F12-NEVPT2, CIM, IAO-localization
   Andreas Hansen         : Spin unrestricted coupled pair/coupled cluster methods
   Benjamin Helmich-Paris : MC-RPA, TRAH-SCF, COSX integrals
   Lee Huntington         : MR-EOM, pCC
   Robert Izsak           : Overlap fitted RIJCOSX, COSX-SCS-MP3, EOM
   Marcus Kettner         : VPT2
   Christian Kollmar      : KDIIS, OOCD, Brueckner-CCSD(T), CCSD density, CASPT2, CASPT2-K
   Simone Kossmann        : Meta GGA functionals, TD-DFT gradient, OOMP2, MP2 Hessian
   Martin Krupicka        : Initial AUTO-CI
   Lucas Lang             : DCDCAS
   Marvin Lechner         : AUTO-CI (C++ implementation), FIC-MRCC
   Dagmar Lenk            : GEPOL surface, SMD
   Dimitrios Liakos       : Extrapolation schemes; Compound Job, initial MDCI parallelization
   Dimitrios Manganas     : Further ROCIS development; embedding schemes
   Dimitrios Pantazis     : SARC Basis sets
   Anastasios Papadopoulos: AUTO-CI, single reference methods and gradients
   Taras Petrenko         : DFT Hessian,TD-DFT gradient, ASA, ECA, R-Raman, ABS, FL, XAS/XES, NRVS
   Peter Pinski           : DLPNO-MP2, DLPNO-MP2 Gradient
   Christoph Reimann      : Effective Core Potentials
   Marius Retegan         : Local ZFS, SOC
   Christoph Riplinger    : Optimizer, TS searches, QM/MM, DLPNO-CCSD(T), (RO)-DLPNO pert. Triples
   Tobias Risthaus        : Range-separated hybrids, TD-DFT gradient, RPA, STAB
   Michael Roemelt        : Original ROCIS implementation
   Masaaki Saitow         : Open-shell DLPNO-CCSD energy and density
   Barbara Sandhoefer     : DKH picture change effects
   Avijit Sen             : IP-ROCIS
   Kantharuban Sivalingam : CASSCF convergence, NEVPT2, FIC-MRCI
   Bernardo de Souza      : ESD, SOC TD-DFT
   Georgi Stoychev        : AutoAux, RI-MP2 NMR, DLPNO-MP2 response
   Willem Van den Heuvel  : Paramagnetic NMR
   Boris Wezisla          : Elementary symmetry handling
   Frank Wennmohs         : Technical directorship


 We gratefully acknowledge several colleagues who have allowed us to
 interface, adapt or use parts of their codes:
   Stefan Grimme, W. Hujo, H. Kruse, P. Pracht,  : VdW corrections, initial TS optimization,
                  C. Bannwarth, S. Ehlert          DFT functionals, gCP, sTDA/sTD-DF
   Ed Valeev, F. Pavosevic, A. Kumar             : LibInt (2-el integral package), F12 methods
   Garnet Chan, S. Sharma, J. Yang, R. Olivares  : DMRG
   Ulf Ekstrom                                   : XCFun DFT Library
   Mihaly Kallay                                 : mrcc  (arbitrary order and MRCC methods)
   Jiri Pittner, Ondrej Demel                    : Mk-CCSD
   Frank Weinhold                                : gennbo (NPA and NBO analysis)
   Christopher J. Cramer and Donald G. Truhlar   : smd solvation model
   Lars Goerigk                                  : TD-DFT with DH, B97 family of functionals
   V. Asgeirsson, H. Jonsson                     : NEB implementation
   FAccTs GmbH                                   : IRC, NEB, NEB-TS, DLPNO-Multilevel, CI-OPT
                                                   MM, QMMM, 2- and 3-layer-ONIOM, Crystal-QMMM,
                                                   LR-CPCM, SF, NACMEs, symmetry and pop. for TD-DFT,
                                                   nearIR, NL-DFT gradient (VV10), updates on ESD,
                                                   ML-optimized integration grids
   S Lehtola, MJT Oliveira, MAL Marques          : LibXC Library
   Liviu Ungur et al                             : ANISO software


 Your calculation uses the libint2 library for the computation of 2-el integrals
 For citations please refer to: http://libint.valeyev.net

 Your ORCA version has been built with support for libXC version: 5.1.0
 For citations please refer to: https://tddft.org/programs/libxc/

 This ORCA versions uses:
   CBLAS   interface :  Fast vector & matrix operations
   LAPACKE interface :  Fast linear algebra routines
   SCALAPACK package :  Parallel linear algebra routines
   Shared memory     :  Shared parallel matrices
   BLAS/LAPACK       :  OpenBLAS 0.3.15  USE64BITINT DYNAMIC_ARCH NO_AFFINITY Sandybridge SINGLE_THREADED
        Core in use  :  Sandybridge
   Copyright (c) 2011-2014, The OpenBLAS Project


================================================================================

----- Orbital basis set information -----
Your calculation utilizes the basis: cc-pVDZ 
       H, B-Ne : Obtained from the ccRepo (grant-hill.group.shef.ac.uk/ccrepo) Feb. 2017
                 T. H. Dunning, Jr., J. Chem. Phys. 90, 1007 (1989)
            He : Obtained from the ccRepo (grant-hill.group.shef.ac.uk/ccrepo) Feb. 2017
                 D. E. Woon, T. H. Dunning, Jr., J. Chem. Phys. 100, 2975 (1994)
  Li-Be, Na-Mg : Obtained from the ccRepo (grant-hill.group.shef.ac.uk/ccrepo) Feb. 2017
                 B. P. Prascher, D. E. Woon, K. A. Peterson, T. H. Dunning, Jr., A. K. Wilson, Theor. Chem. Acc. 128, 69 (2011)
         Al-Ar : Obtained from the ccRepo (grant-hill.group.shef.ac.uk/ccrepo) Feb. 2017
                 D. E. Woon, T. H. Dunning, Jr., J. Chem. Phys. 98, 1358 (1993)
            Ca : Obtained from the Peterson Research Group Website (tyr0.chem.wsu.edu/~kipeters) Feb. 2017
                 J. Koput, K. A. Peterson, J. Phys. Chem. 106, 9595 (2002)
         Sc-Zn : Obtained from the ccRepo (grant-hill.group.shef.ac.uk/ccrepo) Feb. 2017
                 N. B. Balabanov, K. A. Peterson, J. Chem. Phys. 123, 064107 (2005)
                 N. B. Balabanov, K. A. Peterson, J. Chem. Phys. 125, 074110 (2006)
         Ga-Kr : Obtained from the ccRepo (grant-hill.group.shef.ac.uk/ccrepo) Feb. 2017
                 A. K. Wilson, D. E. Woon, K. A. Peterson, T. H. Dunning, Jr., J. Chem. Phys. 110, 7667 (1999)

================================================================================
                                        WARNINGS
                       Please study these warnings very carefully!
================================================================================


WARNING: No MP2 level density has been requested!
         To caclulate MP2 level properties use
         %mp2 Density relaxed end
         or
         %mp2 Density unrelaxed end

WARNING: Post HF methods need fully converged wavefunctions
  ===> : Setting SCFConvForced true
         You can overwrite this default with %scf ConvForced false 


INFO   : the flag for use of the SHARK integral package has been found!

================================================================================
                                       INPUT FILE
================================================================================
NAME = /scratch/allen/tmpyp4_amber_gaff2/2.Mdgx/conf11/conf11/Conf219.orca
|  1> ! PAL2
|  2> ! mp2 cc-pvdz TightSCF  NoKeepInts
|  3> 
|  4> %scf
|  5>   MaxCore 2000
|  6> end
|  7> %mp2
|  8>   MaxCore 2000
|  9> end
| 10> * xyz 0 1
| 11>    C       -4.76100         5.30000         0.77600
| 12>    C        1.47400         4.04100         0.05700
| 13>    C       -2.80200         4.09300         0.04900
| 14>    C       -2.42500         5.23900        -0.66800
| 15>    C       -3.21800         6.36800        -0.63800
| 16>    C       -5.17800         7.62600         0.11600
| 17>    C        0.13200         4.30700         0.06100
| 18>    C       -0.56900         3.05600         0.04700
| 19>    C        1.64900         2.61800         0.02300
| 20>    C       -3.99800         4.14900         0.78200
| 21>    N       -4.36900         6.38800         0.07400
| 22>    N        0.38800         2.06700         0.02500
| 23>    N       -2.01000         0.39500        -0.07500
| 24>    N       -0.38800        -2.07400        -0.02700
| 25>    N        2.01000        -0.40100         0.06500
| 26>    C       -1.96000         2.86100         0.02400
| 27>    C       -2.62300         1.61500        -0.01800
| 28>    C       -5.57300        -4.32900         1.06600
| 29>    C       -4.07300         1.47100         0.05600
| 30>    C       -4.10600        -2.75600        -0.02600
| 31>    C       -4.99500        -2.75700        -1.11100
| 32>    C       -6.13200        -3.54200        -1.07600
| 33>    C       -7.65100        -5.11300         0.04000
| 34>    C       -4.32400         0.14100         0.03700
| 35>    C       -3.02500        -0.52000        -0.04800
| 36>    C       -4.42200        -3.56600         1.07500
| 37>    N       -6.40700        -4.31300         0.00100
| 38>    C       -2.86700        -1.92200        -0.04000
| 39>    C       -1.65000        -2.62400        -0.02700
| 40>    C        3.56800        -6.14200        -1.04000
| 41>    C       -1.47600        -4.04900        -0.03400
| 42>    C        2.80300        -4.09900        -0.00800
| 43>    C        3.65700        -4.38400         1.06900
| 44>    C        4.42700        -5.53000         1.05900
| 45>    C        5.24500        -7.58800         0.01400
| 46>    C       -0.13400        -4.31500        -0.02200
| 47>    C        0.56800        -3.06400        -0.02700
| 48>    C        2.77500        -5.01200        -1.07400
| 49>    N        4.37600        -6.39100         0.01700
| 50>    C        1.95900        -2.86900        -0.00900
| 51>    C        2.62100        -1.62200         0.00900
| 52>    C        5.54300         4.33900        -1.13000
| 53>    C        4.07000        -1.47900        -0.09400
| 54>    C        4.10400         2.75100        -0.02100
| 55>    C        5.02700         2.72900         1.03600
| 56>    C        6.16600         3.50900         0.97800
| 57>    C        7.61900         5.15300        -0.11500
| 58>    C        4.32100        -0.14800        -0.09200
| 59>    C        3.02500         0.51400         0.01500
| 60>    C        4.38700         3.58200        -1.11500
| 61>    C        2.86600         1.91600         0.01300
| 62>    N        6.41300         4.29600        -0.09500
| 63>    H       -5.69600         5.38400         1.31700
| 64>    H        2.27400         4.76600         0.08100
| 65>    H       -1.50800         5.26100        -1.24500
| 66>    H       -2.96400         7.27800        -1.16700
| 67>    H       -4.79800         8.27200         0.91100
| 68>    H       -5.09800         8.13000        -0.84600
| 69>    H       -6.21600         7.36000         0.31500
| 70>    H       -0.33200         5.28200         0.06900
| 71>    H       -4.35000         3.29200         1.34400
| 72>    H        0.18200         1.07200         0.00500
| 73>    H       -0.18300        -1.08000        -0.02100
| 74>    H       -5.86400        -4.96200         1.89500
| 75>    H       -4.79400         2.27200         0.13900
| 76>    H       -4.80000        -2.16000        -1.99400
| 77>    H       -6.84100        -3.58200        -1.89300
| 78>    H       -8.42800        -4.53600         0.54600
| 79>    H       -7.95600        -5.33700        -0.98100
| 80>    H       -7.45600        -6.03700         0.58400
| 81>    H       -5.28700        -0.34400         0.10000
| 82>    H       -3.78000        -3.60100         1.94700
| 83>    H        3.58700        -6.86800        -1.84300
| 84>    H       -2.27600        -4.77400        -0.05000
| 85>    H        3.71400        -3.72400         1.92600
| 86>    H        5.09200        -5.79500         1.87100
| 87>    H        6.20500        -7.32900        -0.43900
| 88>    H        5.39300        -7.91700         1.04200
| 89>    H        4.75900        -8.37300        -0.56400
| 90>    H        0.32900        -5.29000        -0.00800
| 91>    H        2.14600        -4.84200        -1.94000
| 92>    H        5.80800         4.98600        -1.95600
| 93>    H        4.78800        -2.28100        -0.18500
| 94>    H        4.86000         2.11400         1.91200
| 95>    H        6.90100         3.53100         1.77200
| 96>    H        7.38300         6.10900         0.35600
| 97>    H        8.41400         4.65200         0.43500
| 98>    H        7.92100         5.31000        -1.15000
| 99>    H        5.28300         0.33600        -0.17900
|100>    H        3.72000         3.63200        -1.96700
|101> *
|102> 
|103>                          ****END OF INPUT****
================================================================================

                       ****************************
                       * Single Point Calculation *
                       ****************************

---------------------------------
CARTESIAN COORDINATES (ANGSTROEM)
---------------------------------
  C     -4.761000    5.300000    0.776000
  C      1.474000    4.041000    0.057000
  C     -2.802000    4.093000    0.049000
  C     -2.425000    5.239000   -0.668000
  C     -3.218000    6.368000   -0.638000
  C     -5.178000    7.626000    0.116000
  C      0.132000    4.307000    0.061000
  C     -0.569000    3.056000    0.047000
  C      1.649000    2.618000    0.023000
  C     -3.998000    4.149000    0.782000
  N     -4.369000    6.388000    0.074000
  N      0.388000    2.067000    0.025000
  N     -2.010000    0.395000   -0.075000
  N     -0.388000   -2.074000   -0.027000
  N      2.010000   -0.401000    0.065000
  C     -1.960000    2.861000    0.024000
  C     -2.623000    1.615000   -0.018000
  C     -5.573000   -4.329000    1.066000
  C     -4.073000    1.471000    0.056000
  C     -4.106000   -2.756000   -0.026000
  C     -4.995000   -2.757000   -1.111000
  C     -6.132000   -3.542000   -1.076000
  C     -7.651000   -5.113000    0.040000
  C     -4.324000    0.141000    0.037000
  C     -3.025000   -0.520000   -0.048000
  C     -4.422000   -3.566000    1.075000
  N     -6.407000   -4.313000    0.001000
  C     -2.867000   -1.922000   -0.040000
  C     -1.650000   -2.624000   -0.027000
  C      3.568000   -6.142000   -1.040000
  C     -1.476000   -4.049000   -0.034000
  C      2.803000   -4.099000   -0.008000
  C      3.657000   -4.384000    1.069000
  C      4.427000   -5.530000    1.059000
  C      5.245000   -7.588000    0.014000
  C     -0.134000   -4.315000   -0.022000
  C      0.568000   -3.064000   -0.027000
  C      2.775000   -5.012000   -1.074000
  N      4.376000   -6.391000    0.017000
  C      1.959000   -2.869000   -0.009000
  C      2.621000   -1.622000    0.009000
  C      5.543000    4.339000   -1.130000
  C      4.070000   -1.479000   -0.094000
  C      4.104000    2.751000   -0.021000
  C      5.027000    2.729000    1.036000
  C      6.166000    3.509000    0.978000
  C      7.619000    5.153000   -0.115000
  C      4.321000   -0.148000   -0.092000
  C      3.025000    0.514000    0.015000
  C      4.387000    3.582000   -1.115000
  C      2.866000    1.916000    0.013000
  N      6.413000    4.296000   -0.095000
  H     -5.696000    5.384000    1.317000
  H      2.274000    4.766000    0.081000
  H     -1.508000    5.261000   -1.245000
  H     -2.964000    7.278000   -1.167000
  H     -4.798000    8.272000    0.911000
  H     -5.098000    8.130000   -0.846000
  H     -6.216000    7.360000    0.315000
  H     -0.332000    5.282000    0.069000
  H     -4.350000    3.292000    1.344000
  H      0.182000    1.072000    0.005000
  H     -0.183000   -1.080000   -0.021000
  H     -5.864000   -4.962000    1.895000
  H     -4.794000    2.272000    0.139000
  H     -4.800000   -2.160000   -1.994000
  H     -6.841000   -3.582000   -1.893000
  H     -8.428000   -4.536000    0.546000
  H     -7.956000   -5.337000   -0.981000
  H     -7.456000   -6.037000    0.584000
  H     -5.287000   -0.344000    0.100000
  H     -3.780000   -3.601000    1.947000
  H      3.587000   -6.868000   -1.843000
  H     -2.276000   -4.774000   -0.050000
  H      3.714000   -3.724000    1.926000
  H      5.092000   -5.795000    1.871000
  H      6.205000   -7.329000   -0.439000
  H      5.393000   -7.917000    1.042000
  H      4.759000   -8.373000   -0.564000
  H      0.329000   -5.290000   -0.008000
  H      2.146000   -4.842000   -1.940000
  H      5.808000    4.986000   -1.956000
  H      4.788000   -2.281000   -0.185000
  H      4.860000    2.114000    1.912000
  H      6.901000    3.531000    1.772000
  H      7.383000    6.109000    0.356000
  H      8.414000    4.652000    0.435000
  H      7.921000    5.310000   -1.150000
  H      5.283000    0.336000   -0.179000
  H      3.720000    3.632000   -1.967000

----------------------------
CARTESIAN COORDINATES (A.U.)
----------------------------
  NO LB      ZA    FRAG     MASS         X           Y           Z
   0 C     6.0000    0    12.011   -8.996986   10.015549    1.466427
   1 C     6.0000    0    12.011    2.785456    7.636383    0.107714
   2 C     6.0000    0    12.011   -5.295013    7.734649    0.092597
   3 C     6.0000    0    12.011   -4.582586    9.900275   -1.262337
   4 C     6.0000    0    12.011   -6.081139   12.033776   -1.205645
   5 C     6.0000    0    12.011   -9.785002   14.411051    0.219208
   6 C     6.0000    0    12.011    0.249444    8.139050    0.115273
   7 C     6.0000    0    12.011   -1.075254    5.775003    0.088817
   8 C     6.0000    0    12.011    3.116158    4.947303    0.043464
   9 C     6.0000    0    12.011   -7.555125    7.840474    1.477766
  10 N     7.0000    0    14.007   -8.256213   12.071571    0.139840
  11 N     7.0000    0    14.007    0.733214    3.906064    0.047243
  12 N     7.0000    0    14.007   -3.798350    0.746442   -0.141729
  13 N     7.0000    0    14.007   -0.733214   -3.919292   -0.051023
  14 N     7.0000    0    14.007    3.798350   -0.757780    0.122832
  15 C     6.0000    0    12.011   -3.703863    5.406506    0.045353
  16 C     6.0000    0    12.011   -4.956752    3.051908   -0.034015
  17 C     6.0000    0    12.011  -10.531444   -8.180624    2.014448
  18 C     6.0000    0    12.011   -7.696855    2.779787    0.105825
  19 C     6.0000    0    12.011   -7.759216   -5.208085   -0.049133
  20 C     6.0000    0    12.011   -9.439182   -5.209975   -2.099486
  21 C     6.0000    0    12.011  -11.587801   -6.693410   -2.033345
  22 C     6.0000    0    12.011  -14.458295   -9.662170    0.075589
  23 C     6.0000    0    12.011   -8.171176    0.266451    0.069920
  24 C     6.0000    0    12.011   -5.716422   -0.982658   -0.090707
  25 C     6.0000    0    12.011   -8.356369   -6.738763    2.031456
  26 N     7.0000    0    14.007  -12.107475   -8.150389    0.001890
  27 C     6.0000    0    12.011   -5.417845   -3.632054   -0.075589
  28 C     6.0000    0    12.011   -3.118048   -4.958641   -0.051023
  29 C     6.0000    0    12.011    6.742543  -11.606698   -1.965315
  30 C     6.0000    0    12.011   -2.789236   -7.651501   -0.064251
  31 C     6.0000    0    12.011    5.296902   -7.745987   -0.015118
  32 C     6.0000    0    12.011    6.910728   -8.284559    2.020117
  33 C     6.0000    0    12.011    8.365818  -10.450186    2.001220
  34 C     6.0000    0    12.011    9.911614  -14.339242    0.026456
  35 C     6.0000    0    12.011   -0.253223   -8.154168   -0.041574
  36 C     6.0000    0    12.011    1.073364   -5.790121   -0.051023
  37 C     6.0000    0    12.011    5.243990   -9.471307   -2.029566
  38 N     7.0000    0    14.007    8.269442  -12.077240    0.032125
  39 C     6.0000    0    12.011    3.701973   -5.421624   -0.017008
  40 C     6.0000    0    12.011    4.952972   -3.065136    0.017008
  41 C     6.0000    0    12.011   10.474752    8.199522   -2.135391
  42 C     6.0000    0    12.011    7.691185   -2.794905   -0.177634
  43 C     6.0000    0    12.011    7.755436    5.198637   -0.039684
  44 C     6.0000    0    12.011    9.499653    5.157063    1.957756
  45 C     6.0000    0    12.011   11.652051    6.631049    1.848152
  46 C     6.0000    0    12.011   14.397823    9.737759   -0.217319
  47 C     6.0000    0    12.011    8.165507   -0.279679   -0.173855
  48 C     6.0000    0    12.011    5.716422    0.971319    0.028346
  49 C     6.0000    0    12.011    8.290229    6.768999   -2.107045
  50 C     6.0000    0    12.011    5.415955    3.620715    0.024566
  51 N     7.0000    0    14.007   12.118814    8.118263   -0.179524
  52 H     1.0000    0     1.008  -10.763880   10.174286    2.488769
  53 H     1.0000    0     1.008    4.297237    9.006435    0.153068
  54 H     1.0000    0     1.008   -2.849707    9.941849   -2.352709
  55 H     1.0000    0     1.008   -5.601148   13.753427   -2.205310
  56 H     1.0000    0     1.008   -9.066906   15.631815    1.721541
  57 H     1.0000    0     1.008   -9.633824   15.363473   -1.598708
  58 H     1.0000    0     1.008  -11.746538   13.908384    0.595264
  59 H     1.0000    0     1.008   -0.627389    9.981533    0.130391
  60 H     1.0000    0     1.008   -8.220309    6.220978    2.539792
  61 H     1.0000    0     1.008    0.343930    2.025786    0.009449
  62 H     1.0000    0     1.008   -0.345820   -2.040904   -0.039684
  63 H     1.0000    0     1.008  -11.081354   -9.376821    3.581031
  64 H     1.0000    0     1.008   -9.059347    4.293458    0.262672
  65 H     1.0000    0     1.008   -9.070685   -4.081808   -3.768114
  66 H     1.0000    0     1.008  -12.927616   -6.768999   -3.577252
  67 H     1.0000    0     1.008  -15.926612   -8.571798    1.031790
  68 H     1.0000    0     1.008  -15.034661  -10.085468   -1.853821
  69 H     1.0000    0     1.008  -14.089798  -11.408277    1.103600
  70 H     1.0000    0     1.008   -9.990982   -0.650066    0.188973
  71 H     1.0000    0     1.008   -7.143165   -6.804904    3.679297
  72 H     1.0000    0     1.008    6.778448  -12.978639   -3.482765
  73 H     1.0000    0     1.008   -4.301017   -9.021553   -0.094486
  74 H     1.0000    0     1.008    7.018443   -7.037340    3.639613
  75 H     1.0000    0     1.008    9.622485  -10.950963    3.535678
  76 H     1.0000    0     1.008   11.725751  -13.849803   -0.829590
  77 H     1.0000    0     1.008   10.191293  -14.960962    1.969095
  78 H     1.0000    0     1.008    8.993207  -15.822677   -1.065806
  79 H     1.0000    0     1.008    0.621720   -9.996651   -0.015118
  80 H     1.0000    0     1.008    4.055352   -9.150054   -3.666069
  81 H     1.0000    0     1.008   10.975529    9.422175   -3.696304
  82 H     1.0000    0     1.008    9.048009   -4.310465   -0.349599
  83 H     1.0000    0     1.008    9.184069    3.994881    3.613156
  84 H     1.0000    0     1.008   13.041000    6.672623    3.348595
  85 H     1.0000    0     1.008   13.951848   11.544337    0.672743
  86 H     1.0000    0     1.008   15.900156    8.791006    0.822031
  87 H     1.0000    0     1.008   14.968521   10.034446   -2.173185
  88 H     1.0000    0     1.008    9.983423    0.634948   -0.338261
  89 H     1.0000    0     1.008    7.029781    6.863485   -3.717091

--------------------------------
INTERNAL COORDINATES (ANGSTROEM)
--------------------------------
 C      0   0   0     0.000000000000     0.00000000     0.00000000
 C      1   0   0     6.401348842236     0.00000000     0.00000000
 C      1   2   0     2.413101531225    22.64082979     0.00000000
 C      3   1   2     1.403400869317    87.91143969   299.95177451
 C      4   3   1     1.379996376807   120.17160140     0.14764297
 C      5   4   3     2.447995098034   152.52426645     1.61215331
 C      2   1   3     1.368114030335     6.28487260    57.02679669
 C      7   2   4     1.434084376876   108.05010202   118.86674639
 C      2   1   3     1.434123425651   108.46162473   328.17463607
 C      1   2   7     1.380943880105    45.44427084    94.87508159
 N      1   2   7     1.352853281032    79.49400654   298.80492965
 N      9   2   1     1.376127174356   106.58526707     5.85429294
 N     12   9   2     2.925062050624   168.53581413   171.12065651
 N     13  12   9     2.954513327098    91.55032014    11.12112580
 N     14  13  12     2.925371258490    88.43092389   359.84326247
 C      8   7   2     1.404790019896   127.24786865   181.11170171
 C     13  12   9     1.366535034311    81.72106996   188.00453233
 C     14  13  12     5.758810554272    80.56209567   166.76250791
 C     17  13  12     1.459010623676   111.08861209   183.82872609
 C     18  14  13     2.412235892279    27.27532823    36.33507194
 C     20  18  14     1.402692767501    87.95206320   148.94598259
 C     21  20  18     1.382106725257   120.14573887   359.70382047
 C     18  14  13     2.446510985056   144.15733107    82.80075377
 C     19  17  13     1.353610726908   106.29293361   359.75308708
 C     13  12   9     1.366813447402   172.21332906    33.46711076
 C     18  14  13     1.380960173213    15.08449437   309.23336894
 N     22  21  20     1.352773077792   120.73759875     0.27865223
 C     25  13  17     1.410897586645   125.60330303   182.37774668
 C     14  13  12     1.376642291955    80.24689249   177.85461986
 C     14  13  12     5.764089607215   164.51507311   312.20821879
 C     29  14  13     1.435600919476   106.58649366   178.76395472
 C     30  14  13     2.413316804732    27.10625047    82.12560436
 C     32  30  14     1.403734305344    87.90059683   149.76154742
 C     33  32  30     1.380694028378   120.14881443   359.74174632
 C     34  33  32     2.448777858443   152.49203239     2.45173620
 C     31  29  14     1.368160809262   108.16950133     0.70383075
 C     14  13  12     1.376239804685   169.26375223   353.09862627
 C     30  14  13     1.380907310430    14.68948582   353.70041132
 N     34  33  32     1.352658863128   120.85575621     0.19603406
 C     37  14  29     1.404717053360   126.01551127   180.90772073
 C     15  14  13     1.366491126938    81.61824056   183.09049352
 C      2   1   3     4.249062720177   161.86418097   114.97231743
 C     41  15  14     1.459677704153   111.05201287   175.08990246
 C     42   2   1     2.412953791518    41.78584867   187.69945932
 C     44  42   2     1.403446472082    87.95153797   233.97558675
 C     45  44  42     1.381696421071   120.11137308     0.19721020
 C     42   2   1     2.450019795838   135.97209175    98.01430842
 C     43  41  15     1.354461516618   106.26758155     0.30894352
 C     15  14  13     1.367461151185   171.87382904   332.35056460
 C     42   2   1     1.381886391857    32.59078432   236.55473851
 C      9   2   1     1.404988612053   126.98745415   186.85863047
 N     42   2   1     1.352765315936   113.57249190   125.75089761
 H      1   2   7     1.083495269948   155.76272224   164.77796766
 H      2   1   3     1.079907866440   125.94559534   155.18718168
 H      4   3   1     1.083652158213   121.05983529   179.55278061
 H      5   4   3     1.082800535648   122.82941158   179.41488589
 H      6   5   4     1.092584550504   104.44737182   100.09712464
 H      6   5   4     1.088971992294    84.65953368   209.50417287
 H      6   5   4     1.089862835406   133.89751343   322.44896966
 H      7   2  54     1.079807853278   126.66122480     1.30600390
 H     10   1   2     1.083603709850   118.81349229   153.19323438
 H     12   9   2     1.016297692608   125.29023241   180.00180175
 H     14  13  12     1.014936943854    44.97226959   359.42596618
 H     18  14  13     1.082871645210   128.03556573   234.20482432
 H     19  17  13     1.080893611786   126.41830519   178.11313280
 H     21  20  18     1.083569563987   121.05669627   180.67006309
 H     22  21  20     1.082483256222   122.73097286   180.59748951
 H     23  18  14     1.092105306278   103.92715769   234.93429879
 H     23  18  14     1.088871893291   134.19244188    12.25587044
 H     23  18  14     1.089833473518    84.85857450   125.45241208
 H     24  19  17     1.080075460327   127.28078426   178.44613241
 H     26  18  14     1.083408048706   118.76995697   244.94906660
 H     30  14  13     1.082703098730   127.99711412   279.66882698
 H     31  29  14     1.079759695488   125.22293469   180.92530585
 H     33  32  30     1.083188810873   121.01964473   180.74284758
 H     34  33  32     1.082494341787   122.70821597   180.59516895
 H     35  34  33     1.092652735319   105.73575241    97.19771933
 H     35  34  33     1.089462711615    84.05943581   206.43036958
 H     35  34  33     1.089268102902   133.08365142   318.50306270
 H     36  31  29     1.079439669458   126.61599965   178.98859863
 H     38  30  73     1.083742127999   118.77264435   359.90091293
 H     42   2   1     1.082178358682   119.31790784   342.38242807
 H     43  41  15     1.080281907652   126.36969097   182.06329380
 H     45  44  42     1.083277434455   121.10105945   179.58025624
 H     46  45  44     1.082194529648   122.72144639   179.46906377
 H     47  42   2     1.091546151109   106.65128841   315.16475048
 H     47  42   2     1.088818625851   132.46019523    94.52397119
 H     47  42   2     1.089531091801    83.63838232   206.04504406
 H     48  43  41     1.080402239909   127.23657387   181.62955349
 H     50  42   2     1.083186502870   118.77001737    94.71359229

---------------------------
INTERNAL COORDINATES (A.U.)
---------------------------
 C      0   0   0     0.000000000000     0.00000000     0.00000000
 C      1   0   0    12.096796199520     0.00000000     0.00000000
 C      1   2   0     4.560101027361    22.64082979     0.00000000
 C      3   1   2     2.652043299116    87.91143969   299.95177451
 C      4   3   1     2.607815217969   120.17160140     0.14764297
 C      5   4   3     4.626040312467   152.52426645     1.61215331
 C      2   1   3     2.585360837309     6.28487260    57.02679669
 C      7   2   4     2.710026725231   108.05010202   118.86674639
 C      2   1   3     2.710100516721   108.46162473   328.17463607
 C      1   2   7     2.609605739713    45.44427084    94.87508159
 N      1   2   7     2.556522200528    79.49400654   298.80492965
 N      9   2   1     2.600503484979   106.58526707     5.85429294
 N     12   9   2     5.527566200405   168.53581413   171.12065651
 N     13  12   9     5.583221047236    91.55032014    11.12112580
 N     14  13  12     5.528150518591    88.43092389   359.84326247
 C      8   7   2     2.654668413270   127.24786865   181.11170171
 C     13  12   9     2.582376967257    81.72106996   188.00453233
 C     14  13  12    10.882574804710    80.56209567   166.76250791
 C     17  13  12     2.757130505230   111.08861209   183.82872609
 C     18  14  13     4.558465206823    27.27532823    36.33507194
 C     20  18  14     2.650705180609    87.95206320   148.94598259
 C     21  20  18     2.611803198586   120.14573887   359.70382047
 C     18  14  13     4.623235745386   144.15733107    82.80075377
 C     19  17  13     2.557953565794   106.29293361   359.75308708
 C     13  12   9     2.582903091751   172.21332906    33.46711076
 C     18  14  13     2.609636529225    15.08449437   309.23336894
 N     22  21  20     2.556370638369   120.73759875     0.27865223
 C     25  13  17     2.666210041769   125.60330303   182.37774668
 C     14  13  12     2.601476916169    80.24689249   177.85461986
 C     14  13  12    10.892550769017   164.51507311   312.20821879
 C     29  14  13     2.712892575415   106.58649366   178.76395472
 C     30  14  13     4.560507835333    27.10625047    82.12560436
 C     32  30  14     2.652673401891    87.90059683   149.76154742
 C     33  32  30     2.609133588376   120.14881443   359.74174632
 C     34  33  32     4.627519515267   152.49203239     2.45173620
 C     31  29  14     2.585449236669   108.16950133     0.70383075
 C     14  13  12     2.600716325456   169.26375223   353.09862627
 C     30  14  13     2.609536633043    14.68948582   353.70041132
 N     34  33  32     2.556154803934   120.85575621     0.19603406
 C     37  14  29     2.654530526499   126.01551127   180.90772073
 C     15  14  13     2.582293994346    81.61824056   183.09049352
 C      2   1   3     8.029564866989   161.86418097   114.97231743
 C     41  15  14     2.758391104639   111.05201287   175.08990246
 C     42   2   1     4.559821839776    41.78584867   187.69945932
 C     44  42   2     2.652129475853    87.95153797   233.97558675
 C     45  44  42     2.611027836043   120.11137308     0.19721020
 C     42   2   1     4.629866436820   135.97209175    98.01430842
 C     43  41  15     2.559561325344   106.26758155     0.30894352
 C     15  14  13     2.584127074516   171.87382904   332.35056460
 C     42   2   1     2.611386828803    32.59078432   236.55473851
 C      9   2   1     2.655043698059   126.98745415   186.85863047
 N     42   2   1     2.556355970587   113.57249190   125.75089761
 H      1   2   7     2.047509327601   155.76272224   164.77796766
 H      2   1   3     2.040730117440   125.94559534   155.18718168
 H      4   3   1     2.047805803456   121.05983529   179.55278061
 H      5   4   3     2.046196470038   122.82941158   179.41488589
 H      6   5   4     2.064685578606   104.44737182   100.09712464
 H      6   5   4     2.057858832946    84.65953368   209.50417287
 H      6   5   4     2.059542282457   133.89751343   322.44896966
 H      7   2  54     2.040541119952   126.66122480     1.30600390
 H     10   1   2     2.047714249317   118.81349229   153.19323438
 H     12   9   2     1.920524309565   125.29023241   180.00180175
 H     14  13  12     1.917952867083    44.97226959   359.42596618
 H     18  14  13     2.046330847636   128.03556573   234.20482432
 H     19  17  13     2.042592906181   126.41830519   178.11313280
 H     21  20  18     2.047649722989   121.05669627   180.67006309
 H     22  21  20     2.045596898814   122.73097286   180.59748951
 H     23  18  14     2.063779938267   103.92715769   234.93429879
 H     23  18  14     2.057669673245   134.19244188    12.25587044
 H     23  18  14     2.059486796529    84.85857450   125.45241208
 H     24  19  17     2.041046823986   127.28078426   178.44613241
 H     26  18  14     2.047344503340   118.76995697   244.94906660
 H     30  14  13     2.046012340948   127.99711412   279.66882698
 H     31  29  14     2.040450114918   125.22293469   180.92530585
 H     33  32  30     2.046930203877   121.01964473   180.74284758
 H     34  33  32     2.045617847496   122.70821597   180.59516895
 H     35  34  33     2.064814429233   105.73575241    97.19771933
 H     35  34  33     2.058786158072    84.05943581   206.43036958
 H     35  34  33     2.058418400901   133.08365142   318.50306270
 H     36  31  29     2.039845353366   126.61599965   178.98859863
 H     38  30  73     2.047975821711   118.77264435   359.90091293
 H     42   2   1     2.045020725966   119.31790784   342.38242807
 H     43  41  15     2.041436952892   126.36969097   182.06329380
 H     45  44  42     2.047097678177   121.10105945   179.58025624
 H     46  45  44     2.045051284662   122.72144639   179.46906377
 H     47  42   2     2.062723288131   106.65128841   315.16475048
 H     47  42   2     2.057569012371   132.46019523    94.52397119
 H     47  42   2     2.058915377895    83.63838232   206.04504406
 H     48  43  41     2.041664347903   127.23657387   181.62955349
 H     50  42   2     2.046925842384   118.77001737    94.71359229

---------------------
BASIS SET INFORMATION
---------------------
There are 3 groups of distinct atoms

 Group   1 Type C   : 17s4p1d contracted to 3s2p1d pattern {881/31/1}
 Group   2 Type N   : 17s4p1d contracted to 3s2p1d pattern {881/31/1}
 Group   3 Type H   : 4s1p contracted to 2s1p pattern {31/1}

Atom   0C    basis set group =>   1
Atom   1N    basis set group =>   2
Atom   2C    basis set group =>   1
Atom   3N    basis set group =>   2
Atom   4C    basis set group =>   1
Atom   5N    basis set group =>   2
Atom   6C    basis set group =>   1
Atom   7N    basis set group =>   2
Atom   8C    basis set group =>   1
Atom   9N    basis set group =>   2
Atom  10C    basis set group =>   1
Atom  11N    basis set group =>   2
Atom  12C    basis set group =>   1
Atom  13N    basis set group =>   2
Atom  14C    basis set group =>   1
Atom  15N    basis set group =>   2
Atom  16C    basis set group =>   1
Atom  17C    basis set group =>   1
Atom  18C    basis set group =>   1
Atom  19C    basis set group =>   1
Atom  20C    basis set group =>   1
Atom  21C    basis set group =>   1
Atom  22C    basis set group =>   1
Atom  23C    basis set group =>   1
Atom  24C    basis set group =>   1
Atom  25C    basis set group =>   1
Atom  26C    basis set group =>   1
Atom  27C    basis set group =>   1
Atom  28C    basis set group =>   1
Atom  29C    basis set group =>   1
Atom  30C    basis set group =>   1
Atom  31C    basis set group =>   1
Atom  32C    basis set group =>   1
Atom  33C    basis set group =>   1
Atom  34C    basis set group =>   1
Atom  35C    basis set group =>   1
Atom  36C    basis set group =>   1
Atom  37C    basis set group =>   1
Atom  38C    basis set group =>   1
Atom  39C    basis set group =>   1
Atom  40C    basis set group =>   1
Atom  41C    basis set group =>   1
Atom  42C    basis set group =>   1
Atom  43C    basis set group =>   1
Atom  44C    basis set group =>   1
Atom  45C    basis set group =>   1
Atom  46C    basis set group =>   1
Atom  47C    basis set group =>   1
Atom  48C    basis set group =>   1
Atom  49C    basis set group =>   1
Atom  50C    basis set group =>   1
Atom  51C    basis set group =>   1
Atom  52H    basis set group =>   3
Atom  53H    basis set group =>   3
Atom  54H    basis set group =>   3
Atom  55H    basis set group =>   3
Atom  56H    basis set group =>   3
Atom  57H    basis set group =>   3
Atom  58H    basis set group =>   3
Atom  59H    basis set group =>   3
Atom  60H    basis set group =>   3
Atom  61H    basis set group =>   3
Atom  62H    basis set group =>   3
Atom  63H    basis set group =>   3
Atom  64H    basis set group =>   3
Atom  65H    basis set group =>   3
Atom  66H    basis set group =>   3
Atom  67H    basis set group =>   3
Atom  68H    basis set group =>   3
Atom  69H    basis set group =>   3
Atom  70H    basis set group =>   3
Atom  71H    basis set group =>   3
Atom  72H    basis set group =>   3
Atom  73H    basis set group =>   3
Atom  74H    basis set group =>   3
Atom  75H    basis set group =>   3
Atom  76H    basis set group =>   3
Atom  77H    basis set group =>   3
Atom  78H    basis set group =>   3
Atom  79H    basis set group =>   3
Atom  80H    basis set group =>   3
Atom  81H    basis set group =>   3
Atom  82H    basis set group =>   3
Atom  83H    basis set group =>   3
Atom  84H    basis set group =>   3
Atom  85H    basis set group =>   3
Atom  86H    basis set group =>   3
Atom  87H    basis set group =>   3
Atom  88H    basis set group =>   3
Atom  89H    basis set group =>   3


           ************************************************************
           *        Program running with 16 parallel MPI-processes    *
           *              working on a common directory               *
           ************************************************************
------------------------------------------------------------------------------
                           ORCA GTO INTEGRAL CALCULATION
------------------------------------------------------------------------------
------------------------------------------------------------------------------
                   ___                                                        
                  /   \      - P O W E R E D   B Y -                         
                 /     \                                                     
                 |  |  |   _    _      __       _____    __    __             
                 |  |  |  | |  | |    /  \     |  _  \  |  |  /  |          
                  \  \/   | |  | |   /    \    | | | |  |  | /  /          
                 / \  \   | |__| |  /  /\  \   | |_| |  |  |/  /          
                |  |  |   |  __  | /  /__\  \  |    /   |      \           
                |  |  |   | |  | | |   __   |  |    \   |  |\   \          
                \     /   | |  | | |  |  |  |  | |\  \  |  | \   \       
                 \___/    |_|  |_| |__|  |__|  |_| \__\ |__|  \__/        
                                                                              
                      - O R C A' S   B I G   F R I E N D -                    
                                      &                                       
                       - I N T E G R A L  F E E D E R -                       
                                                                              
 v1 FN, 2020, v2 2021                                                         
------------------------------------------------------------------------------


Reading SHARK input file /scratch/allen/tmpyp4_amber_gaff2/conf1/conf1/Conf219.orca.SHARKINP.tmp ... ok
----------------------
SHARK INTEGRAL PACKAGE
----------------------

Number of atoms                             ...     90
Number of basis functions                   ...   1230
Number of shells                            ...    738
Maximum angular momentum                    ...      2
Integral batch strategy                     ... SHARK/LIBINT Hybrid
RI-J (if used) integral strategy            ... SPLIT-RIJ (Revised 2003 algorithm where possible)
Printlevel                                  ...      1
Contraction scheme used                     ... PARTIAL GENERAL contraction
Coulomb Range Separation                    ... NOT USED
Exchange Range Separation                   ... NOT USED
Finite Nucleus Model                        ... NOT USED
Auxiliary Coulomb fitting basis             ... NOT available
Auxiliary J/K fitting basis                 ... NOT available
Auxiliary Correlation fitting basis         ... NOT available
Auxiliary 'external' fitting basis          ... NOT available
Integral threshold                          ...     2.500000e-11
Primitive cut-off                           ...     2.500000e-12
Primitive pair pre-selection threshold      ...     2.500000e-12

Calculating pre-screening integrals         ... done (  0.1 sec) Dimension = 738
Calculating pre-screening integrals (ORCA)  ... done (  0.3 sec) Dimension = 426
Organizing shell pair data                  ... done (  0.7 sec)
Shell pair information
Total number of shell pairs                 ...    272691
Shell pairs after pre-screening             ...     71645
Total number of primitive shell pairs       ...    422091
Primitive shell pairs kept                  ...     92455
          la=0 lb=0:  29416 shell pairs
          la=1 lb=0:  25989 shell pairs
          la=1 lb=1:   4706 shell pairs
          la=2 lb=0:   7882 shell pairs
          la=2 lb=1:   3122 shell pairs
          la=2 lb=2:    530 shell pairs

Calculating one electron integrals          ... done (  0.2 sec)
Calculating Nuclear repulsion               ... done (  0.0 sec) ENN=   6229.784688860015 Eh

SHARK setup successfully completed in   2.3 seconds

Maximum memory used throughout the entire GTOINT-calculation: 99.0 MB


           ************************************************************
           *        Program running with 16 parallel MPI-processes    *
           *              working on a common directory               *
           ************************************************************
-------------------------------------------------------------------------------
                                 ORCA SCF
-------------------------------------------------------------------------------

------------
SCF SETTINGS
------------
Hamiltonian:
 Ab initio Hamiltonian  Method          .... Hartree-Fock(GTOs)


General Settings:
 Integral files         IntName         .... /scratch/allen/tmpyp4_amber_gaff2/conf1/conf1/Conf219.orca
 Hartree-Fock type      HFTyp           .... RHF
 Total Charge           Charge          ....    0
 Multiplicity           Mult            ....    1
 Number of Electrons    NEL             ....  358
 Basis Dimension        Dim             ....  918
 Nuclear Repulsion      ENuc            ....   6229.7846888600 Eh

Convergence Acceleration:
 DIIS                   CNVDIIS         .... on
   Start iteration      DIISMaxIt       ....    12
   Startup error        DIISStart       ....  0.200000
   # of expansion vecs  DIISMaxEq       ....     5
   Bias factor          DIISBfac        ....   1.050
   Max. coefficient     DIISMaxC        ....  10.000
 Trust-Rad. Augm. Hess. CNVTRAH         .... auto
   Auto Start mean grad. ratio tolernc. ....  1.125000
   Auto Start start iteration           ....    20
   Auto Start num. interpolation iter.  ....    10
   Max. Number of Micro iterations      ....    16
   Max. Number of Macro iterations      .... Maxiter - #DIIS iter
   Number of Davidson start vectors     ....     2
   Converg. threshold I  (grad. norm)   ....   1.000e-05
   Converg. threshold II (energy diff.) ....   1.000e-08
   Grad. Scal. Fac. for Micro threshold ....   0.100
   Minimum threshold for Micro iter.    ....   0.010
   NR start threshold (gradient norm)   ....   0.001
   Initial trust radius                 ....   0.400
   Minimum AH scaling param. (alpha)    ....   1.000
   Maximum AH scaling param. (alpha)    .... 1000.000
   Orbital update algorithm             .... Taylor
   White noise on init. David. guess    .... on
   Maximum white noise                  ....   0.010
   Quad. conv. algorithm                .... NR
 SOSCF                  CNVSOSCF        .... on
   Start iteration      SOSCFMaxIt      ....   150
   Startup grad/error   SOSCFStart      ....  0.003300
 Level Shifting         CNVShift        .... on
   Level shift para.    LevelShift      ....    0.2500
   Turn off err/grad.   ShiftErr        ....    0.0010
 Zerner damping         CNVZerner       .... off
 Static damping         CNVDamp         .... on
   Fraction old density DampFac         ....    0.7000
   Max. Damping (<1)    DampMax         ....    0.9800
   Min. Damping (>=0)   DampMin         ....    0.0000
   Turn off err/grad.   DampErr         ....    0.1000
 Fernandez-Rico         CNVRico         .... off

SCF Procedure:
 Maximum # iterations   MaxIter         ....   125
 SCF integral mode      SCFMode         .... Direct
   Integral package                     .... SHARK and LIBINT hybrid scheme
 Reset frequency        DirectResetFreq ....    20
 Integral Threshold     Thresh          ....  2.500e-11 Eh
 Primitive CutOff       TCut            ....  2.500e-12 Eh

Convergence Tolerance:
 Convergence Check Mode ConvCheckMode   .... Total+1el-Energy
 Convergence forced     ConvForced      .... 1
 Energy Change          TolE            ....  1.000e-08 Eh
 1-El. energy change                    ....  1.000e-05 Eh
 Orbital Gradient       TolG            ....  1.000e-05
 Orbital Rotation angle TolX            ....  1.000e-05
 DIIS Error             TolErr          ....  5.000e-07


Diagonalization of the overlap matrix:
Smallest eigenvalue                        ... 2.212e-04
Time for diagonalization                   ...    0.443 sec
Threshold for overlap eigenvalues          ... 1.000e-08
Number of eigenvalues below threshold      ... 0
Time for construction of square roots      ...    0.269 sec
Total time needed                          ...    0.718 sec

Time for model grid setup =    1.295 sec

------------------------------
INITIAL GUESS: MODEL POTENTIAL
------------------------------
Loading Hartree-Fock densities                     ... done
Calculating cut-offs                               ... done
Initializing the effective Hamiltonian             ... done
Setting up the integral package (SHARK)            ... done
Starting the Coulomb interaction                   ... done (   1.4 sec)
Reading the grid                                   ... done
Mapping shells                                     ... done
Starting the XC term evaluation                    ... done (   0.2 sec)
Transforming the Hamiltonian                       ... done (   0.3 sec)
Diagonalizing the Hamiltonian                      ... done (   0.4 sec)
Back transforming the eigenvectors                 ... done (   0.1 sec)
Now organizing SCF variables                       ... done
                      ------------------
                      INITIAL GUESS DONE (   3.8 sec)
                      ------------------
--------------
SCF ITERATIONS
--------------
ITER       Energy         Delta-E        Max-DP      RMS-DP      [F,P]     Damp
               ***  Starting incremental Fock matrix formation  ***
  0  -2121.6867743833   0.000000000000 0.06857879  0.00121456  0.2323535 0.7000
  1  -2122.3438337072  -0.657059323945 0.05197847  0.00098767  0.1438904 0.7000
                               ***Turning on DIIS***
  2  -2122.7521901892  -0.408356481905 0.12061139  0.00224006  0.0802339 0.0000
  3  -2117.8817257339   4.870464455236 0.03429210  0.00067711  0.0439816 0.0000
  4  -2123.4233937254  -5.541667991471 0.01085899  0.00022670  0.0075711 0.0000
  5  -2123.5868852929  -0.163491567555 0.00537512  0.00013336  0.0049673 0.0000
  6  -2123.5705160471   0.016369245826 0.00360202  0.00008575  0.0019908 0.0000
  7  -2123.6700240381  -0.099507990943 0.00299842  0.00006739  0.0015554 0.0000
  8  -2123.6826066807  -0.012582642603 0.00312565  0.00006334  0.0014502 0.0000
  9  -2123.6509423493   0.031664331334 0.00249505  0.00004383  0.0011575 0.0000
 10  -2123.6613485709  -0.010406221585 0.00502930  0.00008964  0.0008930 0.0000
                      *** Initiating the SOSCF procedure ***
                           *** Shutting down DIIS ***
                      *** Re-Reading the Fockian *** 
                      *** Removing any level shift *** 
ITER      Energy       Delta-E        Grad      Rot      Max-DP    RMS-DP
 11  -2123.55039338   0.1109551909  0.000213  0.000213  0.000244  0.000005
               *** Restarting incremental Fock matrix formation ***
 12  -2123.61650020  -0.0661068243  0.000879  0.005911  0.001258  0.000032
 13  -2123.61659275  -0.0000925419  0.001053  0.028703  0.005980  0.000125
 14  -2123.61674960  -0.0001568522  0.000351  0.001948  0.000568  0.000012
 15  -2123.61676545  -0.0000158522  0.000170  0.003503  0.000926  0.000019
 16  -2123.61677577  -0.0000103191  0.000168  0.003501  0.000548  0.000012
 17  -2123.61677955  -0.0000037792  0.000152  0.002295  0.000365  0.000008
 18  -2123.61678161  -0.0000020614  0.000079  0.001043  0.000320  0.000005
 19  -2123.61678257  -0.0000009641  0.000048  0.000696  0.000166  0.000003
 20  -2123.61678289  -0.0000003131  0.000026  0.000426  0.000103  0.000002
 21  -2123.61678307  -0.0000001775  0.000026  0.000513  0.000113  0.000002
 22  -2123.61678318  -0.0000001186  0.000020  0.000514  0.000105  0.000002
 23  -2123.61678325  -0.0000000690  0.000010  0.000326  0.000062  0.000001
 24  -2123.61678329  -0.0000000352  0.000006  0.000242  0.000043  0.000001
 25  -2123.61678331  -0.0000000230  0.000007  0.000166  0.000027  0.000001
 26  -2123.61678332  -0.0000000127  0.000004  0.000174  0.000028  0.000001
 27  -2123.61678333  -0.0000000074  0.000003  0.000153  0.000024  0.000001
                  ***Gradient check signals convergence***
              ***Rediagonalizing the Fockian in SOSCF/NRSCF***

               *****************************************************
               *                     SUCCESS                       *
               *           SCF CONVERGED AFTER  28 CYCLES          *
               *****************************************************


----------------
TOTAL SCF ENERGY
----------------

Total Energy       :        -2123.61678333 Eh          -57786.55049 eV

Components:
Nuclear Repulsion  :         6229.78468886 Eh          169521.05967 eV
Electronic Energy  :        -8353.40147219 Eh         -227307.61015 eV
One Electron Energy:       -15300.40981458 Eh         -416345.31764 eV
Two Electron Energy:         6947.00834239 Eh          189037.70749 eV

Virial components:
Potential Energy   :        -4245.73569892 Eh         -115532.34192 eV
Kinetic Energy     :         2122.11891558 Eh           57745.79143 eV
Virial Ratio       :            2.00070584


---------------
SCF CONVERGENCE
---------------

  Last Energy change         ...   -2.4829e-09  Tolerance :   1.0000e-08
  Last MAX-Density change    ...    1.4772e-05  Tolerance :   1.0000e-07
  Last RMS-Density change    ...    3.5330e-07  Tolerance :   5.0000e-09
  Last Orbital Gradient      ...    2.3942e-06  Tolerance :   1.0000e-05
  Last Orbital Rotation      ...    1.0379e-04  Tolerance :   1.0000e-05

             **** THE GBW FILE WAS UPDATED (/scratch/allen/tmpyp4_amber_gaff2/conf1/conf1/Conf219.orca.gbw) ****
             **** DENSITY /scratch/allen/tmpyp4_amber_gaff2/conf1/conf1/Conf219.orca.scfp WAS UPDATED ****
             **** ENERGY FILE WAS UPDATED (/scratch/allen/tmpyp4_amber_gaff2/conf1/conf1/Conf219.orca.en.tmp) ****
             **** THE GBW FILE WAS UPDATED (/scratch/allen/tmpyp4_amber_gaff2/conf1/conf1/Conf219.orca.gbw) ****
             **** DENSITY /scratch/allen/tmpyp4_amber_gaff2/conf1/conf1/Conf219.orca.scfp WAS UPDATED ****
----------------
ORBITAL ENERGIES
----------------

  NO   OCC          E(Eh)            E(eV) 
   0   2.0000     -15.666796      -426.3152 
   1   2.0000     -15.635934      -425.4754 
   2   2.0000     -15.630201      -425.3194 
   3   2.0000     -15.596400      -424.3996 
   4   2.0000     -15.523806      -422.4242 
   5   2.0000     -15.516382      -422.2222 
   6   2.0000     -15.450919      -420.4409 
   7   2.0000     -15.442269      -420.2055 
   8   2.0000     -11.319904      -308.0303 
   9   2.0000     -11.318883      -308.0025 
  10   2.0000     -11.317129      -307.9547 
  11   2.0000     -11.300535      -307.5032 
  12   2.0000     -11.297249      -307.4138 
  13   2.0000     -11.293948      -307.3240 
  14   2.0000     -11.288995      -307.1892 
  15   2.0000     -11.288952      -307.1880 
  16   2.0000     -11.285786      -307.1018 
  17   2.0000     -11.276700      -306.8546 
  18   2.0000     -11.269842      -306.6680 
  19   2.0000     -11.260610      -306.4168 
  20   2.0000     -11.260202      -306.4057 
  21   2.0000     -11.254239      -306.2434 
  22   2.0000     -11.253302      -306.2179 
  23   2.0000     -11.239484      -305.8419 
  24   2.0000     -11.234939      -305.7182 
  25   2.0000     -11.232585      -305.6542 
  26   2.0000     -11.231788      -305.6325 
  27   2.0000     -11.228447      -305.5416 
  28   2.0000     -11.228347      -305.5389 
  29   2.0000     -11.208132      -304.9888 
  30   2.0000     -11.207040      -304.9591 
  31   2.0000     -11.205938      -304.9291 
  32   2.0000     -11.200749      -304.7879 
  33   2.0000     -11.198509      -304.7269 
  34   2.0000     -11.190861      -304.5188 
  35   2.0000     -11.190186      -304.5004 
  36   2.0000     -11.185662      -304.3774 
  37   2.0000     -11.183088      -304.3073 
  38   2.0000     -11.182194      -304.2830 
  39   2.0000     -11.172870      -304.0292 
  40   2.0000     -11.170065      -303.9529 
  41   2.0000     -11.169465      -303.9366 
  42   2.0000     -11.165907      -303.8398 
  43   2.0000     -11.163221      -303.7667 
  44   2.0000     -11.161413      -303.7175 
  45   2.0000     -11.159968      -303.6782 
  46   2.0000     -11.156038      -303.5712 
  47   2.0000     -11.151888      -303.4583 
  48   2.0000     -11.149263      -303.3869 
  49   2.0000     -11.143149      -303.2205 
  50   2.0000     -11.134951      -302.9974 
  51   2.0000     -11.127385      -302.7915 
  52   2.0000      -1.349327       -36.7170 
  53   2.0000      -1.322899       -35.9979 
  54   2.0000      -1.318149       -35.8687 
  55   2.0000      -1.289759       -35.0961 
  56   2.0000      -1.223932       -33.3049 
  57   2.0000      -1.211126       -32.9564 
  58   2.0000      -1.169297       -31.8182 
  59   2.0000      -1.153613       -31.3914 
  60   2.0000      -1.134335       -30.8668 
  61   2.0000      -1.111511       -30.2458 
  62   2.0000      -1.107708       -30.1423 
  63   2.0000      -1.084987       -29.5240 
  64   2.0000      -1.071811       -29.1654 
  65   2.0000      -1.046976       -28.4897 
  66   2.0000      -1.042876       -28.3781 
  67   2.0000      -1.035088       -28.1662 
  68   2.0000      -1.017877       -27.6979 
  69   2.0000      -1.013830       -27.5877 
  70   2.0000      -1.009822       -27.4787 
  71   2.0000      -0.992479       -27.0067 
  72   2.0000      -0.987437       -26.8695 
  73   2.0000      -0.977643       -26.6030 
  74   2.0000      -0.972887       -26.4736 
  75   2.0000      -0.959954       -26.1217 
  76   2.0000      -0.951654       -25.8958 
  77   2.0000      -0.947665       -25.7873 
  78   2.0000      -0.935880       -25.4666 
  79   2.0000      -0.920859       -25.0578 
  80   2.0000      -0.901829       -24.5400 
  81   2.0000      -0.891761       -24.2660 
  82   2.0000      -0.874566       -23.7981 
  83   2.0000      -0.871009       -23.7014 
  84   2.0000      -0.866625       -23.5821 
  85   2.0000      -0.855867       -23.2893 
  86   2.0000      -0.843482       -22.9523 
  87   2.0000      -0.837495       -22.7894 
  88   2.0000      -0.823072       -22.3969 
  89   2.0000      -0.798476       -21.7276 
  90   2.0000      -0.793856       -21.6019 
  91   2.0000      -0.746500       -20.3133 
  92   2.0000      -0.738888       -20.1062 
  93   2.0000      -0.731962       -19.9177 
  94   2.0000      -0.723034       -19.6748 
  95   2.0000      -0.721015       -19.6198 
  96   2.0000      -0.714367       -19.4389 
  97   2.0000      -0.707812       -19.2605 
  98   2.0000      -0.703852       -19.1528 
  99   2.0000      -0.696031       -18.9400 
 100   2.0000      -0.694863       -18.9082 
 101   2.0000      -0.682576       -18.5738 
 102   2.0000      -0.678807       -18.4713 
 103   2.0000      -0.676463       -18.4075 
 104   2.0000      -0.675810       -18.3897 
 105   2.0000      -0.672057       -18.2876 
 106   2.0000      -0.666294       -18.1308 
 107   2.0000      -0.662085       -18.0162 
 108   2.0000      -0.655116       -17.8266 
 109   2.0000      -0.654182       -17.8012 
 110   2.0000      -0.650018       -17.6879 
 111   2.0000      -0.645424       -17.5629 
 112   2.0000      -0.641972       -17.4689 
 113   2.0000      -0.637872       -17.3574 
 114   2.0000      -0.636660       -17.3244 
 115   2.0000      -0.628585       -17.1047 
 116   2.0000      -0.625913       -17.0319 
 117   2.0000      -0.616675       -16.7806 
 118   2.0000      -0.613849       -16.7037 
 119   2.0000      -0.611870       -16.6498 
 120   2.0000      -0.610121       -16.6022 
 121   2.0000      -0.603338       -16.4177 
 122   2.0000      -0.600693       -16.3457 
 123   2.0000      -0.587996       -16.0002 
 124   2.0000      -0.584146       -15.8954 
 125   2.0000      -0.581872       -15.8335 
 126   2.0000      -0.579446       -15.7675 
 127   2.0000      -0.577255       -15.7079 
 128   2.0000      -0.564336       -15.3564 
 129   2.0000      -0.558699       -15.2030 
 130   2.0000      -0.553546       -15.0628 
 131   2.0000      -0.548411       -14.9230 
 132   2.0000      -0.541945       -14.7471 
 133   2.0000      -0.538307       -14.6481 
 134   2.0000      -0.536832       -14.6079 
 135   2.0000      -0.535152       -14.5622 
 136   2.0000      -0.526344       -14.3225 
 137   2.0000      -0.524621       -14.2757 
 138   2.0000      -0.516760       -14.0617 
 139   2.0000      -0.514401       -13.9976 
 140   2.0000      -0.511442       -13.9170 
 141   2.0000      -0.510896       -13.9022 
 142   2.0000      -0.508751       -13.8438 
 143   2.0000      -0.502897       -13.6845 
 144   2.0000      -0.501408       -13.6440 
 145   2.0000      -0.497815       -13.5462 
 146   2.0000      -0.494164       -13.4469 
 147   2.0000      -0.485751       -13.2180 
 148   2.0000      -0.482604       -13.1323 
 149   2.0000      -0.468046       -12.7362 
 150   2.0000      -0.464607       -12.6426 
 151   2.0000      -0.456606       -12.4249 
 152   2.0000      -0.449275       -12.2254 
 153   2.0000      -0.445991       -12.1360 
 154   2.0000      -0.443336       -12.0638 
 155   2.0000      -0.440050       -11.9744 
 156   2.0000      -0.430957       -11.7269 
 157   2.0000      -0.424012       -11.5380 
 158   2.0000      -0.401595       -10.9280 
 159   2.0000      -0.387723       -10.5505 
 160   2.0000      -0.379408       -10.3242 
 161   2.0000      -0.377822       -10.2811 
 162   2.0000      -0.370205       -10.0738 
 163   2.0000      -0.357888        -9.7386 
 164   2.0000      -0.354621        -9.6497 
 165   2.0000      -0.338808        -9.2194 
 166   2.0000      -0.337182        -9.1752 
 167   2.0000      -0.329950        -8.9784 
 168   2.0000      -0.327052        -8.8995 
 169   2.0000      -0.302499        -8.2314 
 170   2.0000      -0.299847        -8.1593 
 171   2.0000      -0.286887        -7.8066 
 172   2.0000      -0.283894        -7.7251 
 173   2.0000      -0.261073        -7.1042 
 174   2.0000      -0.244623        -6.6565 
 175   2.0000      -0.189616        -5.1597 
 176   2.0000      -0.179861        -4.8943 
 177   2.0000      -0.073229        -1.9927 
 178   2.0000      -0.057434        -1.5628 
 179   0.0000       0.028923         0.7870 
 180   0.0000       0.067540         1.8379 
 181   0.0000       0.091850         2.4994 
 182   0.0000       0.106456         2.8968 
 183   0.0000       0.114821         3.1244 
 184   0.0000       0.135945         3.6992 
 185   0.0000       0.140292         3.8175 
 186   0.0000       0.147704         4.0192 
 187   0.0000       0.162470         4.4210 
 188   0.0000       0.164077         4.4648 
 189   0.0000       0.165390         4.5005 
 190   0.0000       0.166639         4.5345 
 191   0.0000       0.183693         4.9985 
 192   0.0000       0.187233         5.0949 
 193   0.0000       0.190633         5.1874 
 194   0.0000       0.203908         5.5486 
 195   0.0000       0.206553         5.6206 
 196   0.0000       0.207223         5.6388 
 197   0.0000       0.209587         5.7032 
 198   0.0000       0.222861         6.0643 
 199   0.0000       0.223699         6.0871 
 200   0.0000       0.227619         6.1938 
 201   0.0000       0.238106         6.4792 
 202   0.0000       0.240402         6.5417 
 203   0.0000       0.240853         6.5539 
 204   0.0000       0.250473         6.8157 
 205   0.0000       0.255688         6.9576 
 206   0.0000       0.257318         7.0020 
 207   0.0000       0.259659         7.0657 
 208   0.0000       0.260510         7.0888 
 209   0.0000       0.261284         7.1099 
 210   0.0000       0.264104         7.1866 
 211   0.0000       0.269989         7.3468 
 212   0.0000       0.271275         7.3818 
 213   0.0000       0.272495         7.4150 
 214   0.0000       0.275301         7.4913 
 215   0.0000       0.276672         7.5286 
 216   0.0000       0.278735         7.5848 
 217   0.0000       0.280605         7.6357 
 218   0.0000       0.284905         7.7527 
 219   0.0000       0.288909         7.8616 
 220   0.0000       0.289534         7.8786 
 221   0.0000       0.292731         7.9656 
 222   0.0000       0.294338         8.0094 
 223   0.0000       0.296106         8.0574 
 224   0.0000       0.298220         8.1150 
 225   0.0000       0.298770         8.1299 
 226   0.0000       0.305829         8.3220 
 227   0.0000       0.308649         8.3988 
 228   0.0000       0.310222         8.4416 
 229   0.0000       0.322304         8.7703 
 230   0.0000       0.324130         8.8200 
 231   0.0000       0.327286         8.9059 
 232   0.0000       0.329426         8.9641 
 233   0.0000       0.336468         9.1558 
 234   0.0000       0.347411         9.4535 
 235   0.0000       0.349432         9.5085 
 236   0.0000       0.360790         9.8176 
 237   0.0000       0.380343        10.3496 
 238   0.0000       0.394679        10.7398 
 239   0.0000       0.397562        10.8182 
 240   0.0000       0.401148        10.9158 
 241   0.0000       0.413544        11.2531 
 242   0.0000       0.418469        11.3871 
 243   0.0000       0.420403        11.4397 
 244   0.0000       0.429327        11.6826 
 245   0.0000       0.432902        11.7799 
 246   0.0000       0.435709        11.8562 
 247   0.0000       0.440367        11.9830 
 248   0.0000       0.442285        12.0352 
 249   0.0000       0.446756        12.1568 
 250   0.0000       0.450908        12.2698 
 251   0.0000       0.458493        12.4762 
 252   0.0000       0.461956        12.5705 
 253   0.0000       0.468706        12.7541 
 254   0.0000       0.471338        12.8258 
 255   0.0000       0.473219        12.8769 
 256   0.0000       0.480945        13.0872 
 257   0.0000       0.482182        13.1208 
 258   0.0000       0.487394        13.2627 
 259   0.0000       0.498947        13.5770 
 260   0.0000       0.502763        13.6809 
 261   0.0000       0.504861        13.7380 
 262   0.0000       0.506797        13.7907 
 263   0.0000       0.508573        13.8390 
 264   0.0000       0.513883        13.9835 
 265   0.0000       0.519378        14.1330 
 266   0.0000       0.522463        14.2169 
 267   0.0000       0.525127        14.2894 
 268   0.0000       0.533521        14.5179 
 269   0.0000       0.537768        14.6334 
 270   0.0000       0.540743        14.7144 
 271   0.0000       0.547124        14.8880 
 272   0.0000       0.549574        14.9547 
 273   0.0000       0.557876        15.1806 
 274   0.0000       0.560305        15.2467 
 275   0.0000       0.566042        15.4028 
 276   0.0000       0.569281        15.4909 
 277   0.0000       0.573042        15.5933 
 278   0.0000       0.578837        15.7509 
 279   0.0000       0.586017        15.9463 
 280   0.0000       0.589047        16.0288 
 281   0.0000       0.592253        16.1160 
 282   0.0000       0.593718        16.1559 
 283   0.0000       0.596863        16.2415 
 284   0.0000       0.598326        16.2813 
 285   0.0000       0.600656        16.3447 
 286   0.0000       0.607656        16.5352 
 287   0.0000       0.611557        16.6413 
 288   0.0000       0.612826        16.6759 
 289   0.0000       0.621674        16.9166 
 290   0.0000       0.628041        17.0899 
 291   0.0000       0.629362        17.1258 
 292   0.0000       0.633098        17.2275 
 293   0.0000       0.635556        17.2944 
 294   0.0000       0.646359        17.5883 
 295   0.0000       0.649155        17.6644 
 296   0.0000       0.653753        17.7895 
 297   0.0000       0.656900        17.8752 
 298   0.0000       0.665367        18.1056 
 299   0.0000       0.666281        18.1304 
 300   0.0000       0.669698        18.2234 
 301   0.0000       0.671511        18.2727 
 302   0.0000       0.678225        18.4554 
 303   0.0000       0.680248        18.5105 
 304   0.0000       0.682202        18.5637 
 305   0.0000       0.687646        18.7118 
 306   0.0000       0.689973        18.7751 
 307   0.0000       0.691527        18.8174 
 308   0.0000       0.696688        18.9578 
 309   0.0000       0.698150        18.9976 
 310   0.0000       0.701062        19.0769 
 311   0.0000       0.703603        19.1460 
 312   0.0000       0.705425        19.1956 
 313   0.0000       0.710281        19.3277 
 314   0.0000       0.711595        19.3635 
 315   0.0000       0.714490        19.4423 
 316   0.0000       0.717349        19.5200 
 317   0.0000       0.718907        19.5625 
 318   0.0000       0.721439        19.6314 
 319   0.0000       0.724170        19.7057 
 320   0.0000       0.725678        19.7467 
 321   0.0000       0.729202        19.8426 
 322   0.0000       0.732641        19.9362 
 323   0.0000       0.737257        20.0618 
 324   0.0000       0.737680        20.0733 
 325   0.0000       0.739069        20.1111 
 326   0.0000       0.742737        20.2109 
 327   0.0000       0.745715        20.2919 
 328   0.0000       0.749280        20.3889 
 329   0.0000       0.750365        20.4185 
 330   0.0000       0.752715        20.4824 
 331   0.0000       0.755993        20.5716 
 332   0.0000       0.757408        20.6101 
 333   0.0000       0.761609        20.7244 
 334   0.0000       0.768697        20.9173 
 335   0.0000       0.771406        20.9910 
 336   0.0000       0.774772        21.0826 
 337   0.0000       0.783948        21.3323 
 338   0.0000       0.786874        21.4119 
 339   0.0000       0.787692        21.4342 
 340   0.0000       0.789999        21.4970 
 341   0.0000       0.795011        21.6333 
 342   0.0000       0.797946        21.7132 
 343   0.0000       0.802309        21.8319 
 344   0.0000       0.806569        21.9479 
 345   0.0000       0.807245        21.9663 
 346   0.0000       0.808777        22.0080 
 347   0.0000       0.811131        22.0720 
 348   0.0000       0.812167        22.1002 
 349   0.0000       0.818532        22.2734 
 350   0.0000       0.821110        22.3435 
 351   0.0000       0.821745        22.3608 
 352   0.0000       0.824597        22.4384 
 353   0.0000       0.826730        22.4965 
 354   0.0000       0.828569        22.5465 
 355   0.0000       0.831518        22.6268 
 356   0.0000       0.832211        22.6456 
 357   0.0000       0.835764        22.7423 
 358   0.0000       0.836997        22.7759 
 359   0.0000       0.838364        22.8131 
 360   0.0000       0.839589        22.8464 
 361   0.0000       0.842978        22.9386 
 362   0.0000       0.843819        22.9615 
 363   0.0000       0.844831        22.9890 
 364   0.0000       0.848204        23.0808 
 365   0.0000       0.852680        23.2026 
 366   0.0000       0.856566        23.3083 
 367   0.0000       0.858910        23.3721 
 368   0.0000       0.862143        23.4601 
 369   0.0000       0.865080        23.5400 
 370   0.0000       0.869452        23.6590 
 371   0.0000       0.873992        23.7825 
 372   0.0000       0.874802        23.8046 
 373   0.0000       0.877521        23.8786 
 374   0.0000       0.879439        23.9308 
 375   0.0000       0.882847        24.0235 
 376   0.0000       0.884252        24.0617 
 377   0.0000       0.888151        24.1678 
 378   0.0000       0.889777        24.2121 
 379   0.0000       0.894579        24.3427 
 380   0.0000       0.896075        24.3835 
 381   0.0000       0.899576        24.4787 
 382   0.0000       0.901598        24.5337 
 383   0.0000       0.902354        24.5543 
 384   0.0000       0.904077        24.6012 
 385   0.0000       0.905237        24.6328 
 386   0.0000       0.907761        24.7014 
 387   0.0000       0.909649        24.7528 
 388   0.0000       0.910096        24.7650 
 389   0.0000       0.916711        24.9450 
 390   0.0000       0.919080        25.0094 
 391   0.0000       0.921412        25.0729 
 392   0.0000       0.923437        25.1280 
 393   0.0000       0.926555        25.2128 
 394   0.0000       0.929169        25.2840 
 395   0.0000       0.930306        25.3149 
 396   0.0000       0.931223        25.3399 
 397   0.0000       0.934851        25.4386 
 398   0.0000       0.940002        25.5787 
 399   0.0000       0.942273        25.6406 
 400   0.0000       0.944642        25.7050 
 401   0.0000       0.947128        25.7727 
 402   0.0000       0.952343        25.9146 
 403   0.0000       0.956355        26.0237 
 404   0.0000       0.959039        26.0968 
 405   0.0000       0.961200        26.1556 
 406   0.0000       0.962888        26.2015 
 407   0.0000       0.966792        26.3077 
 408   0.0000       0.968671        26.3589 
 409   0.0000       0.976996        26.5854 
 410   0.0000       0.980685        26.6858 
 411   0.0000       0.985622        26.8201 
 412   0.0000       0.988460        26.8974 
 413   0.0000       0.992072        26.9956 
 414   0.0000       0.994278        27.0557 
 415   0.0000       0.995520        27.0895 
 416   0.0000       1.002631        27.2830 
 417   0.0000       1.010491        27.4969 
 418   0.0000       1.014321        27.6011 
 419   0.0000       1.018986        27.7280 
 420   0.0000       1.026790        27.9404 
 421   0.0000       1.030907        28.0524 
 422   0.0000       1.032977        28.1087 
 423   0.0000       1.042324        28.3631 
 424   0.0000       1.047598        28.5066 
 425   0.0000       1.048065        28.5193 
 426   0.0000       1.058756        28.8102 
 427   0.0000       1.063727        28.9455 
 428   0.0000       1.068021        29.0623 
 429   0.0000       1.076815        29.3016 
 430   0.0000       1.078984        29.3606 
 431   0.0000       1.083180        29.4748 
 432   0.0000       1.085489        29.5377 
 433   0.0000       1.090615        29.6771 
 434   0.0000       1.099291        29.9132 
 435   0.0000       1.101050        29.9611 
 436   0.0000       1.105861        30.0920 
 437   0.0000       1.111286        30.2396 
 438   0.0000       1.114507        30.3273 
 439   0.0000       1.118295        30.4304 
 440   0.0000       1.120210        30.4825 
 441   0.0000       1.122665        30.5493 
 442   0.0000       1.124805        30.6075 
 443   0.0000       1.128318        30.7031 
 444   0.0000       1.132676        30.8217 
 445   0.0000       1.135805        30.9068 
 446   0.0000       1.141082        31.0504 
 447   0.0000       1.143404        31.1136 
 448   0.0000       1.145289        31.1649 
 449   0.0000       1.149576        31.2816 
 450   0.0000       1.151834        31.3430 
 451   0.0000       1.153828        31.3973 
 452   0.0000       1.158136        31.5145 
 453   0.0000       1.161731        31.6123 
 454   0.0000       1.164796        31.6957 
 455   0.0000       1.170013        31.8377 
 456   0.0000       1.172562        31.9070 
 457   0.0000       1.175710        31.9927 
 458   0.0000       1.179534        32.0967 
 459   0.0000       1.184389        32.2289 
 460   0.0000       1.186698        32.2917 
 461   0.0000       1.196682        32.5634 
 462   0.0000       1.201836        32.7036 
 463   0.0000       1.204651        32.7802 
 464   0.0000       1.207826        32.8666 
 465   0.0000       1.209932        32.9239 
 466   0.0000       1.215717        33.0813 
 467   0.0000       1.217729        33.1361 
 468   0.0000       1.222084        33.2546 
 469   0.0000       1.226201        33.3666 
 470   0.0000       1.229757        33.4634 
 471   0.0000       1.232024        33.5251 
 472   0.0000       1.234453        33.5912 
 473   0.0000       1.235043        33.6072 
 474   0.0000       1.242921        33.8216 
 475   0.0000       1.244844        33.8739 
 476   0.0000       1.248949        33.9856 
 477   0.0000       1.250614        34.0309 
 478   0.0000       1.251171        34.0461 
 479   0.0000       1.254083        34.1253 
 480   0.0000       1.259318        34.2678 
 481   0.0000       1.264847        34.4182 
 482   0.0000       1.265521        34.4366 
 483   0.0000       1.269802        34.5531 
 484   0.0000       1.271937        34.6112 
 485   0.0000       1.277563        34.7642 
 486   0.0000       1.281030        34.8586 
 487   0.0000       1.283854        34.9355 
 488   0.0000       1.287306        35.0294 
 489   0.0000       1.291008        35.1301 
 490   0.0000       1.292618        35.1739 
 491   0.0000       1.297743        35.3134 
 492   0.0000       1.299407        35.3587 
 493   0.0000       1.309624        35.6367 
 494   0.0000       1.311022        35.6747 
 495   0.0000       1.314119        35.7590 
 496   0.0000       1.320646        35.9366 
 497   0.0000       1.323237        36.0071 
 498   0.0000       1.326031        36.0831 
 499   0.0000       1.329552        36.1790 
 500   0.0000       1.331872        36.2421 
 501   0.0000       1.335275        36.3347 
 502   0.0000       1.336820        36.3767 
 503   0.0000       1.343735        36.5649 
 504   0.0000       1.346315        36.6351 
 505   0.0000       1.350641        36.7528 
 506   0.0000       1.352917        36.8147 
 507   0.0000       1.358293        36.9610 
 508   0.0000       1.359464        36.9929 
 509   0.0000       1.361625        37.0517 
[...]
      pz      :     0.022071  p :     0.079714
      px      :     0.043515
      py      :     0.014128
 77 H s       :     0.885977  s :     0.885977
      pz      :     0.047868  p :     0.079163
      px      :     0.015019
      py      :     0.016276
 78 H s       :     0.886351  s :     0.886351
      pz      :     0.025826  p :     0.079120
      px      :     0.020487
      py      :     0.032808
 79 H s       :     0.910142  s :     0.910142
      pz      :     0.021906  p :     0.086447
      px      :     0.021694
      py      :     0.042847
 80 H s       :     0.866453  s :     0.866453
      pz      :     0.039225  p :     0.084599
      px      :     0.030167
      py      :     0.015207
 81 H s       :     0.887097  s :     0.887097
      pz      :     0.037789  p :     0.084052
      px      :     0.016181
      py      :     0.030082
 82 H s       :     0.915729  s :     0.915729
      pz      :     0.021996  p :     0.086765
      px      :     0.031563
      py      :     0.033206
 83 H s       :     0.873225  s :     0.873225
      pz      :     0.039268  p :     0.084049
      px      :     0.015269
      py      :     0.029512
 84 H s       :     0.886859  s :     0.886859
      pz      :     0.035775  p :     0.083529
      px      :     0.031702
      py      :     0.016052
 85 H s       :     0.893144  s :     0.893144
      pz      :     0.022492  p :     0.079773
      px      :     0.014078
      py      :     0.043203
 86 H s       :     0.890965  s :     0.890965
      pz      :     0.024727  p :     0.078835
      px      :     0.032981
      py      :     0.021126
 87 H s       :     0.890050  s :     0.890050
      pz      :     0.047990  p :     0.078721
      px      :     0.015594
      py      :     0.015138
 88 H s       :     0.911477  s :     0.911477
      pz      :     0.021739  p :     0.086995
      px      :     0.042821
      py      :     0.022435
 89 H s       :     0.871924  s :     0.871924
      pz      :     0.037913  p :     0.083821
      px      :     0.030461
      py      :     0.015447


                      *****************************
                      * MAYER POPULATION ANALYSIS *
                      *****************************

  NA   - Mulliken gross atomic population
  ZA   - Total nuclear charge
  QA   - Mulliken gross atomic charge
  VA   - Mayer's total valence
  BVA  - Mayer's bonded valence
  FA   - Mayer's free valence

  ATOM       NA         ZA         QA         VA         BVA        FA
  0 C      5.7916     6.0000     0.2084     3.8371     3.8371     0.0000
  1 N      7.4537     7.0000    -0.4537     3.3344     3.3344     0.0000
  2 C      6.0632     6.0000    -0.0632     3.9200     3.9200    -0.0000
  3 N      7.3362     7.0000    -0.3362     3.4560     3.4560    -0.0000
  4 C      6.0499     6.0000    -0.0499     4.0065     4.0065     0.0000
  5 N      7.5632     7.0000    -0.5632     3.0926     3.0926     0.0000
  6 C      6.1082     6.0000    -0.1082     4.0063     4.0063    -0.0000
  7 N      7.3397     7.0000    -0.3397     3.4360     3.4360    -0.0000
  8 C      5.7952     6.0000     0.2048     3.8398     3.8398     0.0000
  9 N      7.5626     7.0000    -0.5626     3.0791     3.0791    -0.0000
 10 C      5.8813     6.0000     0.1187     3.9067     3.9067    -0.0000
 11 N      7.4380     7.0000    -0.4380     3.3803     3.3803     0.0000
 12 C      6.0838     6.0000    -0.0838     3.9098     3.9098     0.0000
 13 N      7.4325     7.0000    -0.4325     3.4140     3.4140    -0.0000
 14 C      5.7614     6.0000     0.2386     3.7810     3.7810    -0.0000
 15 N      7.4411     7.0000    -0.4411     3.3712     3.3712     0.0000
 16 C      5.7718     6.0000     0.2282     3.7825     3.7825    -0.0000
 17 C      6.1083     6.0000    -0.1083     4.0025     4.0025     0.0000
 18 C      6.2035     6.0000    -0.2035     3.7701     3.7701     0.0000
 19 C      5.7679     6.0000     0.2321     3.8595     3.8595     0.0000
 20 C      5.7877     6.0000     0.2123     3.8282     3.8282    -0.0000
 21 C      6.0954     6.0000    -0.0954     3.8969     3.8969    -0.0000
 22 C      6.0904     6.0000    -0.0904     3.9827     3.9827    -0.0000
 23 C      6.0418     6.0000    -0.0418     3.9921     3.9921    -0.0000
 24 C      5.8031     6.0000     0.1969     3.8218     3.8218    -0.0000
 25 C      5.8857     6.0000     0.1143     3.8909     3.8909    -0.0000
 26 C      6.0761     6.0000    -0.0761     3.9095     3.9095    -0.0000
 27 C      5.7861     6.0000     0.2139     3.8680     3.8680    -0.0000
 28 C      6.0594     6.0000    -0.0594     3.9884     3.9884     0.0000
 29 C      6.1805     6.0000    -0.1805     3.7431     3.7431     0.0000
 30 C      5.7568     6.0000     0.2432     3.7985     3.7985    -0.0000
 31 C      5.7750     6.0000     0.2250     3.8204     3.8204     0.0000
 32 C      6.0627     6.0000    -0.0627     3.9218     3.9218    -0.0000
 33 C      6.0665     6.0000    -0.0665     3.9762     3.9762     0.0000
 34 C      6.0505     6.0000    -0.0505     3.9862     3.9862    -0.0000
 35 C      5.7790     6.0000     0.2210     3.8193     3.8193    -0.0000
 36 C      5.8901     6.0000     0.1099     3.8797     3.8797    -0.0000
 37 C      6.0651     6.0000    -0.0651     3.9176     3.9176     0.0000
 38 C      5.7669     6.0000     0.2331     3.8001     3.8001     0.0000
 39 C      6.0590     6.0000    -0.0590     3.9855     3.9855     0.0000
 40 C      6.1834     6.0000    -0.1834     3.7314     3.7314     0.0000
 41 C      5.7756     6.0000     0.2244     3.8849     3.8849    -0.0000
 42 C      5.8014     6.0000     0.1986     3.8265     3.8265    -0.0000
 43 C      6.0726     6.0000    -0.0726     3.9008     3.9008     0.0000
 44 C      6.0898     6.0000    -0.0898     3.9850     3.9850     0.0000
 45 C      6.0590     6.0000    -0.0590     3.9925     3.9925     0.0000
 46 C      5.7910     6.0000     0.2090     3.8279     3.8279    -0.0000
 47 C      5.8845     6.0000     0.1155     3.8934     3.8934     0.0000
 48 C      6.0690     6.0000    -0.0690     3.9082     3.9082     0.0000
 49 C      5.7645     6.0000     0.2355     3.8911     3.8911    -0.0000
 50 C      6.0483     6.0000    -0.0483     3.9906     3.9906    -0.0000
 51 C      6.1909     6.0000    -0.1909     3.7357     3.7357    -0.0000
 52 H      0.9571     1.0000     0.0429     0.9859     0.9859     0.0000
 53 H      1.0158     1.0000    -0.0158     0.9983     0.9983     0.0000
 54 H      0.9509     1.0000     0.0491     1.0113     1.0113    -0.0000
 55 H      0.9591     1.0000     0.0409     0.9866     0.9866     0.0000
 56 H      0.9493     1.0000     0.0507     0.9699     0.9699     0.0000
 57 H      0.9509     1.0000     0.0491     0.9831     0.9831    -0.0000
 58 H      0.9507     1.0000     0.0493     0.9849     0.9849    -0.0000
 59 H      0.9998     1.0000     0.0002     1.0033     1.0033     0.0000
 60 H      0.9482     1.0000     0.0518     1.0131     1.0131     0.0000
 61 H      0.8285     1.0000     0.1715     1.0421     1.0421     0.0000
 62 H      0.8252     1.0000     0.1748     1.0435     1.0435    -0.0000
 63 H      0.9442     1.0000     0.0558     0.9853     0.9853    -0.0000
 64 H      1.0083     1.0000    -0.0083     0.9982     0.9982    -0.0000
 65 H      0.9524     1.0000     0.0476     1.0093     1.0093    -0.0000
 66 H      0.9435     1.0000     0.0565     0.9854     0.9854    -0.0000
 67 H      0.9374     1.0000     0.0626     0.9720     0.9720     0.0000
 68 H      0.9423     1.0000     0.0577     0.9868     0.9868    -0.0000
 69 H      0.9429     1.0000     0.0571     0.9828     0.9828    -0.0000
 70 H      1.0281     1.0000    -0.0281     0.9935     0.9935     0.0000
 71 H      0.9544     1.0000     0.0456     1.0061     1.0061     0.0000
 72 H      0.9329     1.0000     0.0671     0.9840     0.9840     0.0000
 73 H      1.0095     1.0000    -0.0095     1.0003     1.0003     0.0000
 74 H      0.9435     1.0000     0.0565     1.0101     1.0101     0.0000
 75 H      0.9336     1.0000     0.0664     0.9844     0.9844    -0.0000
 76 H      0.9288     1.0000     0.0712     0.9720     0.9720     0.0000
 77 H      0.9348     1.0000     0.0652     0.9854     0.9854     0.0000
 78 H      0.9356     1.0000     0.0644     0.9852     0.9852     0.0000
 79 H      1.0157     1.0000    -0.0157     0.9981     0.9981     0.0000
 80 H      0.9427     1.0000     0.0573     1.0072     1.0072     0.0000
 81 H      0.9463     1.0000     0.0537     0.9856     0.9856     0.0000
 82 H      1.0245     1.0000    -0.0245     0.9936     0.9936     0.0000
 83 H      0.9579     1.0000     0.0421     1.0085     1.0085    -0.0000
 84 H      0.9462     1.0000     0.0538     0.9853     0.9853     0.0000
 85 H      0.9397     1.0000     0.0603     0.9716     0.9716     0.0000
 86 H      0.9444     1.0000     0.0556     0.9839     0.9839     0.0000
 87 H      0.9432     1.0000     0.0568     0.9856     0.9856    -0.0000
 88 H      1.0163     1.0000    -0.0163     0.9962     0.9962    -0.0000
 89 H      0.9547     1.0000     0.0453     1.0074     1.0074    -0.0000

  Mayer bond orders larger than 0.100000
B(  0-C ,  1-N ) :   1.0936 B(  0-C , 17-C ) :   1.6941 B(  0-C , 52-H ) :   0.9677 
B(  1-N ,  8-C ) :   1.0911 B(  1-N , 10-C ) :   0.9752 B(  2-C , 12-C ) :   1.5146 
B(  2-C , 16-C ) :   1.3494 B(  2-C , 53-H ) :   0.9760 B(  3-N , 14-C ) :   1.2161 
B(  3-N , 16-C ) :   1.1920 B(  3-N , 61-H ) :   0.8990 B(  4-C ,  6-C ) :   1.2201 
B(  4-C , 17-C ) :   1.2195 B(  4-C , 18-C ) :   1.4058 B(  5-N , 19-C ) :   1.4467 
B(  5-N , 27-C ) :   1.3835 B(  6-C ,  8-C ) :   1.6924 B(  6-C , 54-H ) :   0.9635 
B(  7-N , 30-C ) :   1.1953 B(  7-N , 38-C ) :   1.1935 B(  7-N , 62-H ) :   0.8972 
B(  8-C , 55-H ) :   0.9685 B(  9-N , 41-C ) :   1.3970 B(  9-N , 49-C ) :   1.4236 
B( 10-C , 56-H ) :   0.9768 B( 10-C , 57-H ) :   0.9821 B( 10-C , 58-H ) :   0.9842 
B( 11-N , 20-C ) :   1.1299 B( 11-N , 24-C ) :   1.1112 B( 11-N , 25-C ) :   0.9595 
B( 12-C , 14-C ) :   1.3504 B( 12-C , 59-H ) :   0.9743 B( 13-N , 31-C ) :   1.1506 
B( 13-N , 35-C ) :   1.1467 B( 13-N , 36-C ) :   0.9467 B( 14-C , 18-C ) :   1.1426 
B( 15-N , 42-C ) :   1.1092 B( 15-N , 46-C ) :   1.1207 B( 15-N , 47-C ) :   0.9618 
B( 16-C , 51-C ) :   1.1768 B( 17-C , 60-H ) :   0.9625 B( 18-C , 19-C ) :   1.1496 
B( 19-C , 21-C ) :   1.2374 B( 20-C , 28-C ) :   1.6267 B( 20-C , 63-H ) :   0.9703 
B( 21-C , 26-C ) :   1.6187 B( 21-C , 64-H ) :   0.9698 B( 22-C , 23-C ) :   1.2888 
B( 22-C , 28-C ) :   1.2670 B( 22-C , 29-C ) :   1.2227 B( 23-C , 24-C ) :   1.6189 
B( 23-C , 65-H ) :   0.9705 B( 24-C , 66-H ) :   0.9694 B( 25-C , 67-H ) :   0.9760 
B( 25-C , 68-H ) :   0.9828 B( 25-C , 69-H ) :   0.9822 B( 26-C , 27-C ) :   1.2331 
B( 26-C , 70-H ) :   0.9715 B( 27-C , 29-C ) :   1.2191 B( 28-C , 71-H ) :   0.9718 
B( 29-C , 30-C ) :   1.2341 B( 30-C , 32-C ) :   1.2897 B( 31-C , 39-C ) :   1.6004 
B( 31-C , 72-H ) :   0.9686 B( 32-C , 37-C ) :   1.5691 B( 32-C , 73-H ) :   0.9784 
B( 33-C , 34-C ) :   1.2984 B( 33-C , 39-C ) :   1.2932 B( 33-C , 40-C ) :   1.1966 
B( 34-C , 35-C ) :   1.5974 B( 34-C , 74-H ) :   0.9699 B( 35-C , 75-H ) :   0.9686 
B( 36-C , 76-H ) :   0.9766 B( 36-C , 77-H ) :   0.9817 B( 36-C , 78-H ) :   0.9826 
B( 37-C , 38-C ) :   1.2936 B( 37-C , 79-H ) :   0.9769 B( 38-C , 40-C ) :   1.2256 
B( 39-C , 80-H ) :   0.9708 B( 40-C , 41-C ) :   1.2423 B( 41-C , 43-C ) :   1.1927 
B( 42-C , 50-C ) :   1.6340 B( 42-C , 81-H ) :   0.9697 B( 43-C , 48-C ) :   1.6595 
B( 43-C , 82-H ) :   0.9726 B( 44-C , 45-C ) :   1.2649 B( 44-C , 50-C ) :   1.2703 
B( 44-C , 51-C ) :   1.2604 B( 45-C , 46-C ) :   1.6350 B( 45-C , 83-H ) :   0.9717 
B( 46-C , 84-H ) :   0.9701 B( 47-C , 85-H ) :   0.9762 B( 47-C , 86-H ) :   0.9829 
B( 47-C , 87-H ) :   0.9825 B( 48-C , 49-C ) :   1.1955 B( 48-C , 88-H ) :   0.9746 
B( 49-C , 51-C ) :   1.2358 B( 50-C , 89-H ) :   0.9711 

-------
TIMINGS
-------

Total SCF time: 0 days 0 hours 28 min 30 sec 

Total time                  ....    1710.957 sec
Sum of individual times     ....    1706.180 sec  ( 99.7%)

Fock matrix formation       ....    1678.270 sec  ( 98.1%)
Diagonalization             ....       8.851 sec  (  0.5%)
Density matrix formation    ....       0.557 sec  (  0.0%)
Population analysis         ....       0.588 sec  (  0.0%)
Initial guess               ....       2.519 sec  (  0.1%)
Orbital Transformation      ....       0.000 sec  (  0.0%)
Orbital Orthonormalization  ....       0.000 sec  (  0.0%)
DIIS solution               ....       3.972 sec  (  0.2%)
SOSCF solution              ....      10.129 sec  (  0.6%)

Maximum memory used throughout the entire SCF-calculation: 302.6 MB


           ************************************************************
           *        Program running with 16 parallel MPI-processes    *
           *              working on a common directory               *
           ************************************************************

------------------------------------------------------------------------------
                                ORCA  MP2 
------------------------------------------------------------------------------

Freezing NCore=104 chemical core electrons

----------
MP2 ENERGY (disk based algorithm)
----------

Dimension of the basis                    ...  918
Memory devoted to MP2                     ... 2000 MB   
Data format for buffers                   ... DOUBLE
Compression type for matrix containers    ... UNCOMPRESSED

-------------------------------
PARTIAL EXCHANGE TRANSFORMATION
-------------------------------

Transformation type                        ... one-operator
Generation of integrals (i,mue|j,nue)      ... ON
Generation of integrals (mue,kappa|nue,tau)... OFF
Generation of integrals (i,mue|a,nue)      ... OFF
Dimension of the basis                     ...  918
Number of internal MOs                     ...  127 (  52- 178)
Pair cutoff                                ... 2.500e-12 Eh
Number of AO pairs in the trafo            ... 421821
Total Number of distinct AO pairs          ... 421821
Memory devoted for trafo                   ... 2000.0 MB 
Max. Number of MO pairs treated together   ...  311      
Number Format for Storage                  ... Double (8 Byte)
Integral package used                      ... LIBINT

Starting integral evaluation:
    ... done with AO integral generation
Closing buffer AOK     (38.23 GB; CompressionRatio= 1.33)
Collecting buffer AOK 
Number of MO pairs included in the trafo   ... 8128
------------------------
SORTING OF (i,mue|j,nue)
------------------------

IBATCH = 1 of  2
IBATCH = 2 of  2
Closing buffer KAO     (51.03 GB; CompressionRatio= 1.00)
Collecting buffer KAO 
N(AO-Batches) Done                         ...  85787832 
N(AO-Batches) Skipped                      ...  82425314 
N(IJ)-pairs Skipped                        ...         0 
TOTAL TIME for half transformation         ...  2633.386 sec
AO-integral generation                     ...   222.425 sec
Half transformation                        ...   425.431 sec
K-integral sorting                         ...  1779.451 sec
Process 10:   Internal MO 132
Process 13:   Internal MO 156
Process  1:   Internal MO  60

Finished integral transformation - now doing MP2 part

Process  4:   Internal MO  84
OPERATOR COMBINATION   0   0: ij=( 52..178, 52..178)
Process  7:   Internal MO 108
Process  1:   Internal MO  63
Process  2:   Internal MO  69
Process  3:   Internal MO  78
Process  0:   Internal MO  54
Process  1:   Internal MO  66
Process  8:   Internal MO 117
Process  2:   Internal MO  72
Process  5:   Internal MO  93
Process  6:   Internal MO 102
Process  0:   Internal MO  57
Process 11:   Internal MO 141
Process 14:   Internal MO 165
Process  9:   Internal MO 126
Process  2:   Internal MO  75
Process  7:   Internal MO 111
Process  3:   Internal MO  81
Process 12:   Internal MO 150
Process  5:   Internal MO  96
Process  6:   Internal MO 105
Process 10:   Internal MO 135
Process 15:   Internal MO 174
Process  8:   Internal MO 120
Process  4:   Internal MO  87
Process  7:   Internal MO 114
Process  9:   Internal MO 129
Process  5:   Internal MO  99
Process 13:   Internal MO 159
Process  4:   Internal MO  90
Process 11:   Internal MO 144
Process 12:   Internal MO 153
Process 14:   Internal MO 168
Process 10:   Internal MO 138
Process  8:   Internal MO 123
Process 15:   Internal MO 177
Process 11:   Internal MO 147
Process 13:   Internal MO 162
Process 14:   Internal MO 171
-----------------------------------------------
 MP2 CORRELATION ENERGY   :     -7.284218536 Eh
-----------------------------------------------


-------
TIMINGS
-------
Total time                : 2961.482 sec
Integral trafo            : 2635.434 sec ( 89.0%)
K(i,j)                    :   39.355 sec (  1.3%)
T(i,j)                    :    1.129 sec (  0.0%)

---------------------------------------
MP2 TOTAL ENERGY:    -2130.901001869 Eh
---------------------------------------

Maximum memory used throughout the entire MP2-calculation: 2275.3 MB

-------------------------   --------------------
FINAL SINGLE POINT ENERGY     -2130.901001869448
-------------------------   --------------------


                            ***************************************
                            *     ORCA property calculations      *
                            ***************************************


  WARNING: The energy has been calculated at the MP2 level but the densities
           used in the property calculations are still SCF densities
           MP2 response densities have not been calculated 
           use %mp2 Density relaxed end
           or  %mp2 Density unrelaxed end

                                    ---------------------
                                    Active property flags
                                    ---------------------
   (+) Dipole Moment


------------------------------------------------------------------------------
                       ORCA ELECTRIC PROPERTIES CALCULATION
------------------------------------------------------------------------------

Dipole Moment Calculation                       ... on
Quadrupole Moment Calculation                   ... off
Polarizability Calculation                      ... off
GBWName                                         ... /scratch/allen/tmpyp4_amber_gaff2/conf1/conf1/Conf219.orca.gbw
Electron density                                ... /scratch/allen/tmpyp4_amber_gaff2/conf1/conf1/Conf219.orca.scfp
The origin for moment calculation is the CENTER OF MASS  = ( 0.002348, -0.002445 -0.001231)

-------------
DIPOLE MOMENT
-------------
                                X             Y             Z
Electronic contribution:      1.81598      -3.42337      -0.15085
Nuclear contribution   :      0.07955       0.24020       0.15358
                        -----------------------------------------
Total Dipole Moment    :      1.89553      -3.18317       0.00273
                        -----------------------------------------
Magnitude (a.u.)       :      3.70481
Magnitude (Debye)      :      9.41687



--------------------
Rotational spectrum 
--------------------
 
Rotational constants in cm-1:     0.001500     0.001477     0.000761 
Rotational constants in MHz :    44.964431    44.288732    22.811755 

 Dipole components along the rotational axes: 
x,y,z [a.u.] :     2.651768    -2.587224     0.001255 
x,y,z [Debye]:     6.740259    -6.576200     0.003190 

 

Timings for individual modules:

Sum of individual times         ...     4696.146 sec (=  78.269 min)
GTO integral calculation        ...        3.500 sec (=   0.058 min)   0.1 %
SCF iterations                  ...     1712.227 sec (=  28.537 min)  36.5 %
MP2 module                      ...     2980.419 sec (=  49.674 min)  63.5 %
                             ****ORCA TERMINATED NORMALLY****
TOTAL RUN TIME: 0 days 1 hours 18 minutes 19 seconds 811 msec
# of primitive gaussian functions

