
                                 *****************
                                 * O   R   C   A *
                                 *****************

                                            #,                                       
                                            ###                                      
                                            ####                                     
                                            #####                                    
                                            ######                                   
                                           ########,                                 
                                     ,,################,,,,,                         
                               ,,#################################,,                 
                          ,,##########################################,,             
                       ,#########################################, ''#####,          
                    ,#############################################,,   '####,        
                  ,##################################################,,,,####,       
                ,###########''''           ''''###############################       
              ,#####''   ,,,,##########,,,,          '''####'''          '####       
            ,##' ,,,,###########################,,,                        '##       
           ' ,,###''''                  '''############,,,                           
         ,,##''                                '''############,,,,        ,,,,,,###''
      ,#''                                            '''#######################'''  
     '                                                          ''''####''''         
             ,#######,   #######,   ,#######,      ##                                
            ,#'     '#,  ##    ##  ,#'     '#,    #''#        ######   ,####,        
            ##       ##  ##   ,#'  ##            #'  '#       #        #'  '#        
            ##       ##  #######   ##           ,######,      #####,   #    #        
            '#,     ,#'  ##    ##  '#,     ,#' ,#      #,         ##   #,  ,#        
             '#######'   ##     ##  '#######'  #'      '#     #####' # '####'        



                  #######################################################
                  #                        -***-                        #
                  #          Department of theory and spectroscopy      #
                  #    Directorship and core code : Frank Neese         #
                  #        Max Planck Institute fuer Kohlenforschung    #
                  #                Kaiser Wilhelm Platz 1               #
                  #                 D-45470 Muelheim/Ruhr               #
                  #                      Germany                        #
                  #                                                     #
                  #                  All rights reserved                #
                  #                        -***-                        #
                  #######################################################


                         Program Version 5.0.4 -  RELEASE  -


 With contributions from (in alphabetic order):
   Daniel Aravena         : Magnetic Suceptibility
   Michael Atanasov       : Ab Initio Ligand Field Theory (pilot matlab implementation)
   Alexander A. Auer      : GIAO ZORA, VPT2 properties, NMR spectrum
   Ute Becker             : Parallelization
   Giovanni Bistoni       : ED, misc. LED, open-shell LED, HFLD
   Martin Brehm           : Molecular dynamics
   Dmytro Bykov           : SCF Hessian
   Vijay G. Chilkuri      : MRCI spin determinant printing, contributions to CSF-ICE
   Dipayan Datta          : RHF DLPNO-CCSD density
   Achintya Kumar Dutta   : EOM-CC, STEOM-CC
   Dmitry Ganyushin       : Spin-Orbit,Spin-Spin,Magnetic field MRCI
   Miquel Garcia          : C-PCM and meta-GGA Hessian, CC/C-PCM, Gaussian charge scheme
   Yang Guo               : DLPNO-NEVPT2, F12-NEVPT2, CIM, IAO-localization
   Andreas Hansen         : Spin unrestricted coupled pair/coupled cluster methods
   Benjamin Helmich-Paris : MC-RPA, TRAH-SCF, COSX integrals
   Lee Huntington         : MR-EOM, pCC
   Robert Izsak           : Overlap fitted RIJCOSX, COSX-SCS-MP3, EOM
   Marcus Kettner         : VPT2
   Christian Kollmar      : KDIIS, OOCD, Brueckner-CCSD(T), CCSD density, CASPT2, CASPT2-K
   Simone Kossmann        : Meta GGA functionals, TD-DFT gradient, OOMP2, MP2 Hessian
   Martin Krupicka        : Initial AUTO-CI
   Lucas Lang             : DCDCAS
   Marvin Lechner         : AUTO-CI (C++ implementation), FIC-MRCC
   Dagmar Lenk            : GEPOL surface, SMD
   Dimitrios Liakos       : Extrapolation schemes; Compound Job, initial MDCI parallelization
   Dimitrios Manganas     : Further ROCIS development; embedding schemes
   Dimitrios Pantazis     : SARC Basis sets
   Anastasios Papadopoulos: AUTO-CI, single reference methods and gradients
   Taras Petrenko         : DFT Hessian,TD-DFT gradient, ASA, ECA, R-Raman, ABS, FL, XAS/XES, NRVS
   Peter Pinski           : DLPNO-MP2, DLPNO-MP2 Gradient
   Christoph Reimann      : Effective Core Potentials
   Marius Retegan         : Local ZFS, SOC
   Christoph Riplinger    : Optimizer, TS searches, QM/MM, DLPNO-CCSD(T), (RO)-DLPNO pert. Triples
   Tobias Risthaus        : Range-separated hybrids, TD-DFT gradient, RPA, STAB
   Michael Roemelt        : Original ROCIS implementation
   Masaaki Saitow         : Open-shell DLPNO-CCSD energy and density
   Barbara Sandhoefer     : DKH picture change effects
   Avijit Sen             : IP-ROCIS
   Kantharuban Sivalingam : CASSCF convergence, NEVPT2, FIC-MRCI
   Bernardo de Souza      : ESD, SOC TD-DFT
   Georgi Stoychev        : AutoAux, RI-MP2 NMR, DLPNO-MP2 response
   Willem Van den Heuvel  : Paramagnetic NMR
   Boris Wezisla          : Elementary symmetry handling
   Frank Wennmohs         : Technical directorship


 We gratefully acknowledge several colleagues who have allowed us to
 interface, adapt or use parts of their codes:
   Stefan Grimme, W. Hujo, H. Kruse, P. Pracht,  : VdW corrections, initial TS optimization,
                  C. Bannwarth, S. Ehlert          DFT functionals, gCP, sTDA/sTD-DF
   Ed Valeev, F. Pavosevic, A. Kumar             : LibInt (2-el integral package), F12 methods
   Garnet Chan, S. Sharma, J. Yang, R. Olivares  : DMRG
   Ulf Ekstrom                                   : XCFun DFT Library
   Mihaly Kallay                                 : mrcc  (arbitrary order and MRCC methods)
   Jiri Pittner, Ondrej Demel                    : Mk-CCSD
   Frank Weinhold                                : gennbo (NPA and NBO analysis)
   Christopher J. Cramer and Donald G. Truhlar   : smd solvation model
   Lars Goerigk                                  : TD-DFT with DH, B97 family of functionals
   V. Asgeirsson, H. Jonsson                     : NEB implementation
   FAccTs GmbH                                   : IRC, NEB, NEB-TS, DLPNO-Multilevel, CI-OPT
                                                   MM, QMMM, 2- and 3-layer-ONIOM, Crystal-QMMM,
                                                   LR-CPCM, SF, NACMEs, symmetry and pop. for TD-DFT,
                                                   nearIR, NL-DFT gradient (VV10), updates on ESD,
                                                   ML-optimized integration grids
   S Lehtola, MJT Oliveira, MAL Marques          : LibXC Library
   Liviu Ungur et al                             : ANISO software


 Your calculation uses the libint2 library for the computation of 2-el integrals
 For citations please refer to: http://libint.valeyev.net

 Your ORCA version has been built with support for libXC version: 5.1.0
 For citations please refer to: https://tddft.org/programs/libxc/

 This ORCA versions uses:
   CBLAS   interface :  Fast vector & matrix operations
   LAPACKE interface :  Fast linear algebra routines
   SCALAPACK package :  Parallel linear algebra routines
   Shared memory     :  Shared parallel matrices
   BLAS/LAPACK       :  OpenBLAS 0.3.15  USE64BITINT DYNAMIC_ARCH NO_AFFINITY Sandybridge SINGLE_THREADED
        Core in use  :  Sandybridge
   Copyright (c) 2011-2014, The OpenBLAS Project


================================================================================

----- Orbital basis set information -----
Your calculation utilizes the basis: cc-pVDZ 
       H, B-Ne : Obtained from the ccRepo (grant-hill.group.shef.ac.uk/ccrepo) Feb. 2017
                 T. H. Dunning, Jr., J. Chem. Phys. 90, 1007 (1989)
            He : Obtained from the ccRepo (grant-hill.group.shef.ac.uk/ccrepo) Feb. 2017
                 D. E. Woon, T. H. Dunning, Jr., J. Chem. Phys. 100, 2975 (1994)
  Li-Be, Na-Mg : Obtained from the ccRepo (grant-hill.group.shef.ac.uk/ccrepo) Feb. 2017
                 B. P. Prascher, D. E. Woon, K. A. Peterson, T. H. Dunning, Jr., A. K. Wilson, Theor. Chem. Acc. 128, 69 (2011)
         Al-Ar : Obtained from the ccRepo (grant-hill.group.shef.ac.uk/ccrepo) Feb. 2017
                 D. E. Woon, T. H. Dunning, Jr., J. Chem. Phys. 98, 1358 (1993)
            Ca : Obtained from the Peterson Research Group Website (tyr0.chem.wsu.edu/~kipeters) Feb. 2017
                 J. Koput, K. A. Peterson, J. Phys. Chem. 106, 9595 (2002)
         Sc-Zn : Obtained from the ccRepo (grant-hill.group.shef.ac.uk/ccrepo) Feb. 2017
                 N. B. Balabanov, K. A. Peterson, J. Chem. Phys. 123, 064107 (2005)
                 N. B. Balabanov, K. A. Peterson, J. Chem. Phys. 125, 074110 (2006)
         Ga-Kr : Obtained from the ccRepo (grant-hill.group.shef.ac.uk/ccrepo) Feb. 2017
                 A. K. Wilson, D. E. Woon, K. A. Peterson, T. H. Dunning, Jr., J. Chem. Phys. 110, 7667 (1999)

================================================================================
                                        WARNINGS
                       Please study these warnings very carefully!
================================================================================


WARNING: No MP2 level density has been requested!
         To caclulate MP2 level properties use
         %mp2 Density relaxed end
         or
         %mp2 Density unrelaxed end

WARNING: Post HF methods need fully converged wavefunctions
  ===> : Setting SCFConvForced true
         You can overwrite this default with %scf ConvForced false 


INFO   : the flag for use of the SHARK integral package has been found!

================================================================================
                                       INPUT FILE
================================================================================
NAME = /scratch/allen/tmpyp4_amber_gaff2/2.Mdgx/conf11/conf11/Conf359.orca
|  1> ! PAL2
|  2> ! mp2 cc-pvdz TightSCF  NoKeepInts
|  3> 
|  4> %scf
|  5>   MaxCore 2000
|  6> end
|  7> %mp2
|  8>   MaxCore 2000
|  9> end
| 10> * xyz 0 1
| 11>    C       -3.03500         6.49300         0.15400
| 12>    C        1.47400         4.04100         0.05700
| 13>    C       -2.80200         4.09300         0.04900
| 14>    C       -4.20200         4.01000         0.00600
| 15>    C       -4.96600         5.16000         0.03500
| 16>    C       -5.22700         7.59300         0.10300
| 17>    C        0.13200         4.30700         0.06100
| 18>    C       -0.56900         3.05600         0.04700
| 19>    C        1.64900         2.61800         0.02300
| 20>    C       -2.22800         5.37200         0.12100
| 21>    N       -4.38200         6.37800         0.11200
| 22>    N        0.38800         2.06700         0.02500
| 23>    N       -2.01000         0.39500        -0.07500
| 24>    N       -0.38800        -2.07400        -0.02700
| 25>    N        2.01000        -0.40100         0.06500
| 26>    C       -1.96000         2.86100         0.02400
| 27>    C       -2.62300         1.61500        -0.01800
| 28>    C       -5.57300        -4.32900         1.06600
| 29>    C       -4.07300         1.47100         0.05600
| 30>    C       -4.10600        -2.75600        -0.02600
| 31>    C       -4.99500        -2.75700        -1.11100
| 32>    C       -6.13200        -3.54200        -1.07600
| 33>    C       -7.65100        -5.11300         0.04000
| 34>    C       -4.32400         0.14100         0.03700
| 35>    C       -3.02500        -0.52000        -0.04800
| 36>    C       -4.42200        -3.56600         1.07500
| 37>    N       -6.40700        -4.31300         0.00100
| 38>    C       -2.86700        -1.92200        -0.04000
| 39>    C       -1.65000        -2.62400        -0.02700
| 40>    C        3.56800        -6.14200        -1.04000
| 41>    C       -1.47600        -4.04900        -0.03400
| 42>    C        2.80300        -4.09900        -0.00800
| 43>    C        3.65700        -4.38400         1.06900
| 44>    C        4.42700        -5.53000         1.05900
| 45>    C        5.24500        -7.58800         0.01400
| 46>    C       -0.13400        -4.31500        -0.02200
| 47>    C        0.56800        -3.06400        -0.02700
| 48>    C        2.77500        -5.01200        -1.07400
| 49>    N        4.37600        -6.39100         0.01700
| 50>    C        1.95900        -2.86900        -0.00900
| 51>    C        2.62100        -1.62200         0.00900
| 52>    C        5.54300         4.33900        -1.13000
| 53>    C        4.07000        -1.47900        -0.09400
| 54>    C        4.10400         2.75100        -0.02100
| 55>    C        5.02700         2.72900         1.03600
| 56>    C        6.16600         3.50900         0.97800
| 57>    C        7.61900         5.15300        -0.11500
| 58>    C        4.32100        -0.14800        -0.09200
| 59>    C        3.02500         0.51400         0.01500
| 60>    C        4.38700         3.58200        -1.11500
| 61>    C        2.86600         1.91600         0.01300
| 62>    N        6.41300         4.29600        -0.09500
| 63>    H       -2.63600         7.49800         0.22200
| 64>    H        2.27400         4.76600         0.08100
| 65>    H       -4.70400         3.05200        -0.06000
| 66>    H       -6.04800         5.14700        -0.00500
| 67>    H       -5.43600         7.87300        -0.93200
| 68>    H       -6.15700         7.37700         0.62800
| 69>    H       -4.69100         8.39600         0.60700
| 70>    H       -0.33200         5.28200         0.06900
| 71>    H       -1.15300         5.50100         0.17200
| 72>    H        0.18200         1.07200         0.00500
| 73>    H       -0.18300        -1.08000        -0.02100
| 74>    H       -5.86400        -4.96200         1.89500
| 75>    H       -4.79400         2.27200         0.13900
| 76>    H       -4.80000        -2.16000        -1.99400
| 77>    H       -6.84100        -3.58200        -1.89300
| 78>    H       -8.42800        -4.53600         0.54600
| 79>    H       -7.95600        -5.33700        -0.98100
| 80>    H       -7.45600        -6.03700         0.58400
| 81>    H       -5.28700        -0.34400         0.10000
| 82>    H       -3.78000        -3.60100         1.94700
| 83>    H        3.58700        -6.86800        -1.84300
| 84>    H       -2.27600        -4.77400        -0.05000
| 85>    H        3.71400        -3.72400         1.92600
| 86>    H        5.09200        -5.79500         1.87100
| 87>    H        6.20500        -7.32900        -0.43900
| 88>    H        5.39300        -7.91700         1.04200
| 89>    H        4.75900        -8.37300        -0.56400
| 90>    H        0.32900        -5.29000        -0.00800
| 91>    H        2.14600        -4.84200        -1.94000
| 92>    H        5.80800         4.98600        -1.95600
| 93>    H        4.78800        -2.28100        -0.18500
| 94>    H        4.86000         2.11400         1.91200
| 95>    H        6.90100         3.53100         1.77200
| 96>    H        7.38300         6.10900         0.35600
| 97>    H        8.41400         4.65200         0.43500
| 98>    H        7.92100         5.31000        -1.15000
| 99>    H        5.28300         0.33600        -0.17900
|100>    H        3.72000         3.63200        -1.96700
|101> *
|102> 
|103>                          ****END OF INPUT****
================================================================================

                       ****************************
                       * Single Point Calculation *
                       ****************************

---------------------------------
CARTESIAN COORDINATES (ANGSTROEM)
---------------------------------
  C     -3.035000    6.493000    0.154000
  C      1.474000    4.041000    0.057000
  C     -2.802000    4.093000    0.049000
  C     -4.202000    4.010000    0.006000
  C     -4.966000    5.160000    0.035000
  C     -5.227000    7.593000    0.103000
  C      0.132000    4.307000    0.061000
  C     -0.569000    3.056000    0.047000
  C      1.649000    2.618000    0.023000
  C     -2.228000    5.372000    0.121000
  N     -4.382000    6.378000    0.112000
  N      0.388000    2.067000    0.025000
  N     -2.010000    0.395000   -0.075000
  N     -0.388000   -2.074000   -0.027000
  N      2.010000   -0.401000    0.065000
  C     -1.960000    2.861000    0.024000
  C     -2.623000    1.615000   -0.018000
  C     -5.573000   -4.329000    1.066000
  C     -4.073000    1.471000    0.056000
  C     -4.106000   -2.756000   -0.026000
  C     -4.995000   -2.757000   -1.111000
  C     -6.132000   -3.542000   -1.076000
  C     -7.651000   -5.113000    0.040000
  C     -4.324000    0.141000    0.037000
  C     -3.025000   -0.520000   -0.048000
  C     -4.422000   -3.566000    1.075000
  N     -6.407000   -4.313000    0.001000
  C     -2.867000   -1.922000   -0.040000
  C     -1.650000   -2.624000   -0.027000
  C      3.568000   -6.142000   -1.040000
  C     -1.476000   -4.049000   -0.034000
  C      2.803000   -4.099000   -0.008000
  C      3.657000   -4.384000    1.069000
  C      4.427000   -5.530000    1.059000
  C      5.245000   -7.588000    0.014000
  C     -0.134000   -4.315000   -0.022000
  C      0.568000   -3.064000   -0.027000
  C      2.775000   -5.012000   -1.074000
  N      4.376000   -6.391000    0.017000
  C      1.959000   -2.869000   -0.009000
  C      2.621000   -1.622000    0.009000
  C      5.543000    4.339000   -1.130000
  C      4.070000   -1.479000   -0.094000
  C      4.104000    2.751000   -0.021000
  C      5.027000    2.729000    1.036000
  C      6.166000    3.509000    0.978000
  C      7.619000    5.153000   -0.115000
  C      4.321000   -0.148000   -0.092000
  C      3.025000    0.514000    0.015000
  C      4.387000    3.582000   -1.115000
  C      2.866000    1.916000    0.013000
  N      6.413000    4.296000   -0.095000
  H     -2.636000    7.498000    0.222000
  H      2.274000    4.766000    0.081000
  H     -4.704000    3.052000   -0.060000
  H     -6.048000    5.147000   -0.005000
  H     -5.436000    7.873000   -0.932000
  H     -6.157000    7.377000    0.628000
  H     -4.691000    8.396000    0.607000
  H     -0.332000    5.282000    0.069000
  H     -1.153000    5.501000    0.172000
  H      0.182000    1.072000    0.005000
  H     -0.183000   -1.080000   -0.021000
  H     -5.864000   -4.962000    1.895000
  H     -4.794000    2.272000    0.139000
  H     -4.800000   -2.160000   -1.994000
  H     -6.841000   -3.582000   -1.893000
  H     -8.428000   -4.536000    0.546000
  H     -7.956000   -5.337000   -0.981000
  H     -7.456000   -6.037000    0.584000
  H     -5.287000   -0.344000    0.100000
  H     -3.780000   -3.601000    1.947000
  H      3.587000   -6.868000   -1.843000
  H     -2.276000   -4.774000   -0.050000
  H      3.714000   -3.724000    1.926000
  H      5.092000   -5.795000    1.871000
  H      6.205000   -7.329000   -0.439000
  H      5.393000   -7.917000    1.042000
  H      4.759000   -8.373000   -0.564000
  H      0.329000   -5.290000   -0.008000
  H      2.146000   -4.842000   -1.940000
  H      5.808000    4.986000   -1.956000
  H      4.788000   -2.281000   -0.185000
  H      4.860000    2.114000    1.912000
  H      6.901000    3.531000    1.772000
  H      7.383000    6.109000    0.356000
  H      8.414000    4.652000    0.435000
  H      7.921000    5.310000   -1.150000
  H      5.283000    0.336000   -0.179000
  H      3.720000    3.632000   -1.967000

----------------------------
CARTESIAN COORDINATES (A.U.)
----------------------------
  NO LB      ZA    FRAG     MASS         X           Y           Z
   0 C     6.0000    0    12.011   -5.735319   12.269992    0.291018
   1 C     6.0000    0    12.011    2.785456    7.636383    0.107714
   2 C     6.0000    0    12.011   -5.295013    7.734649    0.092597
   3 C     6.0000    0    12.011   -7.940629    7.577802    0.011338
   4 C     6.0000    0    12.011   -9.384380    9.750987    0.066140
   5 C     6.0000    0    12.011   -9.877599   14.348691    0.194642
   6 C     6.0000    0    12.011    0.249444    8.139050    0.115273
   7 C     6.0000    0    12.011   -1.075254    5.775003    0.088817
   8 C     6.0000    0    12.011    3.116158    4.947303    0.043464
   9 C     6.0000    0    12.011   -4.210310   10.151609    0.228657
  10 N     7.0000    0    14.007   -8.280780   12.052673    0.211649
  11 N     7.0000    0    14.007    0.733214    3.906064    0.047243
  12 N     7.0000    0    14.007   -3.798350    0.746442   -0.141729
  13 N     7.0000    0    14.007   -0.733214   -3.919292   -0.051023
  14 N     7.0000    0    14.007    3.798350   -0.757780    0.122832
  15 C     6.0000    0    12.011   -3.703863    5.406506    0.045353
  16 C     6.0000    0    12.011   -4.956752    3.051908   -0.034015
  17 C     6.0000    0    12.011  -10.531444   -8.180624    2.014448
  18 C     6.0000    0    12.011   -7.696855    2.779787    0.105825
  19 C     6.0000    0    12.011   -7.759216   -5.208085   -0.049133
  20 C     6.0000    0    12.011   -9.439182   -5.209975   -2.099486
  21 C     6.0000    0    12.011  -11.587801   -6.693410   -2.033345
  22 C     6.0000    0    12.011  -14.458295   -9.662170    0.075589
  23 C     6.0000    0    12.011   -8.171176    0.266451    0.069920
  24 C     6.0000    0    12.011   -5.716422   -0.982658   -0.090707
  25 C     6.0000    0    12.011   -8.356369   -6.738763    2.031456
  26 N     7.0000    0    14.007  -12.107475   -8.150389    0.001890
  27 C     6.0000    0    12.011   -5.417845   -3.632054   -0.075589
  28 C     6.0000    0    12.011   -3.118048   -4.958641   -0.051023
  29 C     6.0000    0    12.011    6.742543  -11.606698   -1.965315
  30 C     6.0000    0    12.011   -2.789236   -7.651501   -0.064251
  31 C     6.0000    0    12.011    5.296902   -7.745987   -0.015118
  32 C     6.0000    0    12.011    6.910728   -8.284559    2.020117
  33 C     6.0000    0    12.011    8.365818  -10.450186    2.001220
  34 C     6.0000    0    12.011    9.911614  -14.339242    0.026456
  35 C     6.0000    0    12.011   -0.253223   -8.154168   -0.041574
  36 C     6.0000    0    12.011    1.073364   -5.790121   -0.051023
  37 C     6.0000    0    12.011    5.243990   -9.471307   -2.029566
  38 N     7.0000    0    14.007    8.269442  -12.077240    0.032125
  39 C     6.0000    0    12.011    3.701973   -5.421624   -0.017008
  40 C     6.0000    0    12.011    4.952972   -3.065136    0.017008
  41 C     6.0000    0    12.011   10.474752    8.199522   -2.135391
  42 C     6.0000    0    12.011    7.691185   -2.794905   -0.177634
  43 C     6.0000    0    12.011    7.755436    5.198637   -0.039684
  44 C     6.0000    0    12.011    9.499653    5.157063    1.957756
  45 C     6.0000    0    12.011   11.652051    6.631049    1.848152
  46 C     6.0000    0    12.011   14.397823    9.737759   -0.217319
  47 C     6.0000    0    12.011    8.165507   -0.279679   -0.173855
  48 C     6.0000    0    12.011    5.716422    0.971319    0.028346
  49 C     6.0000    0    12.011    8.290229    6.768999   -2.107045
  50 C     6.0000    0    12.011    5.415955    3.620715    0.024566
  51 N     7.0000    0    14.007   12.118814    8.118263   -0.179524
  52 H     1.0000    0     1.008   -4.981318   14.169167    0.419519
  53 H     1.0000    0     1.008    4.297237    9.006435    0.153068
  54 H     1.0000    0     1.008   -8.889272    5.767444   -0.113384
  55 H     1.0000    0     1.008  -11.429064    9.726420   -0.009449
  56 H     1.0000    0     1.008  -10.272551   14.877814   -1.761225
  57 H     1.0000    0     1.008  -11.635044   13.940510    1.186748
  58 H     1.0000    0     1.008   -8.864705   15.866141    1.147064
  59 H     1.0000    0     1.008   -0.627389    9.981533    0.130391
  60 H     1.0000    0     1.008   -2.178854   10.395383    0.325033
  61 H     1.0000    0     1.008    0.343930    2.025786    0.009449
  62 H     1.0000    0     1.008   -0.345820   -2.040904   -0.039684
  63 H     1.0000    0     1.008  -11.081354   -9.376821    3.581031
  64 H     1.0000    0     1.008   -9.059347    4.293458    0.262672
  65 H     1.0000    0     1.008   -9.070685   -4.081808   -3.768114
  66 H     1.0000    0     1.008  -12.927616   -6.768999   -3.577252
  67 H     1.0000    0     1.008  -15.926612   -8.571798    1.031790
  68 H     1.0000    0     1.008  -15.034661  -10.085468   -1.853821
  69 H     1.0000    0     1.008  -14.089798  -11.408277    1.103600
  70 H     1.0000    0     1.008   -9.990982   -0.650066    0.188973
  71 H     1.0000    0     1.008   -7.143165   -6.804904    3.679297
  72 H     1.0000    0     1.008    6.778448  -12.978639   -3.482765
  73 H     1.0000    0     1.008   -4.301017   -9.021553   -0.094486
  74 H     1.0000    0     1.008    7.018443   -7.037340    3.639613
  75 H     1.0000    0     1.008    9.622485  -10.950963    3.535678
  76 H     1.0000    0     1.008   11.725751  -13.849803   -0.829590
  77 H     1.0000    0     1.008   10.191293  -14.960962    1.969095
  78 H     1.0000    0     1.008    8.993207  -15.822677   -1.065806
  79 H     1.0000    0     1.008    0.621720   -9.996651   -0.015118
  80 H     1.0000    0     1.008    4.055352   -9.150054   -3.666069
  81 H     1.0000    0     1.008   10.975529    9.422175   -3.696304
  82 H     1.0000    0     1.008    9.048009   -4.310465   -0.349599
  83 H     1.0000    0     1.008    9.184069    3.994881    3.613156
  84 H     1.0000    0     1.008   13.041000    6.672623    3.348595
  85 H     1.0000    0     1.008   13.951848   11.544337    0.672743
  86 H     1.0000    0     1.008   15.900156    8.791006    0.822031
  87 H     1.0000    0     1.008   14.968521   10.034446   -2.173185
  88 H     1.0000    0     1.008    9.983423    0.634948   -0.338261
  89 H     1.0000    0     1.008    7.029781    6.863485   -3.717091

--------------------------------
INTERNAL COORDINATES (ANGSTROEM)
--------------------------------
 C      0   0   0     0.000000000000     0.00000000     0.00000000
 C      1   0   0     5.133497248465     0.00000000     0.00000000
 C      1   2   0     2.413568727010    55.90425692     0.00000000
 C      3   1   2     1.403117243854    87.92725136   181.46898028
 C      4   3   1     1.380955104267   120.13947664     0.14721103
 C      5   4   3     2.447904001386   152.53063623     1.59417623
 C      2   1   3     1.368114030335    17.34896278     0.62734242
 C      7   2   1     1.434084376876   108.05010202   182.45306841
 C      2   1   3     1.434123425651   125.56114665   358.61786008
 C      1   2   3     1.381658061895    25.70832726     1.37196033
 N      1   2   3     1.352552401942   146.46457602   357.41746414
 N      9   2   1     1.376127174356   106.58526707   359.86825135
 N     12   9   2     2.925062050624   168.53581413   171.12065651
 N     13  12   9     2.954513327098    91.55032014    11.12112580
 N     14  13  12     2.925371258490    88.43092389   359.84326247
 C      8   7   2     1.404790019896   127.24786865   181.11170171
 C     13  12   9     1.366535034311    81.72106996   188.00453233
 C     14  13  12     5.758810554272    80.56209567   166.76250791
 C     17  13  12     1.459010623676   111.08861209   183.82872609
 C     18  14  13     2.412235892279    27.27532823    36.33507194
 C     20  18  14     1.402692767501    87.95206320   148.94598259
 C     21  20  18     1.382106725257   120.14573887   359.70382047
 C     18  14  13     2.446510985056   144.15733107    82.80075377
 C     19  17  13     1.353610726908   106.29293361   359.75308708
 C     13  12   9     1.366813447402   172.21332906    33.46711076
 C     18  14  13     1.380960173213    15.08449437   309.23336894
 N     22  21  20     1.352773077792   120.73759875     0.27865223
 C     25  13  17     1.410897586645   125.60330303   182.37774668
 C     14  13  12     1.376642291955    80.24689249   177.85461986
 C     14  13  12     5.764089607215   164.51507311   312.20821879
 C     29  14  13     1.435600919476   106.58649366   178.76395472
 C     30  14  13     2.413316804732    27.10625047    82.12560436
 C     32  30  14     1.403734305344    87.90059683   149.76154742
 C     33  32  30     1.380694028378   120.14881443   359.74174632
 C     34  33  32     2.448777858443   152.49203239     2.45173620
 C     31  29  14     1.368160809262   108.16950133     0.70383075
 C     14  13  12     1.376239804685   169.26375223   353.09862627
 C     30  14  13     1.380907310430    14.68948582   353.70041132
 N     34  33  32     1.352658863128   120.85575621     0.19603406
 C     37  14  29     1.404717053360   126.01551127   180.90772073
 C     15  14  13     1.366491126938    81.61824056   183.09049352
 C      2   1   3     4.249062720177   144.38087912   150.76147823
 C     41  15  14     1.459677704153   111.05201287   175.08990246
 C     42   2   1     2.412953791518    41.78584867   178.73055658
 C     44  42   2     1.403446472082    87.95153797   233.97558675
 C     45  44  42     1.381696421071   120.11137308     0.19721020
 C     42   2   1     2.450019795838   135.97209175    89.04540568
 C     43  41  15     1.354461516618   106.26758155     0.30894352
 C     15  14  13     1.367461151185   171.87382904   332.35056460
 C     42   2   1     1.381886391857    32.59078432   227.58583577
 C      9   2   1     1.404988612053   126.98745415   180.87258888
 N     42   2   1     1.352765315936   113.57249190   116.78199487
 H      1   2   3     1.083443584133    96.93716425   178.78451190
 H      2   1   3     1.079907866440   109.24413922   179.44908794
 H      4   3   1     1.083570025425   121.09239665   179.54056430
 H      5   4   3     1.082817159081   122.82324464   179.43329586
 H      6   5   4     1.092385463104   104.40881842   100.13539845
 H      6   5   4     1.089578358816    84.68427843   209.57653637
 H      6   5   4     1.089091823493   133.88422732   322.45796383
 H      7   2   1     1.079807853278   126.66122480     2.69148220
 H     60   7   2     0.855926982867   130.09759434   188.79666939
 H     12   9   2     1.016297692608   125.29023241   180.00180175
 H     14  13  12     1.014936943854    44.97226959   359.42596618
 H     18  14  13     1.082871645210   128.03556573   234.20482432
 H     55   4   3     0.810000617284   152.60811405    40.80409593
 H     21  20  18     1.083569563987   121.05669627   180.67006309
 H     22  21  20     1.082483256222   122.73097286   180.59748951
 H     23  18  14     1.092105306278   103.92715769   234.93429879
 H     23  18  14     1.088871893291   134.19244188    12.25587044
 H     23  18  14     1.089833473518    84.85857450   125.45241208
 H     24  19  17     1.080075460327   127.28078426   178.44613241
 H     26  18  14     1.083408048706   118.76995697   244.94906660
 H     30  14  13     1.082703098730   127.99711412   279.66882698
 H     31  29  14     1.079759695488   125.22293469   180.92530585
 H     33  32  30     1.083188810873   121.01964473   180.74284758
 H     34  33  32     1.082494341787   122.70821597   180.59516895
 H     35  34  33     1.092652735319   105.73575241    97.19771933
 H     35  34  33     1.089462711615    84.05943581   206.43036958
 H     35  34  33     1.089268102902   133.08365142   318.50306270
 H     36  31  29     1.079439669458   126.61599965   178.98859863
 H     38  30  73     1.083742127999   118.77264435   359.90091293
 H     42   2   1     1.082178358682   119.31790784   333.41352533
 H     43  41  15     1.080281907652   126.36969097   182.06329380
 H     45  44  42     1.083277434455   121.10105945   179.58025624
 H     46  45  44     1.082194529648   122.72144639   179.46906377
 H     47  42   2     1.091546151109   106.65128841   315.16475048
 H     47  42   2     1.088818625851   132.46019523    94.52397119
 H     47  42   2     1.089531091801    83.63838232   206.04504406
 H     48  43  41     1.080402239909   127.23657387   181.62955349
 H     50  42   2     1.083186502870   118.77001737    94.71359229

---------------------------
INTERNAL COORDINATES (A.U.)
---------------------------
 C      0   0   0     0.000000000000     0.00000000     0.00000000
 C      1   0   0     9.700903908838     0.00000000     0.00000000
 C      1   2   0     4.560983899446    55.90425692     0.00000000
 C      3   1   2     2.651507324666    87.92725136   181.46898028
 C      4   3   1     2.609626950305   120.13947664     0.14721103
 C      5   4   3     4.625868164749   152.53063623     1.59417623
 C      2   1   3     2.585360837309    17.34896278     0.62734242
 C      7   2   1     2.710026725231   108.05010202   182.45306841
 C      2   1   3     2.710100516721   125.56114665   358.61786008
 C      1   2   3     2.610955347706    25.70832726     1.37196033
 N      1   2   3     2.555953621448   146.46457602   357.41746414
 N      9   2   1     2.600503484979   106.58526707   359.86825135
 N     12   9   2     5.527566200405   168.53581413   171.12065651
 N     13  12   9     5.583221047236    91.55032014    11.12112580
 N     14  13  12     5.528150518591    88.43092389   359.84326247
 C      8   7   2     2.654668413270   127.24786865   181.11170171
 C     13  12   9     2.582376967257    81.72106996   188.00453233
 C     14  13  12    10.882574804710    80.56209567   166.76250791
 C     17  13  12     2.757130505230   111.08861209   183.82872609
 C     18  14  13     4.558465206823    27.27532823    36.33507194
 C     20  18  14     2.650705180609    87.95206320   148.94598259
 C     21  20  18     2.611803198586   120.14573887   359.70382047
 C     18  14  13     4.623235745386   144.15733107    82.80075377
 C     19  17  13     2.557953565794   106.29293361   359.75308708
 C     13  12   9     2.582903091751   172.21332906    33.46711076
 C     18  14  13     2.609636529225    15.08449437   309.23336894
 N     22  21  20     2.556370638369   120.73759875     0.27865223
 C     25  13  17     2.666210041769   125.60330303   182.37774668
 C     14  13  12     2.601476916169    80.24689249   177.85461986
 C     14  13  12    10.892550769017   164.51507311   312.20821879
 C     29  14  13     2.712892575415   106.58649366   178.76395472
 C     30  14  13     4.560507835333    27.10625047    82.12560436
 C     32  30  14     2.652673401891    87.90059683   149.76154742
 C     33  32  30     2.609133588376   120.14881443   359.74174632
 C     34  33  32     4.627519515267   152.49203239     2.45173620
 C     31  29  14     2.585449236669   108.16950133     0.70383075
 C     14  13  12     2.600716325456   169.26375223   353.09862627
 C     30  14  13     2.609536633043    14.68948582   353.70041132
 N     34  33  32     2.556154803934   120.85575621     0.19603406
 C     37  14  29     2.654530526499   126.01551127   180.90772073
 C     15  14  13     2.582293994346    81.61824056   183.09049352
 C      2   1   3     8.029564866989   144.38087912   150.76147823
 C     41  15  14     2.758391104639   111.05201287   175.08990246
 C     42   2   1     4.559821839776    41.78584867   178.73055658
 C     44  42   2     2.652129475853    87.95153797   233.97558675
 C     45  44  42     2.611027836043   120.11137308     0.19721020
 C     42   2   1     4.629866436820   135.97209175    89.04540568
 C     43  41  15     2.559561325344   106.26758155     0.30894352
 C     15  14  13     2.584127074516   171.87382904   332.35056460
 C     42   2   1     2.611386828803    32.59078432   227.58583577
 C      9   2   1     2.655043698059   126.98745415   180.87258888
 N     42   2   1     2.556355970587   113.57249190   116.78199487
 H      1   2   3     2.047411655566    96.93716425   178.78451190
 H      2   1   3     2.040730117440   109.24413922   179.44908794
 H      4   3   1     2.047650594980   121.09239665   179.54056430
 H      5   4   3     2.046227883774   122.82324464   179.43329586
 H      6   5   4     2.064309357942   104.40881842   100.13539845
 H      6   5   4     2.059004699609    84.68427843   209.57653637
 H      6   5   4     2.058085281095   133.88422732   322.45796383
 H      7   2   1     2.040541119952   126.66122480     2.69148220
 H     60   7   2     1.617467588252   130.09759434   188.79666939
 H     12   9   2     1.920524309565   125.29023241   180.00180175
 H     14  13  12     1.917952867083    44.97226959   359.42596618
 H     18  14  13     2.046330847636   128.03556573   234.20482432
 H     55   4   3     1.530679334973   152.60811405    40.80409593
 H     21  20  18     2.047649722989   121.05669627   180.67006309
 H     22  21  20     2.045596898814   122.73097286   180.59748951
 H     23  18  14     2.063779938267   103.92715769   234.93429879
 H     23  18  14     2.057669673245   134.19244188    12.25587044
 H     23  18  14     2.059486796529    84.85857450   125.45241208
 H     24  19  17     2.041046823986   127.28078426   178.44613241
 H     26  18  14     2.047344503340   118.76995697   244.94906660
 H     30  14  13     2.046012340948   127.99711412   279.66882698
 H     31  29  14     2.040450114918   125.22293469   180.92530585
 H     33  32  30     2.046930203877   121.01964473   180.74284758
 H     34  33  32     2.045617847496   122.70821597   180.59516895
 H     35  34  33     2.064814429233   105.73575241    97.19771933
 H     35  34  33     2.058786158072    84.05943581   206.43036958
 H     35  34  33     2.058418400901   133.08365142   318.50306270
 H     36  31  29     2.039845353366   126.61599965   178.98859863
 H     38  30  73     2.047975821711   118.77264435   359.90091293
 H     42   2   1     2.045020725966   119.31790784   333.41352533
 H     43  41  15     2.041436952892   126.36969097   182.06329380
 H     45  44  42     2.047097678177   121.10105945   179.58025624
 H     46  45  44     2.045051284662   122.72144639   179.46906377
 H     47  42   2     2.062723288131   106.65128841   315.16475048
 H     47  42   2     2.057569012371   132.46019523    94.52397119
 H     47  42   2     2.058915377895    83.63838232   206.04504406
 H     48  43  41     2.041664347903   127.23657387   181.62955349
 H     50  42   2     2.046925842384   118.77001737    94.71359229

---------------------
BASIS SET INFORMATION
---------------------
There are 3 groups of distinct atoms

 Group   1 Type C   : 17s4p1d contracted to 3s2p1d pattern {881/31/1}
 Group   2 Type N   : 17s4p1d contracted to 3s2p1d pattern {881/31/1}
 Group   3 Type H   : 4s1p contracted to 2s1p pattern {31/1}

Atom   0C    basis set group =>   1
Atom   1N    basis set group =>   2
Atom   2C    basis set group =>   1
Atom   3N    basis set group =>   2
Atom   4C    basis set group =>   1
Atom   5N    basis set group =>   2
Atom   6C    basis set group =>   1
Atom   7N    basis set group =>   2
Atom   8C    basis set group =>   1
Atom   9N    basis set group =>   2
Atom  10C    basis set group =>   1
Atom  11N    basis set group =>   2
Atom  12C    basis set group =>   1
Atom  13N    basis set group =>   2
Atom  14C    basis set group =>   1
Atom  15N    basis set group =>   2
Atom  16C    basis set group =>   1
Atom  17C    basis set group =>   1
Atom  18C    basis set group =>   1
Atom  19C    basis set group =>   1
Atom  20C    basis set group =>   1
Atom  21C    basis set group =>   1
Atom  22C    basis set group =>   1
Atom  23C    basis set group =>   1
Atom  24C    basis set group =>   1
Atom  25C    basis set group =>   1
Atom  26C    basis set group =>   1
Atom  27C    basis set group =>   1
Atom  28C    basis set group =>   1
Atom  29C    basis set group =>   1
Atom  30C    basis set group =>   1
Atom  31C    basis set group =>   1
Atom  32C    basis set group =>   1
Atom  33C    basis set group =>   1
Atom  34C    basis set group =>   1
Atom  35C    basis set group =>   1
Atom  36C    basis set group =>   1
Atom  37C    basis set group =>   1
Atom  38C    basis set group =>   1
Atom  39C    basis set group =>   1
Atom  40C    basis set group =>   1
Atom  41C    basis set group =>   1
Atom  42C    basis set group =>   1
Atom  43C    basis set group =>   1
Atom  44C    basis set group =>   1
Atom  45C    basis set group =>   1
Atom  46C    basis set group =>   1
Atom  47C    basis set group =>   1
Atom  48C    basis set group =>   1
Atom  49C    basis set group =>   1
Atom  50C    basis set group =>   1
Atom  51C    basis set group =>   1
Atom  52H    basis set group =>   3
Atom  53H    basis set group =>   3
Atom  54H    basis set group =>   3
Atom  55H    basis set group =>   3
Atom  56H    basis set group =>   3
Atom  57H    basis set group =>   3
Atom  58H    basis set group =>   3
Atom  59H    basis set group =>   3
Atom  60H    basis set group =>   3
Atom  61H    basis set group =>   3
Atom  62H    basis set group =>   3
Atom  63H    basis set group =>   3
Atom  64H    basis set group =>   3
Atom  65H    basis set group =>   3
Atom  66H    basis set group =>   3
Atom  67H    basis set group =>   3
Atom  68H    basis set group =>   3
Atom  69H    basis set group =>   3
Atom  70H    basis set group =>   3
Atom  71H    basis set group =>   3
Atom  72H    basis set group =>   3
Atom  73H    basis set group =>   3
Atom  74H    basis set group =>   3
Atom  75H    basis set group =>   3
Atom  76H    basis set group =>   3
Atom  77H    basis set group =>   3
Atom  78H    basis set group =>   3
Atom  79H    basis set group =>   3
Atom  80H    basis set group =>   3
Atom  81H    basis set group =>   3
Atom  82H    basis set group =>   3
Atom  83H    basis set group =>   3
Atom  84H    basis set group =>   3
Atom  85H    basis set group =>   3
Atom  86H    basis set group =>   3
Atom  87H    basis set group =>   3
Atom  88H    basis set group =>   3
Atom  89H    basis set group =>   3


           ************************************************************
           *        Program running with 8 parallel MPI-processes     *
           *              working on a common directory               *
           ************************************************************
------------------------------------------------------------------------------
                           ORCA GTO INTEGRAL CALCULATION
------------------------------------------------------------------------------
------------------------------------------------------------------------------
                   ___                                                        
                  /   \      - P O W E R E D   B Y -                         
                 /     \                                                     
                 |  |  |   _    _      __       _____    __    __             
                 |  |  |  | |  | |    /  \     |  _  \  |  |  /  |          
                  \  \/   | |  | |   /    \    | | | |  |  | /  /          
                 / \  \   | |__| |  /  /\  \   | |_| |  |  |/  /          
                |  |  |   |  __  | /  /__\  \  |    /   |      \           
                |  |  |   | |  | | |   __   |  |    \   |  |\   \          
                \     /   | |  | | |  |  |  |  | |\  \  |  | \   \       
                 \___/    |_|  |_| |__|  |__|  |_| \__\ |__|  \__/        
                                                                              
                      - O R C A' S   B I G   F R I E N D -                    
                                      &                                       
                       - I N T E G R A L  F E E D E R -                       
                                                                              
 v1 FN, 2020, v2 2021                                                         
------------------------------------------------------------------------------


Reading SHARK input file /scratch/chu_02/allen/tmpyp4_amber_gaff2/conf1/conf1/Conf359.orca.SHARKINP.tmp ... ok
----------------------
SHARK INTEGRAL PACKAGE
----------------------

Number of atoms                             ...     90
Number of basis functions                   ...   1230
Number of shells                            ...    738
Maximum angular momentum                    ...      2
Integral batch strategy                     ... SHARK/LIBINT Hybrid
RI-J (if used) integral strategy            ... SPLIT-RIJ (Revised 2003 algorithm where possible)
Printlevel                                  ...      1
Contraction scheme used                     ... PARTIAL GENERAL contraction
Coulomb Range Separation                    ... NOT USED
Exchange Range Separation                   ... NOT USED
Finite Nucleus Model                        ... NOT USED
Auxiliary Coulomb fitting basis             ... NOT available
Auxiliary J/K fitting basis                 ... NOT available
Auxiliary Correlation fitting basis         ... NOT available
Auxiliary 'external' fitting basis          ... NOT available
Integral threshold                          ...     2.500000e-11
Primitive cut-off                           ...     2.500000e-12
Primitive pair pre-selection threshold      ...     2.500000e-12

Calculating pre-screening integrals         ... done (  0.1 sec) Dimension = 738
Calculating pre-screening integrals (ORCA)  ... done (  0.4 sec) Dimension = 426
Organizing shell pair data                  ... done (  0.5 sec)
Shell pair information
Total number of shell pairs                 ...    272691
Shell pairs after pre-screening             ...     71740
Total number of primitive shell pairs       ...    422091
Primitive shell pairs kept                  ...     92647
          la=0 lb=0:  29445 shell pairs
          la=1 lb=0:  26044 shell pairs
          la=1 lb=1:   4699 shell pairs
          la=2 lb=0:   7893 shell pairs
          la=2 lb=1:   3130 shell pairs
          la=2 lb=2:    529 shell pairs

Calculating one electron integrals          ... done (  0.2 sec)
Calculating Nuclear repulsion               ... done (  0.0 sec) ENN=   6235.825129898092 Eh

SHARK setup successfully completed in   1.6 seconds

Maximum memory used throughout the entire GTOINT-calculation: 99.1 MB


           ************************************************************
           *        Program running with 8 parallel MPI-processes     *
           *              working on a common directory               *
           ************************************************************
-------------------------------------------------------------------------------
                                 ORCA SCF
-------------------------------------------------------------------------------

------------
SCF SETTINGS
------------
Hamiltonian:
 Ab initio Hamiltonian  Method          .... Hartree-Fock(GTOs)


General Settings:
 Integral files         IntName         .... /scratch/chu_02/allen/tmpyp4_amber_gaff2/conf1/conf1/Conf359.orca
 Hartree-Fock type      HFTyp           .... RHF
 Total Charge           Charge          ....    0
 Multiplicity           Mult            ....    1
 Number of Electrons    NEL             ....  358
 Basis Dimension        Dim             ....  918
 Nuclear Repulsion      ENuc            ....   6235.8251298981 Eh

Convergence Acceleration:
 DIIS                   CNVDIIS         .... on
   Start iteration      DIISMaxIt       ....    12
   Startup error        DIISStart       ....  0.200000
   # of expansion vecs  DIISMaxEq       ....     5
   Bias factor          DIISBfac        ....   1.050
   Max. coefficient     DIISMaxC        ....  10.000
 Trust-Rad. Augm. Hess. CNVTRAH         .... auto
   Auto Start mean grad. ratio tolernc. ....  1.125000
   Auto Start start iteration           ....    20
   Auto Start num. interpolation iter.  ....    10
   Max. Number of Micro iterations      ....    16
   Max. Number of Macro iterations      .... Maxiter - #DIIS iter
   Number of Davidson start vectors     ....     2
   Converg. threshold I  (grad. norm)   ....   1.000e-05
   Converg. threshold II (energy diff.) ....   1.000e-08
   Grad. Scal. Fac. for Micro threshold ....   0.100
   Minimum threshold for Micro iter.    ....   0.010
   NR start threshold (gradient norm)   ....   0.001
   Initial trust radius                 ....   0.400
   Minimum AH scaling param. (alpha)    ....   1.000
   Maximum AH scaling param. (alpha)    .... 1000.000
   Orbital update algorithm             .... Taylor
   White noise on init. David. guess    .... on
   Maximum white noise                  ....   0.010
   Quad. conv. algorithm                .... NR
 SOSCF                  CNVSOSCF        .... on
   Start iteration      SOSCFMaxIt      ....   150
   Startup grad/error   SOSCFStart      ....  0.003300
 Level Shifting         CNVShift        .... on
   Level shift para.    LevelShift      ....    0.2500
   Turn off err/grad.   ShiftErr        ....    0.0010
 Zerner damping         CNVZerner       .... off
 Static damping         CNVDamp         .... on
   Fraction old density DampFac         ....    0.7000
   Max. Damping (<1)    DampMax         ....    0.9800
   Min. Damping (>=0)   DampMin         ....    0.0000
   Turn off err/grad.   DampErr         ....    0.1000
 Fernandez-Rico         CNVRico         .... off

SCF Procedure:
 Maximum # iterations   MaxIter         ....   125
 SCF integral mode      SCFMode         .... Direct
   Integral package                     .... SHARK and LIBINT hybrid scheme
 Reset frequency        DirectResetFreq ....    20
 Integral Threshold     Thresh          ....  2.500e-11 Eh
 Primitive CutOff       TCut            ....  2.500e-12 Eh

Convergence Tolerance:
 Convergence Check Mode ConvCheckMode   .... Total+1el-Energy
 Convergence forced     ConvForced      .... 1
 Energy Change          TolE            ....  1.000e-08 Eh
 1-El. energy change                    ....  1.000e-05 Eh
 Orbital Gradient       TolG            ....  1.000e-05
 Orbital Rotation angle TolX            ....  1.000e-05
 DIIS Error             TolErr          ....  5.000e-07


Diagonalization of the overlap matrix:
Smallest eigenvalue                        ... 1.596e-04
Time for diagonalization                   ...    0.206 sec
Threshold for overlap eigenvalues          ... 1.000e-08
Number of eigenvalues below threshold      ... 0
Time for construction of square roots      ...    0.144 sec
Total time needed                          ...    0.354 sec

Time for model grid setup =    1.352 sec

------------------------------
INITIAL GUESS: MODEL POTENTIAL
------------------------------
Loading Hartree-Fock densities                     ... done
Calculating cut-offs                               ... done
Initializing the effective Hamiltonian             ... done
Setting up the integral package (SHARK)            ... done
Starting the Coulomb interaction                   ... done (   1.6 sec)
Reading the grid                                   ... done
Mapping shells                                     ... done
Starting the XC term evaluation                    ... done (   0.3 sec)
Transforming the Hamiltonian                       ... done (   0.1 sec)
Diagonalizing the Hamiltonian                      ... done (   0.2 sec)
Back transforming the eigenvectors                 ... done (   0.0 sec)
Now organizing SCF variables                       ... done
                      ------------------
                      INITIAL GUESS DONE (   3.7 sec)
                      ------------------
--------------
SCF ITERATIONS
--------------
ITER       Energy         Delta-E        Max-DP      RMS-DP      [F,P]     Damp
               ***  Starting incremental Fock matrix formation  ***
  0  -2121.5564470620   0.000000000000 0.07891976  0.00131816  0.2310201 0.7000
  1  -2122.1943097546  -0.637862692653 0.08716604  0.00106957  0.1434248 0.7000
                               ***Turning on DIIS***
  2  -2122.5930455040  -0.398735749406 0.14639457  0.00242295  0.0803354 0.0000
  3  -2118.0566612586   4.536384245426 0.12477514  0.00072881  0.0433726 0.0000
  4  -2123.3015542224  -5.244892963839 0.03542709  0.00023892  0.0094278 0.0000
  5  -2123.4203143397  -0.118760117244 0.01677258  0.00013653  0.0047908 0.0000
  6  -2123.4040068758   0.016307463837 0.01023805  0.00008642  0.0022769 0.0000
  7  -2123.4952687376  -0.091261861715 0.00626697  0.00006720  0.0016416 0.0000
  8  -2123.5005129199  -0.005244182315 0.00493594  0.00006413  0.0015386 0.0000
  9  -2123.4749006920   0.025612227921 0.00272742  0.00004599  0.0012390 0.0000
 10  -2123.4820267696  -0.007126077615 0.00543589  0.00009653  0.0009729 0.0000
                      *** Initiating the SOSCF procedure ***
                           *** Shutting down DIIS ***
                      *** Re-Reading the Fockian *** 
                      *** Removing any level shift *** 
ITER      Energy       Delta-E        Grad      Rot      Max-DP    RMS-DP
 11  -2123.37705290   0.1049738726  0.000186  0.000186  0.000250  0.000005
               *** Restarting incremental Fock matrix formation ***
 12  -2123.44256685  -0.0655139519  0.000948  0.006341  0.001519  0.000035
 13  -2123.44267937  -0.0001125200  0.001153  0.031420  0.006909  0.000137
 14  -2123.44286437  -0.0001850021  0.000401  0.002046  0.000633  0.000013
 15  -2123.44287964  -0.0000152711  0.000188  0.002246  0.000480  0.000013
 16  -2123.44288613  -0.0000064921  0.000129  0.001990  0.000503  0.000009
 17  -2123.44288880  -0.0000026644  0.000129  0.002075  0.000295  0.000007
 18  -2123.44289003  -0.0000012331  0.000058  0.001190  0.000211  0.000004
 19  -2123.44289081  -0.0000007783  0.000046  0.001861  0.000305  0.000006
 20  -2123.44289135  -0.0000005397  0.000027  0.001046  0.000194  0.000003
 21  -2123.44289159  -0.0000002391  0.000028  0.001264  0.000220  0.000004
 22  -2123.44289182  -0.0000002351  0.000025  0.001067  0.000163  0.000003
 23  -2123.44289196  -0.0000001391  0.000016  0.000374  0.000065  0.000001
 24  -2123.44289202  -0.0000000530  0.000008  0.000242  0.000054  0.000001
 25  -2123.44289205  -0.0000000306  0.000008  0.000123  0.000040  0.000001
 26  -2123.44289206  -0.0000000166  0.000006  0.000072  0.000027  0.000000
 27  -2123.44289207  -0.0000000027  0.000003  0.000058  0.000019  0.000000
                  ***Gradient check signals convergence***
              ***Rediagonalizing the Fockian in SOSCF/NRSCF***

               *****************************************************
               *                     SUCCESS                       *
               *           SCF CONVERGED AFTER  28 CYCLES          *
               *****************************************************


----------------
TOTAL SCF ENERGY
----------------

Total Energy       :        -2123.44289207 Eh          -57781.81866 eV

Components:
Nuclear Repulsion  :         6235.82512990 Eh          169685.42843 eV
Electronic Energy  :        -8359.26802197 Eh         -227467.24709 eV
One Electron Energy:       -15312.05188471 Eh         -416662.11448 eV
Two Electron Energy:         6952.78386275 Eh          189194.86739 eV

Virial components:
Potential Energy   :        -4246.09457413 Eh         -115542.10741 eV
Kinetic Energy     :         2122.65168206 Eh           57760.28875 eV
Virial Ratio       :            2.00037275


---------------
SCF CONVERGENCE
---------------

  Last Energy change         ...   -2.4011e-09  Tolerance :   1.0000e-08
  Last MAX-Density change    ...    9.6370e-06  Tolerance :   1.0000e-07
  Last RMS-Density change    ...    1.6243e-07  Tolerance :   5.0000e-09
  Last Orbital Gradient      ...    1.7584e-06  Tolerance :   1.0000e-05
  Last Orbital Rotation      ...    3.2235e-05  Tolerance :   1.0000e-05

             **** THE GBW FILE WAS UPDATED (/scratch/chu_02/allen/tmpyp4_amber_gaff2/conf1/conf1/Conf359.orca.gbw) ****
             **** DENSITY /scratch/chu_02/allen/tmpyp4_amber_gaff2/conf1/conf1/Conf359.orca.scfp WAS UPDATED ****
             **** ENERGY FILE WAS UPDATED (/scratch/chu_02/allen/tmpyp4_amber_gaff2/conf1/conf1/Conf359.orca.en.tmp) ****
             **** THE GBW FILE WAS UPDATED (/scratch/chu_02/allen/tmpyp4_amber_gaff2/conf1/conf1/Conf359.orca.gbw) ****
             **** DENSITY /scratch/chu_02/allen/tmpyp4_amber_gaff2/conf1/conf1/Conf359.orca.scfp WAS UPDATED ****
----------------
ORBITAL ENERGIES
----------------

  NO   OCC          E(Eh)            E(eV) 
   0   2.0000     -15.680180      -426.6794 
   1   2.0000     -15.633224      -425.4017 
   2   2.0000     -15.632522      -425.3825 
   3   2.0000     -15.587842      -424.1668 
   4   2.0000     -15.524870      -422.4532 
   5   2.0000     -15.515357      -422.1943 
   6   2.0000     -15.453983      -420.5243 
   7   2.0000     -15.439343      -420.1259 
   8   2.0000     -11.329627      -308.2948 
   9   2.0000     -11.328793      -308.2721 
  10   2.0000     -11.328161      -308.2549 
  11   2.0000     -11.298864      -307.4577 
  12   2.0000     -11.298812      -307.4563 
  13   2.0000     -11.292390      -307.2816 
  14   2.0000     -11.291877      -307.2676 
  15   2.0000     -11.287009      -307.1351 
  16   2.0000     -11.285914      -307.1053 
  17   2.0000     -11.282389      -307.0094 
  18   2.0000     -11.269242      -306.6517 
  19   2.0000     -11.263585      -306.4977 
  20   2.0000     -11.262580      -306.4704 
  21   2.0000     -11.250934      -306.1535 
  22   2.0000     -11.247337      -306.0556 
  23   2.0000     -11.237264      -305.7815 
  24   2.0000     -11.237036      -305.7753 
  25   2.0000     -11.230556      -305.5990 
  26   2.0000     -11.230264      -305.5910 
  27   2.0000     -11.230056      -305.5854 
  28   2.0000     -11.229885      -305.5807 
  29   2.0000     -11.210833      -305.0623 
  30   2.0000     -11.209410      -305.0236 
  31   2.0000     -11.193593      -304.5931 
  32   2.0000     -11.192229      -304.5560 
  33   2.0000     -11.191424      -304.5341 
  34   2.0000     -11.188776      -304.4621 
  35   2.0000     -11.187981      -304.4404 
  36   2.0000     -11.187234      -304.4201 
  37   2.0000     -11.174559      -304.0752 
  38   2.0000     -11.171782      -303.9996 
  39   2.0000     -11.171276      -303.9859 
  40   2.0000     -11.170791      -303.9727 
  41   2.0000     -11.168108      -303.8997 
  42   2.0000     -11.165474      -303.8280 
  43   2.0000     -11.162164      -303.7379 
  44   2.0000     -11.160982      -303.7058 
  45   2.0000     -11.157063      -303.5991 
  46   2.0000     -11.156215      -303.5760 
  47   2.0000     -11.150476      -303.4199 
  48   2.0000     -11.147294      -303.3333 
  49   2.0000     -11.135715      -303.0182 
  50   2.0000     -11.129338      -302.8447 
  51   2.0000     -11.117492      -302.5223 
  52   2.0000      -1.360701       -37.0266 
  53   2.0000      -1.320580       -35.9348 
  54   2.0000      -1.320209       -35.9247 
  55   2.0000      -1.279727       -34.8231 
  56   2.0000      -1.225986       -33.3608 
  57   2.0000      -1.210335       -32.9349 
  58   2.0000      -1.173699       -31.9380 
  59   2.0000      -1.150668       -31.3113 
  60   2.0000      -1.143897       -31.1270 
  61   2.0000      -1.110250       -30.2114 
  62   2.0000      -1.108946       -30.1759 
  63   2.0000      -1.082356       -29.4524 
  64   2.0000      -1.077017       -29.3071 
  65   2.0000      -1.044826       -28.4312 
  66   2.0000      -1.044799       -28.4304 
  67   2.0000      -1.041246       -28.3338 
  68   2.0000      -1.014858       -27.6157 
  69   2.0000      -1.014769       -27.6133 
  70   2.0000      -1.009050       -27.4577 
  71   2.0000      -0.993383       -27.0313 
  72   2.0000      -0.985546       -26.8181 
  73   2.0000      -0.981873       -26.7181 
  74   2.0000      -0.974055       -26.5054 
  75   2.0000      -0.962445       -26.1895 
  76   2.0000      -0.955039       -25.9879 
  77   2.0000      -0.946740       -25.7621 
  78   2.0000      -0.939679       -25.5700 
  79   2.0000      -0.916589       -24.9417 
  80   2.0000      -0.910859       -24.7857 
  81   2.0000      -0.898522       -24.4500 
  82   2.0000      -0.877438       -23.8763 
  83   2.0000      -0.871883       -23.7251 
  84   2.0000      -0.871263       -23.7083 
  85   2.0000      -0.861726       -23.4488 
  86   2.0000      -0.845680       -23.0121 
  87   2.0000      -0.838225       -22.8093 
  88   2.0000      -0.829570       -22.5737 
  89   2.0000      -0.796282       -21.6679 
  90   2.0000      -0.789218       -21.4757 
  91   2.0000      -0.775486       -21.1021 
  92   2.0000      -0.753254       -20.4971 
  93   2.0000      -0.734187       -19.9782 
  94   2.0000      -0.728897       -19.8343 
  95   2.0000      -0.726777       -19.7766 
  96   2.0000      -0.720480       -19.6053 
  97   2.0000      -0.718120       -19.5410 
  98   2.0000      -0.714321       -19.4377 
  99   2.0000      -0.700026       -19.0487 
 100   2.0000      -0.698341       -19.0028 
 101   2.0000      -0.694681       -18.9032 
 102   2.0000      -0.685523       -18.6540 
 103   2.0000      -0.684575       -18.6282 
 104   2.0000      -0.678855       -18.4726 
 105   2.0000      -0.674564       -18.3558 
 106   2.0000      -0.673028       -18.3140 
 107   2.0000      -0.660822       -17.9819 
 108   2.0000      -0.658163       -17.9095 
 109   2.0000      -0.652722       -17.7615 
 110   2.0000      -0.652188       -17.7469 
 111   2.0000      -0.646441       -17.5906 
 112   2.0000      -0.645852       -17.5745 
 113   2.0000      -0.638026       -17.3616 
 114   2.0000      -0.635270       -17.2866 
 115   2.0000      -0.628731       -17.1086 
 116   2.0000      -0.623234       -16.9590 
 117   2.0000      -0.620346       -16.8805 
 118   2.0000      -0.612948       -16.6792 
 119   2.0000      -0.612067       -16.6552 
 120   2.0000      -0.611851       -16.6493 
 121   2.0000      -0.611662       -16.6442 
 122   2.0000      -0.601492       -16.3674 
 123   2.0000      -0.589396       -16.0383 
 124   2.0000      -0.581308       -15.8182 
 125   2.0000      -0.581013       -15.8102 
 126   2.0000      -0.580302       -15.7908 
 127   2.0000      -0.571271       -15.5451 
 128   2.0000      -0.566637       -15.4190 
 129   2.0000      -0.560063       -15.2401 
 130   2.0000      -0.555564       -15.1177 
 131   2.0000      -0.547926       -14.9098 
 132   2.0000      -0.542756       -14.7691 
 133   2.0000      -0.540138       -14.6979 
 134   2.0000      -0.538454       -14.6521 
 135   2.0000      -0.536260       -14.5924 
 136   2.0000      -0.531710       -14.4686 
 137   2.0000      -0.517997       -14.0954 
 138   2.0000      -0.516752       -14.0615 
 139   2.0000      -0.514304       -13.9949 
 140   2.0000      -0.512200       -13.9377 
 141   2.0000      -0.509797       -13.8723 
 142   2.0000      -0.507618       -13.8130 
 143   2.0000      -0.505138       -13.7455 
 144   2.0000      -0.502371       -13.6702 
 145   2.0000      -0.495396       -13.4804 
 146   2.0000      -0.488293       -13.2871 
 147   2.0000      -0.480950       -13.0873 
 148   2.0000      -0.476441       -12.9646 
 149   2.0000      -0.467937       -12.7332 
 150   2.0000      -0.466186       -12.6856 
 151   2.0000      -0.456419       -12.4198 
 152   2.0000      -0.451632       -12.2895 
 153   2.0000      -0.445179       -12.1139 
 154   2.0000      -0.437816       -11.9136 
 155   2.0000      -0.427658       -11.6372 
 156   2.0000      -0.409270       -11.1368 
 157   2.0000      -0.390958       -10.6385 
 158   2.0000      -0.388076       -10.5601 
 159   2.0000      -0.384882       -10.4732 
 160   2.0000      -0.378497       -10.2994 
 161   2.0000      -0.373011       -10.1501 
 162   2.0000      -0.358221        -9.7477 
 163   2.0000      -0.356520        -9.7014 
 164   2.0000      -0.355917        -9.6850 
 165   2.0000      -0.342000        -9.3063 
 166   2.0000      -0.337558        -9.1854 
 167   2.0000      -0.324693        -8.8353 
 168   2.0000      -0.320969        -8.7340 
 169   2.0000      -0.305209        -8.3051 
 170   2.0000      -0.299329        -8.1452 
 171   2.0000      -0.285937        -7.7807 
 172   2.0000      -0.278102        -7.5675 
 173   2.0000      -0.263607        -7.1731 
 174   2.0000      -0.242021        -6.5857 
 175   2.0000      -0.189955        -5.1689 
 176   2.0000      -0.181423        -4.9368 
 177   2.0000      -0.080232        -2.1832 
 178   2.0000      -0.059826        -1.6279 
 179   0.0000       0.028446         0.7741 
 180   0.0000       0.065335         1.7778 
 181   0.0000       0.090161         2.4534 
 182   0.0000       0.106027         2.8851 
 183   0.0000       0.117123         3.1871 
 184   0.0000       0.137171         3.7326 
 185   0.0000       0.139323         3.7912 
 186   0.0000       0.140760         3.8303 
 187   0.0000       0.164557         4.4778 
 188   0.0000       0.165305         4.4982 
 189   0.0000       0.165527         4.5042 
 190   0.0000       0.175161         4.7664 
 191   0.0000       0.180191         4.9033 
 192   0.0000       0.183596         4.9959 
 193   0.0000       0.189501         5.1566 
 194   0.0000       0.204967         5.5774 
 195   0.0000       0.205447         5.5905 
 196   0.0000       0.208293         5.6679 
 197   0.0000       0.208618         5.6768 
 198   0.0000       0.216377         5.8879 
 199   0.0000       0.228100         6.2069 
 200   0.0000       0.233587         6.3562 
 201   0.0000       0.234456         6.3799 
 202   0.0000       0.239074         6.5055 
 203   0.0000       0.239663         6.5216 
 204   0.0000       0.246130         6.6975 
 205   0.0000       0.254921         6.9367 
 206   0.0000       0.256402         6.9770 
 207   0.0000       0.257725         7.0130 
 208   0.0000       0.259208         7.0534 
 209   0.0000       0.260590         7.0910 
 210   0.0000       0.264308         7.1922 
 211   0.0000       0.265509         7.2249 
 212   0.0000       0.268592         7.3087 
 213   0.0000       0.269831         7.3425 
 214   0.0000       0.273434         7.4405 
 215   0.0000       0.275805         7.5050 
 216   0.0000       0.278556         7.5799 
 217   0.0000       0.282764         7.6944 
 218   0.0000       0.286716         7.8019 
 219   0.0000       0.287811         7.8317 
 220   0.0000       0.289925         7.8893 
 221   0.0000       0.292507         7.9595 
 222   0.0000       0.294790         8.0217 
 223   0.0000       0.296929         8.0799 
 224   0.0000       0.297087         8.0841 
 225   0.0000       0.301407         8.2017 
 226   0.0000       0.305600         8.3158 
 227   0.0000       0.307732         8.3738 
 228   0.0000       0.318876         8.6770 
 229   0.0000       0.324581         8.8323 
 230   0.0000       0.328722         8.9450 
 231   0.0000       0.335526         9.1301 
 232   0.0000       0.342657         9.3242 
 233   0.0000       0.357258         9.7215 
 234   0.0000       0.372447        10.1348 
 235   0.0000       0.373988        10.1767 
 236   0.0000       0.388723        10.5777 
 237   0.0000       0.390928        10.6377 
 238   0.0000       0.397229        10.8092 
 239   0.0000       0.403526        10.9805 
 240   0.0000       0.407144        11.0789 
 241   0.0000       0.411050        11.1852 
 242   0.0000       0.412660        11.2291 
 243   0.0000       0.419194        11.4069 
 244   0.0000       0.429626        11.6907 
 245   0.0000       0.434986        11.8366 
 246   0.0000       0.440339        11.9822 
 247   0.0000       0.441188        12.0053 
 248   0.0000       0.441634        12.0175 
 249   0.0000       0.448959        12.2168 
 250   0.0000       0.450764        12.2659 
 251   0.0000       0.459180        12.4949 
 252   0.0000       0.466735        12.7005 
 253   0.0000       0.471131        12.8201 
 254   0.0000       0.472238        12.8503 
 255   0.0000       0.474316        12.9068 
 256   0.0000       0.476072        12.9546 
 257   0.0000       0.483958        13.1692 
 258   0.0000       0.488231        13.2854 
 259   0.0000       0.494914        13.4673 
 260   0.0000       0.504056        13.7160 
 261   0.0000       0.504632        13.7317 
 262   0.0000       0.506213        13.7748 
 263   0.0000       0.512291        13.9401 
 264   0.0000       0.515696        14.0328 
 265   0.0000       0.520506        14.1637 
 266   0.0000       0.525549        14.3009 
 267   0.0000       0.528321        14.3763 
 268   0.0000       0.535276        14.5656 
 269   0.0000       0.542168        14.7531 
 270   0.0000       0.551102        14.9962 
 271   0.0000       0.556126        15.1330 
 272   0.0000       0.558733        15.2039 
 273   0.0000       0.563552        15.3350 
 274   0.0000       0.563935        15.3455 
 275   0.0000       0.569788        15.5047 
 276   0.0000       0.573612        15.6088 
 277   0.0000       0.580011        15.7829 
 278   0.0000       0.581283        15.8175 
 279   0.0000       0.586119        15.9491 
 280   0.0000       0.590999        16.0819 
 281   0.0000       0.593668        16.1545 
 282   0.0000       0.595334        16.1999 
 283   0.0000       0.597476        16.2581 
 284   0.0000       0.597942        16.2708 
 285   0.0000       0.602369        16.3913 
 286   0.0000       0.605516        16.4769 
 287   0.0000       0.610101        16.6017 
 288   0.0000       0.618371        16.8267 
 289   0.0000       0.622479        16.9385 
 290   0.0000       0.625836        17.0299 
 291   0.0000       0.630471        17.1560 
 292   0.0000       0.636775        17.3275 
 293   0.0000       0.637898        17.3581 
 294   0.0000       0.645975        17.5779 
 295   0.0000       0.650643        17.7049 
 296   0.0000       0.654829        17.8188 
 297   0.0000       0.659690        17.9511 
 298   0.0000       0.661438        17.9986 
 299   0.0000       0.664798        18.0901 
 300   0.0000       0.670367        18.2416 
 301   0.0000       0.675234        18.3741 
 302   0.0000       0.680491        18.5171 
 303   0.0000       0.680971        18.5302 
 304   0.0000       0.683345        18.5948 
 305   0.0000       0.686986        18.6938 
 306   0.0000       0.689234        18.7550 
 307   0.0000       0.693598        18.8738 
 308   0.0000       0.695259        18.9190 
 309   0.0000       0.701185        19.0802 
 310   0.0000       0.702790        19.1239 
 311   0.0000       0.705402        19.1950 
 312   0.0000       0.708767        19.2865 
 313   0.0000       0.710995        19.3472 
 314   0.0000       0.711157        19.3516 
 315   0.0000       0.715574        19.4718 
 316   0.0000       0.716593        19.4995 
 317   0.0000       0.719132        19.5686 
 318   0.0000       0.726344        19.7648 
 319   0.0000       0.727618        19.7995 
 320   0.0000       0.727929        19.8079 
 321   0.0000       0.729456        19.8495 
 322   0.0000       0.730904        19.8889 
 323   0.0000       0.733000        19.9459 
 324   0.0000       0.736824        20.0500 
 325   0.0000       0.742602        20.2072 
 326   0.0000       0.744118        20.2485 
 327   0.0000       0.745545        20.2873 
 328   0.0000       0.752718        20.4825 
 329   0.0000       0.754445        20.5295 
 330   0.0000       0.758744        20.6465 
 331   0.0000       0.764264        20.7967 
 332   0.0000       0.766795        20.8655 
 333   0.0000       0.768143        20.9022 
 334   0.0000       0.771458        20.9924 
 335   0.0000       0.774793        21.0832 
 336   0.0000       0.777096        21.1458 
 337   0.0000       0.781882        21.2761 
 338   0.0000       0.786918        21.4131 
 339   0.0000       0.790429        21.5087 
 340   0.0000       0.792196        21.5567 
 341   0.0000       0.795163        21.6375 
 342   0.0000       0.798179        21.7196 
 343   0.0000       0.802168        21.8281 
 344   0.0000       0.804851        21.9011 
 345   0.0000       0.808526        22.0011 
 346   0.0000       0.811278        22.0760 
 347   0.0000       0.815271        22.1847 
 348   0.0000       0.815990        22.2042 
 349   0.0000       0.816983        22.2312 
 350   0.0000       0.821484        22.3537 
 351   0.0000       0.823899        22.4194 
 352   0.0000       0.827535        22.5184 
 353   0.0000       0.828844        22.5540 
 354   0.0000       0.830668        22.6036 
 355   0.0000       0.832599        22.6562 
 356   0.0000       0.834671        22.7125 
 357   0.0000       0.835729        22.7414 
 358   0.0000       0.838766        22.8240 
 359   0.0000       0.841842        22.9077 
 360   0.0000       0.842876        22.9358 
 361   0.0000       0.843460        22.9517 
 362   0.0000       0.846094        23.0234 
 363   0.0000       0.850389        23.1403 
 364   0.0000       0.851235        23.1633 
 365   0.0000       0.856285        23.3007 
 366   0.0000       0.862620        23.4731 
 367   0.0000       0.865021        23.5384 
 368   0.0000       0.865330        23.5468 
 369   0.0000       0.868858        23.6428 
 370   0.0000       0.870293        23.6819 
 371   0.0000       0.875798        23.8317 
 372   0.0000       0.876140        23.8410 
 373   0.0000       0.878698        23.9106 
 374   0.0000       0.882724        24.0202 
 375   0.0000       0.883378        24.0380 
 376   0.0000       0.890291        24.2261 
 377   0.0000       0.892850        24.2957 
 378   0.0000       0.894412        24.3382 
 379   0.0000       0.895470        24.3670 
 380   0.0000       0.897577        24.4243 
 381   0.0000       0.898239        24.4423 
 382   0.0000       0.901478        24.5305 
 383   0.0000       0.902954        24.5706 
 384   0.0000       0.906288        24.6614 
 385   0.0000       0.907978        24.7073 
 386   0.0000       0.910565        24.7777 
 387   0.0000       0.913917        24.8690 
 388   0.0000       0.916864        24.9492 
 389   0.0000       0.919478        25.0203 
 390   0.0000       0.921501        25.0753 
 391   0.0000       0.926215        25.2036 
 392   0.0000       0.927217        25.2309 
 393   0.0000       0.928988        25.2791 
 394   0.0000       0.931121        25.3371 
 395   0.0000       0.934599        25.4317 
 396   0.0000       0.938152        25.5284 
 397   0.0000       0.941932        25.6313 
 398   0.0000       0.947150        25.7733 
 399   0.0000       0.949026        25.8243 
 400   0.0000       0.950212        25.8566 
 401   0.0000       0.953549        25.9474 
 402   0.0000       0.956764        26.0349 
 403   0.0000       0.958185        26.0735 
 404   0.0000       0.962098        26.1800 
 405   0.0000       0.963741        26.2247 
 406   0.0000       0.971034        26.4232 
 407   0.0000       0.979570        26.6555 
 408   0.0000       0.982438        26.7335 
 409   0.0000       0.987318        26.8663 
 410   0.0000       0.990619        26.9561 
 411   0.0000       0.995051        27.0767 
 412   0.0000       0.999321        27.1929 
 413   0.0000       1.006538        27.3893 
 414   0.0000       1.013113        27.5682 
 415   0.0000       1.015475        27.6325 
 416   0.0000       1.018582        27.7170 
 417   0.0000       1.026802        27.9407 
 418   0.0000       1.030368        28.0377 
 419   0.0000       1.032838        28.1050 
 420   0.0000       1.036266        28.1982 
 421   0.0000       1.044397        28.4195 
 422   0.0000       1.052511        28.6403 
 423   0.0000       1.054924        28.7059 
 424   0.0000       1.056654        28.7530 
 425   0.0000       1.073660        29.2158 
 426   0.0000       1.077377        29.3169 
 427   0.0000       1.080130        29.3918 
 428   0.0000       1.082002        29.4428 
 429   0.0000       1.085584        29.5403 
 430   0.0000       1.089768        29.6541 
 431   0.0000       1.095559        29.8117 
 432   0.0000       1.099610        29.9219 
 433   0.0000       1.105193        30.0738 
 434   0.0000       1.107863        30.1465 
 435   0.0000       1.113350        30.2958 
 436   0.0000       1.116154        30.3721 
 437   0.0000       1.119893        30.4738 
 438   0.0000       1.122044        30.5324 
 439   0.0000       1.125202        30.6183 
 440   0.0000       1.127234        30.6736 
 441   0.0000       1.131336        30.7852 
 442   0.0000       1.135822        30.9073 
 443   0.0000       1.138222        30.9726 
 444   0.0000       1.138666        30.9847 
 445   0.0000       1.142486        31.0886 
 446   0.0000       1.147471        31.2243 
 447   0.0000       1.150704        31.3122 
 448   0.0000       1.154710        31.4212 
 449   0.0000       1.158665        31.5289 
 450   0.0000       1.160573        31.5808 
 451   0.0000       1.165610        31.7178 
 452   0.0000       1.167315        31.7643 
 453   0.0000       1.168679        31.8014 
 454   0.0000       1.174714        31.9656 
 455   0.0000       1.179492        32.0956 
 456   0.0000       1.183352        32.2006 
 457   0.0000       1.194950        32.5162 
 458   0.0000       1.199218        32.6324 
 459   0.0000       1.200817        32.6759 
 460   0.0000       1.203628        32.7524 
 461   0.0000       1.207532        32.8586 
 462   0.0000       1.209794        32.9202 
 463   0.0000       1.213003        33.0075 
 464   0.0000       1.214782        33.0559 
 465   0.0000       1.216907        33.1137 
 466   0.0000       1.221098        33.2278 
 467   0.0000       1.228471        33.4284 
 468   0.0000       1.231466        33.5099 
 469   0.0000       1.234823        33.6012 
 470   0.0000       1.235880        33.6300 
 471   0.0000       1.240717        33.7616 
 472   0.0000       1.243445        33.8359 
 473   0.0000       1.244390        33.8616 
 474   0.0000       1.249159        33.9914 
 475   0.0000       1.250592        34.0303 
 476   0.0000       1.254224        34.1292 
 477   0.0000       1.257039        34.2058 
 478   0.0000       1.261522        34.3278 
 479   0.0000       1.263514        34.3820 
 480   0.0000       1.268426        34.5156 
 481   0.0000       1.270229        34.5647 
 482   0.0000       1.271455        34.5980 
 483   0.0000       1.275448        34.7067 
 484   0.0000       1.281022        34.8584 
 485   0.0000       1.285110        34.9696 
 486   0.0000       1.288817        35.0705 
 487   0.0000       1.291453        35.1422 
 488   0.0000       1.292698        35.1761 
 489   0.0000       1.297164        35.2976 
 490   0.0000       1.302231        35.4355 
 491   0.0000       1.303374        35.4666 
 492   0.0000       1.308276        35.6000 
 493   0.0000       1.309645        35.6373 
 494   0.0000       1.315704        35.8021 
 495   0.0000       1.320350        35.9285 
 496   0.0000       1.321683        35.9648 
 497   0.0000       1.326868        36.1059 
 498   0.0000       1.329795        36.1856 
 499   0.0000       1.335810        36.3492 
 500   0.0000       1.338090        36.4113 
 501   0.0000       1.339113        36.4391 
 502   0.0000       1.342060        36.5193 
 503   0.0000       1.348528        36.6953 
 504   0.0000       1.349264        36.7153 
 505   0.0000       1.350711        36.7547 
 506   0.0000       1.354101        36.8470 
 507   0.0000       1.356418        36.9100 
 508   0.0000       1.360699        37.0265 
[...]
      pz      :     0.022124  p :     0.079782
      px      :     0.043615
      py      :     0.014044
 77 H s       :     0.884421  s :     0.884421
      pz      :     0.047983  p :     0.079300
      px      :     0.015024
      py      :     0.016293
 78 H s       :     0.884749  s :     0.884749
      pz      :     0.025888  p :     0.079273
      px      :     0.020454
      py      :     0.032932
 79 H s       :     0.910878  s :     0.910878
      pz      :     0.021795  p :     0.086287
      px      :     0.021655
      py      :     0.042838
 80 H s       :     0.864250  s :     0.864250
      pz      :     0.039400  p :     0.084840
      px      :     0.030290
      py      :     0.015150
 81 H s       :     0.886645  s :     0.886645
      pz      :     0.037839  p :     0.084140
      px      :     0.016174
      py      :     0.030126
 82 H s       :     0.916028  s :     0.916028
      pz      :     0.021958  p :     0.086731
      px      :     0.031659
      py      :     0.033115
 83 H s       :     0.873302  s :     0.873302
      pz      :     0.039287  p :     0.084126
      px      :     0.015273
      py      :     0.029567
 84 H s       :     0.886539  s :     0.886539
      pz      :     0.035775  p :     0.083417
      px      :     0.031703
      py      :     0.015940
 85 H s       :     0.892701  s :     0.892701
      pz      :     0.022493  p :     0.079790
      px      :     0.014063
      py      :     0.043234
 86 H s       :     0.890904  s :     0.890904
      pz      :     0.024734  p :     0.078836
      px      :     0.032987
      py      :     0.021115
 87 H s       :     0.889725  s :     0.889725
      pz      :     0.048030  p :     0.078752
      px      :     0.015585
      py      :     0.015138
 88 H s       :     0.910525  s :     0.910525
      pz      :     0.021602  p :     0.087010
      px      :     0.042951
      py      :     0.022457
 89 H s       :     0.870846  s :     0.870846
      pz      :     0.037976  p :     0.083874
      px      :     0.030520
      py      :     0.015379


                      *****************************
                      * MAYER POPULATION ANALYSIS *
                      *****************************

  NA   - Mulliken gross atomic population
  ZA   - Total nuclear charge
  QA   - Mulliken gross atomic charge
  VA   - Mayer's total valence
  BVA  - Mayer's bonded valence
  FA   - Mayer's free valence

  ATOM       NA         ZA         QA         VA         BVA        FA
  0 C      5.7691     6.0000     0.2309     3.8526     3.8526     0.0000
  1 N      7.4552     7.0000    -0.4552     3.3517     3.3517    -0.0000
  2 C      6.0668     6.0000    -0.0668     3.9246     3.9246    -0.0000
  3 N      7.3410     7.0000    -0.3410     3.4553     3.4553     0.0000
  4 C      6.1219     6.0000    -0.1219     4.1898     4.1898    -0.0000
  5 N      7.5692     7.0000    -0.5692     3.0957     3.0957     0.0000
  6 C      6.0958     6.0000    -0.0958     3.9129     3.9129    -0.0000
  7 N      7.3412     7.0000    -0.3412     3.4321     3.4321    -0.0000
  8 C      5.7806     6.0000     0.2194     3.8526     3.8526     0.0000
  9 N      7.5623     7.0000    -0.5623     3.0768     3.0768     0.0000
 10 C      5.8800     6.0000     0.1200     3.9090     3.9090     0.0000
 11 N      7.4386     7.0000    -0.4386     3.3773     3.3773    -0.0000
 12 C      6.0569     6.0000    -0.0569     3.8098     3.8098     0.0000
 13 N      7.4293     7.0000    -0.4293     3.4289     3.4289     0.0000
 14 C      5.7890     6.0000     0.2110     3.8173     3.8173     0.0000
 15 N      7.4408     7.0000    -0.4408     3.3733     3.3733    -0.0000
 16 C      5.7647     6.0000     0.2353     3.7779     3.7779    -0.0000
 17 C      6.1100     6.0000    -0.1100     3.9438     3.9438    -0.0000
 18 C      6.1700     6.0000    -0.1700     3.7421     3.7421    -0.0000
 19 C      5.7942     6.0000     0.2058     3.8874     3.8874    -0.0000
 20 C      5.7865     6.0000     0.2135     3.8292     3.8292    -0.0000
 21 C      6.0447     6.0000    -0.0447     3.7859     3.7859    -0.0000
 22 C      6.0904     6.0000    -0.0904     3.9826     3.9826     0.0000
 23 C      6.0396     6.0000    -0.0396     3.9928     3.9928     0.0000
 24 C      5.8071     6.0000     0.1929     3.8212     3.8212    -0.0000
 25 C      5.8853     6.0000     0.1147     3.8918     3.8918     0.0000
 26 C      6.0886     6.0000    -0.0886     3.9078     3.9078    -0.0000
 27 C      5.7816     6.0000     0.2184     3.8619     3.8619     0.0000
 28 C      6.0619     6.0000    -0.0619     3.9889     3.9889     0.0000
 29 C      6.1841     6.0000    -0.1841     3.7483     3.7483     0.0000
 30 C      5.7540     6.0000     0.2460     3.7997     3.7997    -0.0000
 31 C      5.7698     6.0000     0.2302     3.8168     3.8168     0.0000
 32 C      6.0615     6.0000    -0.0615     3.9233     3.9233    -0.0000
 33 C      6.0598     6.0000    -0.0598     3.9710     3.9710     0.0000
 34 C      6.0515     6.0000    -0.0515     3.9832     3.9832    -0.0000
 35 C      5.7708     6.0000     0.2292     3.8164     3.8164    -0.0000
 36 C      5.8919     6.0000     0.1081     3.8745     3.8745     0.0000
 37 C      6.0645     6.0000    -0.0645     3.9177     3.9177     0.0000
 38 C      5.7692     6.0000     0.2308     3.8011     3.8011    -0.0000
 39 C      6.0573     6.0000    -0.0573     3.9830     3.9830     0.0000
 40 C      6.1818     6.0000    -0.1818     3.7260     3.7260    -0.0000
 41 C      5.7736     6.0000     0.2264     3.8881     3.8881     0.0000
 42 C      5.8026     6.0000     0.1974     3.8254     3.8254     0.0000
 43 C      6.0727     6.0000    -0.0727     3.8999     3.8999     0.0000
 44 C      6.0894     6.0000    -0.0894     3.9849     3.9849    -0.0000
 45 C      6.0618     6.0000    -0.0618     3.9917     3.9917    -0.0000
 46 C      5.7877     6.0000     0.2123     3.8285     3.8285     0.0000
 47 C      5.8847     6.0000     0.1153     3.8926     3.8926    -0.0000
 48 C      6.0663     6.0000    -0.0663     3.9095     3.9095     0.0000
 49 C      5.7623     6.0000     0.2377     3.8963     3.8963     0.0000
 50 C      6.0459     6.0000    -0.0459     3.9903     3.9903    -0.0000
 51 C      6.1928     6.0000    -0.1928     3.7388     3.7388    -0.0000
 52 H      0.9678     1.0000     0.0322     0.9859     0.9859    -0.0000
 53 H      1.0189     1.0000    -0.0189     0.9993     0.9993    -0.0000
 54 H      0.9486     1.0000     0.0514     0.9922     0.9922    -0.0000
 55 H      0.9685     1.0000     0.0315     0.9864     0.9864     0.0000
 56 H      0.9508     1.0000     0.0492     0.9695     0.9695    -0.0000
 57 H      0.9522     1.0000     0.0478     0.9825     0.9825    -0.0000
 58 H      0.9540     1.0000     0.0460     0.9845     0.9845    -0.0000
 59 H      1.0210     1.0000    -0.0210     0.9677     0.9677    -0.0000
 60 H      0.9366     1.0000     0.0634     0.9422     0.9422    -0.0000
 61 H      0.8291     1.0000     0.1709     1.0424     1.0424    -0.0000
 62 H      0.8246     1.0000     0.1754     1.0437     1.0437     0.0000
 63 H      0.9450     1.0000     0.0550     0.9853     0.9853     0.0000
 64 H      1.0412     1.0000    -0.0412     0.9861     0.9861    -0.0000
 65 H      0.9535     1.0000     0.0465     1.0101     1.0101    -0.0000
 66 H      0.9448     1.0000     0.0552     0.9855     0.9855    -0.0000
 67 H      0.9378     1.0000     0.0622     0.9719     0.9719     0.0000
 68 H      0.9430     1.0000     0.0570     0.9868     0.9868     0.0000
 69 H      0.9438     1.0000     0.0562     0.9828     0.9828     0.0000
 70 H      1.0304     1.0000    -0.0304     0.9943     0.9943    -0.0000
 71 H      0.9554     1.0000     0.0446     1.0058     1.0058     0.0000
 72 H      0.9284     1.0000     0.0716     0.9835     0.9835     0.0000
 73 H      1.0079     1.0000    -0.0079     1.0010     1.0010     0.0000
 74 H      0.9394     1.0000     0.0606     1.0100     1.0100     0.0000
 75 H      0.9289     1.0000     0.0711     0.9838     0.9838    -0.0000
 76 H      0.9248     1.0000     0.0752     0.9721     0.9721    -0.0000
 77 H      0.9318     1.0000     0.0682     0.9855     0.9855     0.0000
 78 H      0.9325     1.0000     0.0675     0.9854     0.9854     0.0000
 79 H      1.0169     1.0000    -0.0169     0.9974     0.9974     0.0000
 80 H      0.9384     1.0000     0.0616     1.0072     1.0072    -0.0000
 81 H      0.9453     1.0000     0.0547     0.9856     0.9856     0.0000
 82 H      1.0249     1.0000    -0.0249     0.9935     0.9935     0.0000
 83 H      0.9579     1.0000     0.0421     1.0083     1.0083    -0.0000
 84 H      0.9455     1.0000     0.0545     0.9852     0.9852    -0.0000
 85 H      0.9389     1.0000     0.0611     0.9716     0.9716    -0.0000
 86 H      0.9443     1.0000     0.0557     0.9839     0.9839    -0.0000
 87 H      0.9425     1.0000     0.0575     0.9857     0.9857    -0.0000
 88 H      1.0143     1.0000    -0.0143     0.9968     0.9968     0.0000
 89 H      0.9525     1.0000     0.0475     1.0075     1.0075    -0.0000

  Mayer bond orders larger than 0.100000
B(  0-C ,  1-N ) :   1.1041 B(  0-C , 17-C ) :   1.7290 B(  0-C , 52-H ) :   0.9590 
B(  1-N ,  8-C ) :   1.0916 B(  1-N , 10-C ) :   0.9772 B(  2-C , 12-C ) :   1.4840 
B(  2-C , 16-C ) :   1.3798 B(  2-C , 53-H ) :   0.9705 B(  3-N , 14-C ) :   1.2270 
B(  3-N , 16-C ) :   1.1772 B(  3-N , 61-H ) :   0.8972 B(  4-C ,  6-C ) :   1.2296 
B(  4-C , 17-C ) :   1.2289 B(  4-C , 18-C ) :   1.4882 B(  5-N , 19-C ) :   1.4625 
B(  5-N , 27-C ) :   1.3677 B(  6-C ,  8-C ) :   1.7340 B(  6-C , 54-H ) :   0.8344 
B(  7-N , 30-C ) :   1.1952 B(  7-N , 38-C ) :   1.1893 B(  7-N , 62-H ) :   0.8968 
B(  8-C , 55-H ) :   0.9587 B(  9-N , 41-C ) :   1.3954 B(  9-N , 49-C ) :   1.4240 
B( 10-C , 56-H ) :   0.9777 B( 10-C , 57-H ) :   0.9826 B( 10-C , 58-H ) :   0.9835 
B( 11-N , 20-C ) :   1.1307 B( 11-N , 24-C ) :   1.1060 B( 11-N , 25-C ) :   0.9605 
B( 12-C , 14-C ) :   1.3634 B( 12-C , 59-H ) :   0.9042 B( 13-N , 31-C ) :   1.1617 
B( 13-N , 35-C ) :   1.1615 B( 13-N , 36-C ) :   0.9410 B( 14-C , 18-C ) :   1.1159 
B( 15-N , 42-C ) :   1.1080 B( 15-N , 46-C ) :   1.1256 B( 15-N , 47-C ) :   0.9609 
B( 16-C , 51-C ) :   1.1682 B( 17-C , 60-H ) :   0.8618 B( 18-C , 19-C ) :   1.1130 
B( 19-C , 21-C ) :   1.2564 B( 20-C , 28-C ) :   1.6294 B( 20-C , 63-H ) :   0.9703 
B( 21-C , 26-C ) :   1.5743 B( 21-C , 64-H ) :   0.8811 B( 22-C , 23-C ) :   1.2890 
B( 22-C , 28-C ) :   1.2631 B( 22-C , 29-C ) :   1.2286 B( 23-C , 24-C ) :   1.6207 
B( 23-C , 65-H ) :   0.9703 B( 24-C , 66-H ) :   0.9696 B( 25-C , 67-H ) :   0.9760 
B( 25-C , 68-H ) :   0.9828 B( 25-C , 69-H ) :   0.9824 B( 26-C , 27-C ) :   1.2691 
B( 26-C , 70-H ) :   0.9650 B( 27-C , 29-C ) :   1.2041 B( 28-C , 71-H ) :   0.9720 
B( 29-C , 30-C ) :   1.2474 B( 30-C , 32-C ) :   1.2785 B( 31-C , 39-C ) :   1.5870 
B( 31-C , 72-H ) :   0.9681 B( 32-C , 37-C ) :   1.5802 B( 32-C , 73-H ) :   0.9786 
B( 33-C , 34-C ) :   1.3070 B( 33-C , 39-C ) :   1.3050 B( 33-C , 40-C ) :   1.1755 
B( 34-C , 35-C ) :   1.5849 B( 34-C , 74-H ) :   0.9696 B( 35-C , 75-H ) :   0.9681 
B( 36-C , 76-H ) :   0.9768 B( 36-C , 77-H ) :   0.9816 B( 36-C , 78-H ) :   0.9823 
B( 37-C , 38-C ) :   1.2848 B( 37-C , 79-H ) :   0.9764 B( 38-C , 40-C ) :   1.2343 
B( 39-C , 80-H ) :   0.9705 B( 40-C , 41-C ) :   1.2504 B( 41-C , 43-C ) :   1.1837 
B( 42-C , 50-C ) :   1.6322 B( 42-C , 81-H ) :   0.9696 B( 43-C , 48-C ) :   1.6695 
B( 43-C , 82-H ) :   0.9721 B( 44-C , 45-C ) :   1.2637 B( 44-C , 50-C ) :   1.2733 
B( 44-C , 51-C ) :   1.2588 B( 45-C , 46-C ) :   1.6337 B( 45-C , 83-H ) :   0.9718 
B( 46-C , 84-H ) :   0.9700 B( 47-C , 85-H ) :   0.9762 B( 47-C , 86-H ) :   0.9829 
B( 47-C , 87-H ) :   0.9824 B( 48-C , 49-C ) :   1.1870 B( 48-C , 88-H ) :   0.9748 
B( 49-C , 51-C ) :   1.2475 B( 50-C , 89-H ) :   0.9708 B( 54-H , 64-H ) :   0.1467 
B( 59-H , 60-H ) :   0.1084 

-------
TIMINGS
-------

Total SCF time: 0 days 0 hours 40 min 6 sec 

Total time                  ....    2406.119 sec
Sum of individual times     ....    2403.115 sec  ( 99.9%)

Fock matrix formation       ....    2386.036 sec  ( 99.2%)
Diagonalization             ....       4.571 sec  (  0.2%)
Density matrix formation    ....       0.465 sec  (  0.0%)
Population analysis         ....       0.294 sec  (  0.0%)
Initial guess               ....       2.332 sec  (  0.1%)
Orbital Transformation      ....       0.000 sec  (  0.0%)
Orbital Orthonormalization  ....       0.000 sec  (  0.0%)
DIIS solution               ....       2.416 sec  (  0.1%)
SOSCF solution              ....       5.648 sec  (  0.2%)

Maximum memory used throughout the entire SCF-calculation: 304.3 MB


           ************************************************************
           *        Program running with 8 parallel MPI-processes     *
           *              working on a common directory               *
           ************************************************************

------------------------------------------------------------------------------
                                ORCA  MP2 
------------------------------------------------------------------------------

Freezing NCore=104 chemical core electrons

----------
MP2 ENERGY (disk based algorithm)
----------

Dimension of the basis                    ...  918
Memory devoted to MP2                     ... 7000 MB   
Data format for buffers                   ... DOUBLE
Compression type for matrix containers    ... UNCOMPRESSED

-------------------------------
PARTIAL EXCHANGE TRANSFORMATION
-------------------------------

Transformation type                        ... one-operator
Generation of integrals (i,mue|j,nue)      ... ON
Generation of integrals (mue,kappa|nue,tau)... OFF
Generation of integrals (i,mue|a,nue)      ... OFF
Dimension of the basis                     ...  918
Number of internal MOs                     ...  127 (  52- 178)
Pair cutoff                                ... 2.500e-12 Eh
Number of AO pairs in the trafo            ... 421821
Total Number of distinct AO pairs          ... 421821
Memory devoted for trafo                   ... 7000.0 MB 
Max. Number of MO pairs treated together   ... 1088      
Number Format for Storage                  ... Double (8 Byte)
Integral package used                      ... LIBINT

Starting integral evaluation:
    ... done with AO integral generation
Closing buffer AOK     (38.23 GB; CompressionRatio= 1.33)
Collecting buffer AOK 
Number of MO pairs included in the trafo   ... 8128
------------------------
SORTING OF (i,mue|j,nue)
------------------------

IBATCH = 1 of  1
Closing buffer KAO     (51.03 GB; CompressionRatio= 1.00)
Collecting buffer KAO 
N(AO-Batches) Done                         ... 174856343 
N(AO-Batches) Skipped                      ... 167672097 
N(IJ)-pairs Skipped                        ...         0 
TOTAL TIME for half transformation         ...   980.357 sec
AO-integral generation                     ...   231.237 sec
Half transformation                        ...   430.848 sec
K-integral sorting                         ...    81.829 sec

Finished integral transformation - now doing MP2 part

OPERATOR COMBINATION   0   0: ij=( 52..178, 52..178)
Process 2:   Internal MO  84
Process 5:   Internal MO 132
Process 0:   Internal MO  54
Process 0:   Internal MO  57
Process 1:   Internal MO  69
Process 0:   Internal MO  60
Process 4:   Internal MO 117
Process 0:   Internal MO  63
Process 1:   Internal MO  72
Process 2:   Internal MO  87
Process 3:   Internal MO 102
Process 0:   Internal MO  66
Process 7:   Internal MO 165
Process 1:   Internal MO  75
Process 6:   Internal MO 150
Process 2:   Internal MO  90
Process 1:   Internal MO  78
Process 5:   Internal MO 135
Process 3:   Internal MO 105
Process 4:   Internal MO 120
Process 1:   Internal MO  81
Process 2:   Internal MO  93
Process 3:   Internal MO 108
Process 2:   Internal MO  96
Process 4:   Internal MO 123
Process 7:   Internal MO 168
Process 6:   Internal MO 153
Process 5:   Internal MO 138
Process 2:   Internal MO  99
Process 3:   Internal MO 111
Process 4:   Internal MO 126
Process 5:   Internal MO 141
Process 3:   Internal MO 114
Process 6:   Internal MO 156
Process 7:   Internal MO 171
Process 4:   Internal MO 129
Process 5:   Internal MO 144
Process 6:   Internal MO 159
Process 7:   Internal MO 174
Process 5:   Internal MO 147
Process 6:   Internal MO 162
Process 7:   Internal MO 177
-----------------------------------------------
 MP2 CORRELATION ENERGY   :     -7.293406476 Eh
-----------------------------------------------


-------
TIMINGS
-------
Total time                : 1100.816 sec
Integral trafo            :  988.533 sec ( 89.8%)
K(i,j)                    :    7.524 sec (  0.7%)
T(i,j)                    :    0.098 sec (  0.0%)

---------------------------------------
MP2 TOTAL ENERGY:    -2130.736298545 Eh
---------------------------------------

Maximum memory used throughout the entire MP2-calculation: 6735.8 MB

-------------------------   --------------------
FINAL SINGLE POINT ENERGY     -2130.736298544632
-------------------------   --------------------


                            ***************************************
                            *     ORCA property calculations      *
                            ***************************************


  WARNING: The energy has been calculated at the MP2 level but the densities
           used in the property calculations are still SCF densities
           MP2 response densities have not been calculated 
           use %mp2 Density relaxed end
           or  %mp2 Density unrelaxed end

                                    ---------------------
                                    Active property flags
                                    ---------------------
   (+) Dipole Moment


------------------------------------------------------------------------------
                       ORCA ELECTRIC PROPERTIES CALCULATION
------------------------------------------------------------------------------

Dipole Moment Calculation                       ... on
Quadrupole Moment Calculation                   ... off
Polarizability Calculation                      ... off
GBWName                                         ... /scratch/chu_02/allen/tmpyp4_amber_gaff2/conf1/conf1/Conf359.orca.gbw
Electron density                                ... /scratch/chu_02/allen/tmpyp4_amber_gaff2/conf1/conf1/Conf359.orca.scfp
The origin for moment calculation is the CENTER OF MASS  = (-0.001314, -0.005013  0.001964)

-------------
DIPOLE MOMENT
-------------
                                X             Y             Z
Electronic contribution:      2.93787      -4.28060      -0.07784
Nuclear contribution   :     -0.03429       0.16388       0.09625
                        -----------------------------------------
Total Dipole Moment    :      2.90358      -4.11672       0.01841
                        -----------------------------------------
Magnitude (a.u.)       :      5.03770
Magnitude (Debye)      :     12.80483



--------------------
Rotational spectrum 
--------------------
 
Rotational constants in cm-1:     0.001504     0.001478     0.000760 
Rotational constants in MHz :    45.075599    44.299797    22.780415 

 Dipole components along the rotational axes: 
x,y,z [a.u.] :    -3.565793    -3.558528     0.021662 
x,y,z [Debye]:    -9.063526    -9.045058     0.055061 

 

Timings for individual modules:

Sum of individual times         ...     3513.586 sec (=  58.560 min)
GTO integral calculation        ...        2.927 sec (=   0.049 min)   0.1 %
SCF iterations                  ...     2407.347 sec (=  40.122 min)  68.5 %
MP2 module                      ...     1103.311 sec (=  18.389 min)  31.4 %
                             ****ORCA TERMINATED NORMALLY****
TOTAL RUN TIME: 0 days 0 hours 58 minutes 35 seconds 226 msec
# of primitive gaussian functions

