
                                 *****************
                                 * O   R   C   A *
                                 *****************

                                            #,                                       
                                            ###                                      
                                            ####                                     
                                            #####                                    
                                            ######                                   
                                           ########,                                 
                                     ,,################,,,,,                         
                               ,,#################################,,                 
                          ,,##########################################,,             
                       ,#########################################, ''#####,          
                    ,#############################################,,   '####,        
                  ,##################################################,,,,####,       
                ,###########''''           ''''###############################       
              ,#####''   ,,,,##########,,,,          '''####'''          '####       
            ,##' ,,,,###########################,,,                        '##       
           ' ,,###''''                  '''############,,,                           
         ,,##''                                '''############,,,,        ,,,,,,###''
      ,#''                                            '''#######################'''  
     '                                                          ''''####''''         
             ,#######,   #######,   ,#######,      ##                                
            ,#'     '#,  ##    ##  ,#'     '#,    #''#        ######   ,####,        
            ##       ##  ##   ,#'  ##            #'  '#       #        #'  '#        
            ##       ##  #######   ##           ,######,      #####,   #    #        
            '#,     ,#'  ##    ##  '#,     ,#' ,#      #,         ##   #,  ,#        
             '#######'   ##     ##  '#######'  #'      '#     #####' # '####'        



                  #######################################################
                  #                        -***-                        #
                  #          Department of theory and spectroscopy      #
                  #    Directorship and core code : Frank Neese         #
                  #        Max Planck Institute fuer Kohlenforschung    #
                  #                Kaiser Wilhelm Platz 1               #
                  #                 D-45470 Muelheim/Ruhr               #
                  #                      Germany                        #
                  #                                                     #
                  #                  All rights reserved                #
                  #                        -***-                        #
                  #######################################################


                         Program Version 5.0.4 -  RELEASE  -


 With contributions from (in alphabetic order):
   Daniel Aravena         : Magnetic Suceptibility
   Michael Atanasov       : Ab Initio Ligand Field Theory (pilot matlab implementation)
   Alexander A. Auer      : GIAO ZORA, VPT2 properties, NMR spectrum
   Ute Becker             : Parallelization
   Giovanni Bistoni       : ED, misc. LED, open-shell LED, HFLD
   Martin Brehm           : Molecular dynamics
   Dmytro Bykov           : SCF Hessian
   Vijay G. Chilkuri      : MRCI spin determinant printing, contributions to CSF-ICE
   Dipayan Datta          : RHF DLPNO-CCSD density
   Achintya Kumar Dutta   : EOM-CC, STEOM-CC
   Dmitry Ganyushin       : Spin-Orbit,Spin-Spin,Magnetic field MRCI
   Miquel Garcia          : C-PCM and meta-GGA Hessian, CC/C-PCM, Gaussian charge scheme
   Yang Guo               : DLPNO-NEVPT2, F12-NEVPT2, CIM, IAO-localization
   Andreas Hansen         : Spin unrestricted coupled pair/coupled cluster methods
   Benjamin Helmich-Paris : MC-RPA, TRAH-SCF, COSX integrals
   Lee Huntington         : MR-EOM, pCC
   Robert Izsak           : Overlap fitted RIJCOSX, COSX-SCS-MP3, EOM
   Marcus Kettner         : VPT2
   Christian Kollmar      : KDIIS, OOCD, Brueckner-CCSD(T), CCSD density, CASPT2, CASPT2-K
   Simone Kossmann        : Meta GGA functionals, TD-DFT gradient, OOMP2, MP2 Hessian
   Martin Krupicka        : Initial AUTO-CI
   Lucas Lang             : DCDCAS
   Marvin Lechner         : AUTO-CI (C++ implementation), FIC-MRCC
   Dagmar Lenk            : GEPOL surface, SMD
   Dimitrios Liakos       : Extrapolation schemes; Compound Job, initial MDCI parallelization
   Dimitrios Manganas     : Further ROCIS development; embedding schemes
   Dimitrios Pantazis     : SARC Basis sets
   Anastasios Papadopoulos: AUTO-CI, single reference methods and gradients
   Taras Petrenko         : DFT Hessian,TD-DFT gradient, ASA, ECA, R-Raman, ABS, FL, XAS/XES, NRVS
   Peter Pinski           : DLPNO-MP2, DLPNO-MP2 Gradient
   Christoph Reimann      : Effective Core Potentials
   Marius Retegan         : Local ZFS, SOC
   Christoph Riplinger    : Optimizer, TS searches, QM/MM, DLPNO-CCSD(T), (RO)-DLPNO pert. Triples
   Tobias Risthaus        : Range-separated hybrids, TD-DFT gradient, RPA, STAB
   Michael Roemelt        : Original ROCIS implementation
   Masaaki Saitow         : Open-shell DLPNO-CCSD energy and density
   Barbara Sandhoefer     : DKH picture change effects
   Avijit Sen             : IP-ROCIS
   Kantharuban Sivalingam : CASSCF convergence, NEVPT2, FIC-MRCI
   Bernardo de Souza      : ESD, SOC TD-DFT
   Georgi Stoychev        : AutoAux, RI-MP2 NMR, DLPNO-MP2 response
   Willem Van den Heuvel  : Paramagnetic NMR
   Boris Wezisla          : Elementary symmetry handling
   Frank Wennmohs         : Technical directorship


 We gratefully acknowledge several colleagues who have allowed us to
 interface, adapt or use parts of their codes:
   Stefan Grimme, W. Hujo, H. Kruse, P. Pracht,  : VdW corrections, initial TS optimization,
                  C. Bannwarth, S. Ehlert          DFT functionals, gCP, sTDA/sTD-DF
   Ed Valeev, F. Pavosevic, A. Kumar             : LibInt (2-el integral package), F12 methods
   Garnet Chan, S. Sharma, J. Yang, R. Olivares  : DMRG
   Ulf Ekstrom                                   : XCFun DFT Library
   Mihaly Kallay                                 : mrcc  (arbitrary order and MRCC methods)
   Jiri Pittner, Ondrej Demel                    : Mk-CCSD
   Frank Weinhold                                : gennbo (NPA and NBO analysis)
   Christopher J. Cramer and Donald G. Truhlar   : smd solvation model
   Lars Goerigk                                  : TD-DFT with DH, B97 family of functionals
   V. Asgeirsson, H. Jonsson                     : NEB implementation
   FAccTs GmbH                                   : IRC, NEB, NEB-TS, DLPNO-Multilevel, CI-OPT
                                                   MM, QMMM, 2- and 3-layer-ONIOM, Crystal-QMMM,
                                                   LR-CPCM, SF, NACMEs, symmetry and pop. for TD-DFT,
                                                   nearIR, NL-DFT gradient (VV10), updates on ESD,
                                                   ML-optimized integration grids
   S Lehtola, MJT Oliveira, MAL Marques          : LibXC Library
   Liviu Ungur et al                             : ANISO software


 Your calculation uses the libint2 library for the computation of 2-el integrals
 For citations please refer to: http://libint.valeyev.net

 Your ORCA version has been built with support for libXC version: 5.1.0
 For citations please refer to: https://tddft.org/programs/libxc/

 This ORCA versions uses:
   CBLAS   interface :  Fast vector & matrix operations
   LAPACKE interface :  Fast linear algebra routines
   SCALAPACK package :  Parallel linear algebra routines
   Shared memory     :  Shared parallel matrices
   BLAS/LAPACK       :  OpenBLAS 0.3.15  USE64BITINT DYNAMIC_ARCH NO_AFFINITY Sandybridge SINGLE_THREADED
        Core in use  :  Sandybridge
   Copyright (c) 2011-2014, The OpenBLAS Project


================================================================================

----- Orbital basis set information -----
Your calculation utilizes the basis: cc-pVDZ 
       H, B-Ne : Obtained from the ccRepo (grant-hill.group.shef.ac.uk/ccrepo) Feb. 2017
                 T. H. Dunning, Jr., J. Chem. Phys. 90, 1007 (1989)
            He : Obtained from the ccRepo (grant-hill.group.shef.ac.uk/ccrepo) Feb. 2017
                 D. E. Woon, T. H. Dunning, Jr., J. Chem. Phys. 100, 2975 (1994)
  Li-Be, Na-Mg : Obtained from the ccRepo (grant-hill.group.shef.ac.uk/ccrepo) Feb. 2017
                 B. P. Prascher, D. E. Woon, K. A. Peterson, T. H. Dunning, Jr., A. K. Wilson, Theor. Chem. Acc. 128, 69 (2011)
         Al-Ar : Obtained from the ccRepo (grant-hill.group.shef.ac.uk/ccrepo) Feb. 2017
                 D. E. Woon, T. H. Dunning, Jr., J. Chem. Phys. 98, 1358 (1993)
            Ca : Obtained from the Peterson Research Group Website (tyr0.chem.wsu.edu/~kipeters) Feb. 2017
                 J. Koput, K. A. Peterson, J. Phys. Chem. 106, 9595 (2002)
         Sc-Zn : Obtained from the ccRepo (grant-hill.group.shef.ac.uk/ccrepo) Feb. 2017
                 N. B. Balabanov, K. A. Peterson, J. Chem. Phys. 123, 064107 (2005)
                 N. B. Balabanov, K. A. Peterson, J. Chem. Phys. 125, 074110 (2006)
         Ga-Kr : Obtained from the ccRepo (grant-hill.group.shef.ac.uk/ccrepo) Feb. 2017
                 A. K. Wilson, D. E. Woon, K. A. Peterson, T. H. Dunning, Jr., J. Chem. Phys. 110, 7667 (1999)

================================================================================
                                        WARNINGS
                       Please study these warnings very carefully!
================================================================================


WARNING: No MP2 level density has been requested!
         To caclulate MP2 level properties use
         %mp2 Density relaxed end
         or
         %mp2 Density unrelaxed end

WARNING: Post HF methods need fully converged wavefunctions
  ===> : Setting SCFConvForced true
         You can overwrite this default with %scf ConvForced false 


INFO   : the flag for use of the SHARK integral package has been found!

================================================================================
                                       INPUT FILE
================================================================================
NAME = /scratch/allen/tmpyp4_amber_gaff2/2.Mdgx/conf11/conf11/Conf205.orca
|  1> ! PAL2
|  2> ! mp2 cc-pvdz TightSCF  NoKeepInts
|  3> 
|  4> %scf
|  5>   MaxCore 2000
|  6> end
|  7> %mp2
|  8>   MaxCore 2000
|  9> end
| 10> * xyz 0 1
| 11>    C       -4.88000         5.22400         0.52600
| 12>    C        1.47400         4.04100         0.05700
| 13>    C       -2.80200         4.09300         0.04900
| 14>    C       -2.29900         5.32000        -0.41100
| 15>    C       -3.09300         6.44900        -0.38500
| 16>    C       -5.17800         7.62600         0.12400
| 17>    C        0.13200         4.30700         0.06100
| 18>    C       -0.56900         3.05600         0.04700
| 19>    C        1.64900         2.61800         0.02300
| 20>    C       -4.12200         4.06900         0.52500
| 21>    N       -4.36500         6.39100         0.07500
| 22>    N        0.38800         2.06700         0.02500
| 23>    N       -2.01000         0.39500        -0.07500
| 24>    N       -0.38800        -2.07400        -0.02700
| 25>    N        2.01000        -0.40100         0.06500
| 26>    C       -1.96000         2.86100         0.02400
| 27>    C       -2.62300         1.61500        -0.01800
| 28>    C       -5.57300        -4.32900         1.06600
| 29>    C       -4.07300         1.47100         0.05600
| 30>    C       -4.10600        -2.75600        -0.02600
| 31>    C       -4.99500        -2.75700        -1.11100
| 32>    C       -6.13200        -3.54200        -1.07600
| 33>    C       -7.65100        -5.11300         0.04000
| 34>    C       -4.32400         0.14100         0.03700
| 35>    C       -3.02500        -0.52000        -0.04800
| 36>    C       -4.42200        -3.56600         1.07500
| 37>    N       -6.40700        -4.31300         0.00100
| 38>    C       -2.86700        -1.92200        -0.04000
| 39>    C       -1.65000        -2.62400        -0.02700
| 40>    C        3.56800        -6.14200        -1.04000
| 41>    C       -1.47600        -4.04900        -0.03400
| 42>    C        2.80300        -4.09900        -0.00800
| 43>    C        3.65700        -4.38400         1.06900
| 44>    C        4.42700        -5.53000         1.05900
| 45>    C        5.24500        -7.58800         0.01400
| 46>    C       -0.13400        -4.31500        -0.02200
| 47>    C        0.56800        -3.06400        -0.02700
| 48>    C        2.77500        -5.01200        -1.07400
| 49>    N        4.37600        -6.39100         0.01700
| 50>    C        1.95900        -2.86900        -0.00900
| 51>    C        2.62100        -1.62200         0.00900
| 52>    C        5.54300         4.33900        -1.13000
| 53>    C        4.07000        -1.47900        -0.09400
| 54>    C        4.10400         2.75100        -0.02100
| 55>    C        5.02700         2.72900         1.03600
| 56>    C        6.16600         3.50900         0.97800
| 57>    C        7.61900         5.15300        -0.11500
| 58>    C        4.32100        -0.14800        -0.09200
| 59>    C        3.02500         0.51400         0.01500
| 60>    C        4.38700         3.58200        -1.11500
| 61>    C        2.86600         1.91600         0.01300
| 62>    N        6.41300         4.29600        -0.09500
| 63>    H       -5.90600         5.25000         0.87200
| 64>    H        2.27400         4.76600         0.08100
| 65>    H       -1.28400         5.40400        -0.78100
| 66>    H       -2.74600         7.41800        -0.72000
| 67>    H       -4.97300         8.14900         1.06200
| 68>    H       -4.91000         8.25700        -0.72300
| 69>    H       -6.23200         7.35400         0.07000
| 70>    H       -0.33200         5.28200         0.06900
| 71>    H       -4.57300         3.15000         0.88100
| 72>    H        0.18200         1.07200         0.00500
| 73>    H       -0.18300        -1.08000        -0.02100
| 74>    H       -5.86400        -4.96200         1.89500
| 75>    H       -4.79400         2.27200         0.13900
| 76>    H       -4.80000        -2.16000        -1.99400
| 77>    H       -6.84100        -3.58200        -1.89300
| 78>    H       -8.42800        -4.53600         0.54600
| 79>    H       -7.95600        -5.33700        -0.98100
| 80>    H       -7.45600        -6.03700         0.58400
| 81>    H       -5.28700        -0.34400         0.10000
| 82>    H       -3.78000        -3.60100         1.94700
| 83>    H        3.58700        -6.86800        -1.84300
| 84>    H       -2.27600        -4.77400        -0.05000
| 85>    H        3.71400        -3.72400         1.92600
| 86>    H        5.09200        -5.79500         1.87100
| 87>    H        6.20500        -7.32900        -0.43900
| 88>    H        5.39300        -7.91700         1.04200
| 89>    H        4.75900        -8.37300        -0.56400
| 90>    H        0.32900        -5.29000        -0.00800
| 91>    H        2.14600        -4.84200        -1.94000
| 92>    H        5.80800         4.98600        -1.95600
| 93>    H        4.78800        -2.28100        -0.18500
| 94>    H        4.86000         2.11400         1.91200
| 95>    H        6.90100         3.53100         1.77200
| 96>    H        7.38300         6.10900         0.35600
| 97>    H        8.41400         4.65200         0.43500
| 98>    H        7.92100         5.31000        -1.15000
| 99>    H        5.28300         0.33600        -0.17900
|100>    H        3.72000         3.63200        -1.96700
|101> *
|102> 
|103>                          ****END OF INPUT****
================================================================================

                       ****************************
                       * Single Point Calculation *
                       ****************************

---------------------------------
CARTESIAN COORDINATES (ANGSTROEM)
---------------------------------
  C     -4.880000    5.224000    0.526000
  C      1.474000    4.041000    0.057000
  C     -2.802000    4.093000    0.049000
  C     -2.299000    5.320000   -0.411000
  C     -3.093000    6.449000   -0.385000
  C     -5.178000    7.626000    0.124000
  C      0.132000    4.307000    0.061000
  C     -0.569000    3.056000    0.047000
  C      1.649000    2.618000    0.023000
  C     -4.122000    4.069000    0.525000
  N     -4.365000    6.391000    0.075000
  N      0.388000    2.067000    0.025000
  N     -2.010000    0.395000   -0.075000
  N     -0.388000   -2.074000   -0.027000
  N      2.010000   -0.401000    0.065000
  C     -1.960000    2.861000    0.024000
  C     -2.623000    1.615000   -0.018000
  C     -5.573000   -4.329000    1.066000
  C     -4.073000    1.471000    0.056000
  C     -4.106000   -2.756000   -0.026000
  C     -4.995000   -2.757000   -1.111000
  C     -6.132000   -3.542000   -1.076000
  C     -7.651000   -5.113000    0.040000
  C     -4.324000    0.141000    0.037000
  C     -3.025000   -0.520000   -0.048000
  C     -4.422000   -3.566000    1.075000
  N     -6.407000   -4.313000    0.001000
  C     -2.867000   -1.922000   -0.040000
  C     -1.650000   -2.624000   -0.027000
  C      3.568000   -6.142000   -1.040000
  C     -1.476000   -4.049000   -0.034000
  C      2.803000   -4.099000   -0.008000
  C      3.657000   -4.384000    1.069000
  C      4.427000   -5.530000    1.059000
  C      5.245000   -7.588000    0.014000
  C     -0.134000   -4.315000   -0.022000
  C      0.568000   -3.064000   -0.027000
  C      2.775000   -5.012000   -1.074000
  N      4.376000   -6.391000    0.017000
  C      1.959000   -2.869000   -0.009000
  C      2.621000   -1.622000    0.009000
  C      5.543000    4.339000   -1.130000
  C      4.070000   -1.479000   -0.094000
  C      4.104000    2.751000   -0.021000
  C      5.027000    2.729000    1.036000
  C      6.166000    3.509000    0.978000
  C      7.619000    5.153000   -0.115000
  C      4.321000   -0.148000   -0.092000
  C      3.025000    0.514000    0.015000
  C      4.387000    3.582000   -1.115000
  C      2.866000    1.916000    0.013000
  N      6.413000    4.296000   -0.095000
  H     -5.906000    5.250000    0.872000
  H      2.274000    4.766000    0.081000
  H     -1.284000    5.404000   -0.781000
  H     -2.746000    7.418000   -0.720000
  H     -4.973000    8.149000    1.062000
  H     -4.910000    8.257000   -0.723000
  H     -6.232000    7.354000    0.070000
  H     -0.332000    5.282000    0.069000
  H     -4.573000    3.150000    0.881000
  H      0.182000    1.072000    0.005000
  H     -0.183000   -1.080000   -0.021000
  H     -5.864000   -4.962000    1.895000
  H     -4.794000    2.272000    0.139000
  H     -4.800000   -2.160000   -1.994000
  H     -6.841000   -3.582000   -1.893000
  H     -8.428000   -4.536000    0.546000
  H     -7.956000   -5.337000   -0.981000
  H     -7.456000   -6.037000    0.584000
  H     -5.287000   -0.344000    0.100000
  H     -3.780000   -3.601000    1.947000
  H      3.587000   -6.868000   -1.843000
  H     -2.276000   -4.774000   -0.050000
  H      3.714000   -3.724000    1.926000
  H      5.092000   -5.795000    1.871000
  H      6.205000   -7.329000   -0.439000
  H      5.393000   -7.917000    1.042000
  H      4.759000   -8.373000   -0.564000
  H      0.329000   -5.290000   -0.008000
  H      2.146000   -4.842000   -1.940000
  H      5.808000    4.986000   -1.956000
  H      4.788000   -2.281000   -0.185000
  H      4.860000    2.114000    1.912000
  H      6.901000    3.531000    1.772000
  H      7.383000    6.109000    0.356000
  H      8.414000    4.652000    0.435000
  H      7.921000    5.310000   -1.150000
  H      5.283000    0.336000   -0.179000
  H      3.720000    3.632000   -1.967000

----------------------------
CARTESIAN COORDINATES (A.U.)
----------------------------
  NO LB      ZA    FRAG     MASS         X           Y           Z
   0 C     6.0000    0    12.011   -9.221864    9.871929    0.993996
   1 C     6.0000    0    12.011    2.785456    7.636383    0.107714
   2 C     6.0000    0    12.011   -5.295013    7.734649    0.092597
   3 C     6.0000    0    12.011   -4.344480   10.053343   -0.776677
   4 C     6.0000    0    12.011   -5.844923   12.186844   -0.727545
   5 C     6.0000    0    12.011   -9.785002   14.411051    0.234326
   6 C     6.0000    0    12.011    0.249444    8.139050    0.115273
   7 C     6.0000    0    12.011   -1.075254    5.775003    0.088817
   8 C     6.0000    0    12.011    3.116158    4.947303    0.043464
   9 C     6.0000    0    12.011   -7.789451    7.689296    0.992106
  10 N     7.0000    0    14.007   -8.248655   12.077240    0.141729
  11 N     7.0000    0    14.007    0.733214    3.906064    0.047243
  12 N     7.0000    0    14.007   -3.798350    0.746442   -0.141729
  13 N     7.0000    0    14.007   -0.733214   -3.919292   -0.051023
  14 N     7.0000    0    14.007    3.798350   -0.757780    0.122832
  15 C     6.0000    0    12.011   -3.703863    5.406506    0.045353
  16 C     6.0000    0    12.011   -4.956752    3.051908   -0.034015
  17 C     6.0000    0    12.011  -10.531444   -8.180624    2.014448
  18 C     6.0000    0    12.011   -7.696855    2.779787    0.105825
  19 C     6.0000    0    12.011   -7.759216   -5.208085   -0.049133
  20 C     6.0000    0    12.011   -9.439182   -5.209975   -2.099486
  21 C     6.0000    0    12.011  -11.587801   -6.693410   -2.033345
  22 C     6.0000    0    12.011  -14.458295   -9.662170    0.075589
  23 C     6.0000    0    12.011   -8.171176    0.266451    0.069920
  24 C     6.0000    0    12.011   -5.716422   -0.982658   -0.090707
  25 C     6.0000    0    12.011   -8.356369   -6.738763    2.031456
  26 N     7.0000    0    14.007  -12.107475   -8.150389    0.001890
  27 C     6.0000    0    12.011   -5.417845   -3.632054   -0.075589
  28 C     6.0000    0    12.011   -3.118048   -4.958641   -0.051023
  29 C     6.0000    0    12.011    6.742543  -11.606698   -1.965315
  30 C     6.0000    0    12.011   -2.789236   -7.651501   -0.064251
  31 C     6.0000    0    12.011    5.296902   -7.745987   -0.015118
  32 C     6.0000    0    12.011    6.910728   -8.284559    2.020117
  33 C     6.0000    0    12.011    8.365818  -10.450186    2.001220
  34 C     6.0000    0    12.011    9.911614  -14.339242    0.026456
  35 C     6.0000    0    12.011   -0.253223   -8.154168   -0.041574
  36 C     6.0000    0    12.011    1.073364   -5.790121   -0.051023
  37 C     6.0000    0    12.011    5.243990   -9.471307   -2.029566
  38 N     7.0000    0    14.007    8.269442  -12.077240    0.032125
  39 C     6.0000    0    12.011    3.701973   -5.421624   -0.017008
  40 C     6.0000    0    12.011    4.952972   -3.065136    0.017008
  41 C     6.0000    0    12.011   10.474752    8.199522   -2.135391
  42 C     6.0000    0    12.011    7.691185   -2.794905   -0.177634
  43 C     6.0000    0    12.011    7.755436    5.198637   -0.039684
  44 C     6.0000    0    12.011    9.499653    5.157063    1.957756
  45 C     6.0000    0    12.011   11.652051    6.631049    1.848152
  46 C     6.0000    0    12.011   14.397823    9.737759   -0.217319
  47 C     6.0000    0    12.011    8.165507   -0.279679   -0.173855
  48 C     6.0000    0    12.011    5.716422    0.971319    0.028346
  49 C     6.0000    0    12.011    8.290229    6.768999   -2.107045
  50 C     6.0000    0    12.011    5.415955    3.620715    0.024566
  51 N     7.0000    0    14.007   12.118814    8.118263   -0.179524
  52 H     1.0000    0     1.008  -11.160723    9.921062    1.647841
  53 H     1.0000    0     1.008    4.297237    9.006435    0.153068
  54 H     1.0000    0     1.008   -2.426408   10.212080   -1.475876
  55 H     1.0000    0     1.008   -5.189188   14.017988   -1.360603
  56 H     1.0000    0     1.008   -9.397608   15.399378    2.006889
  57 H     1.0000    0     1.008   -9.278555   15.603469   -1.366272
  58 H     1.0000    0     1.008  -11.776773   13.897046    0.132281
  59 H     1.0000    0     1.008   -0.627389    9.981533    0.130391
  60 H     1.0000    0     1.008   -8.641718    5.952637    1.664849
  61 H     1.0000    0     1.008    0.343930    2.025786    0.009449
  62 H     1.0000    0     1.008   -0.345820   -2.040904   -0.039684
  63 H     1.0000    0     1.008  -11.081354   -9.376821    3.581031
  64 H     1.0000    0     1.008   -9.059347    4.293458    0.262672
  65 H     1.0000    0     1.008   -9.070685   -4.081808   -3.768114
  66 H     1.0000    0     1.008  -12.927616   -6.768999   -3.577252
  67 H     1.0000    0     1.008  -15.926612   -8.571798    1.031790
  68 H     1.0000    0     1.008  -15.034661  -10.085468   -1.853821
  69 H     1.0000    0     1.008  -14.089798  -11.408277    1.103600
  70 H     1.0000    0     1.008   -9.990982   -0.650066    0.188973
  71 H     1.0000    0     1.008   -7.143165   -6.804904    3.679297
  72 H     1.0000    0     1.008    6.778448  -12.978639   -3.482765
  73 H     1.0000    0     1.008   -4.301017   -9.021553   -0.094486
  74 H     1.0000    0     1.008    7.018443   -7.037340    3.639613
  75 H     1.0000    0     1.008    9.622485  -10.950963    3.535678
  76 H     1.0000    0     1.008   11.725751  -13.849803   -0.829590
  77 H     1.0000    0     1.008   10.191293  -14.960962    1.969095
  78 H     1.0000    0     1.008    8.993207  -15.822677   -1.065806
  79 H     1.0000    0     1.008    0.621720   -9.996651   -0.015118
  80 H     1.0000    0     1.008    4.055352   -9.150054   -3.666069
  81 H     1.0000    0     1.008   10.975529    9.422175   -3.696304
  82 H     1.0000    0     1.008    9.048009   -4.310465   -0.349599
  83 H     1.0000    0     1.008    9.184069    3.994881    3.613156
  84 H     1.0000    0     1.008   13.041000    6.672623    3.348595
  85 H     1.0000    0     1.008   13.951848   11.544337    0.672743
  86 H     1.0000    0     1.008   15.900156    8.791006    0.822031
  87 H     1.0000    0     1.008   14.968521   10.034446   -2.173185
  88 H     1.0000    0     1.008    9.983423    0.634948   -0.338261
  89 H     1.0000    0     1.008    7.029781    6.863485   -3.717091

--------------------------------
INTERNAL COORDINATES (ANGSTROEM)
--------------------------------
 C      0   0   0     0.000000000000     0.00000000     0.00000000
 C      1   0   0     6.480182559157     0.00000000     0.00000000
 C      1   2   0     2.413456856876    19.24905969     0.00000000
 C      3   1   2     1.403616044365    87.91777123   319.31197114
 C      4   3   1     1.380490130352   120.17435286     0.16439304
 C      5   4   3     2.447781648759   152.50824956     1.51662433
 C      2   1   3     1.368114030335     4.03784818    76.32401075
 C      7   2   4     1.434084376876   108.05010202   136.73022477
 C      2   1   3     1.434123425651   107.60819006   336.95081592
 C      1   2   7     1.381517281832    46.31724079   103.39883279
 N      1   2   7     1.352965261934    76.11967202   298.52930755
 N      9   2   1     1.376127174356   106.58526707     3.43205227
 N     12   9   2     2.925062050624   168.53581413   171.12065651
 N     13  12   9     2.954513327098    91.55032014    11.12112580
 N     14  13  12     2.925371258490    88.43092389   359.84326247
 C      8   7   2     1.404790019896   127.24786865   181.11170171
 C     13  12   9     1.366535034311    81.72106996   188.00453233
 C     14  13  12     5.758810554272    80.56209567   166.76250791
 C     17  13  12     1.459010623676   111.08861209   183.82872609
 C     18  14  13     2.412235892279    27.27532823    36.33507194
 C     20  18  14     1.402692767501    87.95206320   148.94598259
 C     21  20  18     1.382106725257   120.14573887   359.70382047
 C     18  14  13     2.446510985056   144.15733107    82.80075377
 C     19  17  13     1.353610726908   106.29293361   359.75308708
 C     13  12   9     1.366813447402   172.21332906    33.46711076
 C     18  14  13     1.380960173213    15.08449437   309.23336894
 N     22  21  20     1.352773077792   120.73759875     0.27865223
 C     25  13  17     1.410897586645   125.60330303   182.37774668
 C     14  13  12     1.376642291955    80.24689249   177.85461986
 C     14  13  12     5.764089607215   164.51507311   312.20821879
 C     29  14  13     1.435600919476   106.58649366   178.76395472
 C     30  14  13     2.413316804732    27.10625047    82.12560436
 C     32  30  14     1.403734305344    87.90059683   149.76154742
 C     33  32  30     1.380694028378   120.14881443   359.74174632
 C     34  33  32     2.448777858443   152.49203239     2.45173620
 C     31  29  14     1.368160809262   108.16950133     0.70383075
 C     14  13  12     1.376239804685   169.26375223   353.09862627
 C     30  14  13     1.380907310430    14.68948582   353.70041132
 N     34  33  32     1.352658863128   120.85575621     0.19603406
 C     37  14  29     1.404717053360   126.01551127   180.90772073
 C     15  14  13     1.366491126938    81.61824056   183.09049352
 C      2   1   3     4.249062720177   161.15414232   115.96046792
 C     41  15  14     1.459677704153   111.05201287   175.08990246
 C     42   2   1     2.412953791518    41.78584867   195.11938482
 C     44  42   2     1.403446472082    87.95153797   233.97558675
 C     45  44  42     1.381696421071   120.11137308     0.19721020
 C     42   2   1     2.450019795838   135.97209175   105.43423392
 C     43  41  15     1.354461516618   106.26758155     0.30894352
 C     15  14  13     1.367461151185   171.87382904   332.35056460
 C     42   2   1     1.381886391857    32.59078432   243.97466401
 C      9   2   1     1.404988612053   126.98745415   184.43638980
 N     42   2   1     1.352765315936   113.57249190   133.17082312
 H      1   2   7     1.083082637660   163.00952524   158.64499482
 H      2   1   3     1.079907866440   127.02837607   161.58232840
 H      4   3   1     1.083596327052   121.02040280   179.48274777
 H      5   4   3     1.082402420544   122.81495230   179.40161928
 H      6   5   4     1.093342581262   104.40062400   100.16473477
 H      6   5   4     1.089676098664    84.68194445   209.58700199
 H      6   5   4     1.089869716985   133.90382114   322.52393377
 H      7   2  54     1.079807853278   126.66122480     1.30600390
 H     10   1   2     1.083834858269   118.70762529   163.68626713
 H     12   9   2     1.016297692608   125.29023241   180.00180175
 H     14  13  12     1.014936943854    44.97226959   359.42596618
 H     18  14  13     1.082871645210   128.03556573   234.20482432
 H     19  17  13     1.080893611786   126.41830519   178.11313280
 H     21  20  18     1.083569563987   121.05669627   180.67006309
 H     22  21  20     1.082483256222   122.73097286   180.59748951
 H     23  18  14     1.092105306278   103.92715769   234.93429879
 H     23  18  14     1.088871893291   134.19244188    12.25587044
 H     23  18  14     1.089833473518    84.85857450   125.45241208
 H     24  19  17     1.080075460327   127.28078426   178.44613241
 H     26  18  14     1.083408048706   118.76995697   244.94906660
 H     30  14  13     1.082703098730   127.99711412   279.66882698
 H     31  29  14     1.079759695488   125.22293469   180.92530585
 H     33  32  30     1.083188810873   121.01964473   180.74284758
 H     34  33  32     1.082494341787   122.70821597   180.59516895
 H     35  34  33     1.092652735319   105.73575241    97.19771933
 H     35  34  33     1.089462711615    84.05943581   206.43036958
 H     35  34  33     1.089268102902   133.08365142   318.50306270
 H     36  31  29     1.079439669458   126.61599965   178.98859863
 H     38  30  73     1.083742127999   118.77264435   359.90091293
 H     42   2   1     1.082178358682   119.31790784   349.80235357
 H     43  41  15     1.080281907652   126.36969097   182.06329380
 H     45  44  42     1.083277434455   121.10105945   179.58025624
 H     46  45  44     1.082194529648   122.72144639   179.46906377
 H     47  42   2     1.091546151109   106.65128841   315.16475048
 H     47  42   2     1.088818625851   132.46019523    94.52397119
 H     47  42   2     1.089531091801    83.63838232   206.04504406
 H     48  43  41     1.080402239909   127.23657387   181.62955349
 H     50  42   2     1.083186502870   118.77001737    94.71359229

---------------------------
INTERNAL COORDINATES (A.U.)
---------------------------
 C      0   0   0     0.000000000000     0.00000000     0.00000000
 C      1   0   0    12.245770334619     0.00000000     0.00000000
 C      1   2   0     4.560772495529    19.24905969     0.00000000
 C      3   1   2     2.652449921028    87.91777123   319.31197114
 C      4   3   1     2.608748276947   120.17435286     0.16439304
 C      5   4   3     4.625636951792   152.50824956     1.51662433
 C      2   1   3     2.585360837309     4.03784818    76.32401075
 C      7   2   4     2.710026725231   108.05010202   136.73022477
 C      2   1   3     2.710100516721   107.60819006   336.95081592
 C      1   2   7     2.610689311941    46.31724079   103.39883279
 N      1   2   7     2.556733813764    76.11967202   298.52930755
 N      9   2   1     2.600503484979   106.58526707     3.43205227
 N     12   9   2     5.527566200405   168.53581413   171.12065651
 N     13  12   9     5.583221047236    91.55032014    11.12112580
 N     14  13  12     5.528150518591    88.43092389   359.84326247
 C      8   7   2     2.654668413270   127.24786865   181.11170171
 C     13  12   9     2.582376967257    81.72106996   188.00453233
 C     14  13  12    10.882574804710    80.56209567   166.76250791
 C     17  13  12     2.757130505230   111.08861209   183.82872609
 C     18  14  13     4.558465206823    27.27532823    36.33507194
 C     20  18  14     2.650705180609    87.95206320   148.94598259
 C     21  20  18     2.611803198586   120.14573887   359.70382047
 C     18  14  13     4.623235745386   144.15733107    82.80075377
 C     19  17  13     2.557953565794   106.29293361   359.75308708
 C     13  12   9     2.582903091751   172.21332906    33.46711076
 C     18  14  13     2.609636529225    15.08449437   309.23336894
 N     22  21  20     2.556370638369   120.73759875     0.27865223
 C     25  13  17     2.666210041769   125.60330303   182.37774668
 C     14  13  12     2.601476916169    80.24689249   177.85461986
 C     14  13  12    10.892550769017   164.51507311   312.20821879
 C     29  14  13     2.712892575415   106.58649366   178.76395472
 C     30  14  13     4.560507835333    27.10625047    82.12560436
 C     32  30  14     2.652673401891    87.90059683   149.76154742
 C     33  32  30     2.609133588376   120.14881443   359.74174632
 C     34  33  32     4.627519515267   152.49203239     2.45173620
 C     31  29  14     2.585449236669   108.16950133     0.70383075
 C     14  13  12     2.600716325456   169.26375223   353.09862627
 C     30  14  13     2.609536633043    14.68948582   353.70041132
 N     34  33  32     2.556154803934   120.85575621     0.19603406
 C     37  14  29     2.654530526499   126.01551127   180.90772073
 C     15  14  13     2.582293994346    81.61824056   183.09049352
 C      2   1   3     8.029564866989   161.15414232   115.96046792
 C     41  15  14     2.758391104639   111.05201287   175.08990246
 C     42   2   1     4.559821839776    41.78584867   195.11938482
 C     44  42   2     2.652129475853    87.95153797   233.97558675
 C     45  44  42     2.611027836043   120.11137308     0.19721020
 C     42   2   1     4.629866436820   135.97209175   105.43423392
 C     43  41  15     2.559561325344   106.26758155     0.30894352
 C     15  14  13     2.584127074516   171.87382904   332.35056460
 C     42   2   1     2.611386828803    32.59078432   243.97466401
 C      9   2   1     2.655043698059   126.98745415   184.43638980
 N     42   2   1     2.556355970587   113.57249190   133.17082312
 H      1   2   7     2.046729565582   163.00952524   158.64499482
 H      2   1   3     2.040730117440   127.02837607   161.58232840
 H      4   3   1     2.047700297851   121.02040280   179.48274777
 H      5   4   3     2.045444141522   122.81495230   179.40161928
 H      6   5   4     2.066118049139   104.40062400   100.16473477
 H      6   5   4     2.059189401155    84.68194445   209.58700199
 H      6   5   4     2.059555286755   133.90382114   322.52393377
 H      7   2  54     2.040541119952   126.66122480     1.30600390
 H     10   1   2     2.048151056527   118.70762529   163.68626713
 H     12   9   2     1.920524309565   125.29023241   180.00180175
 H     14  13  12     1.917952867083    44.97226959   359.42596618
 H     18  14  13     2.046330847636   128.03556573   234.20482432
 H     19  17  13     2.042592906181   126.41830519   178.11313280
 H     21  20  18     2.047649722989   121.05669627   180.67006309
 H     22  21  20     2.045596898814   122.73097286   180.59748951
 H     23  18  14     2.063779938267   103.92715769   234.93429879
 H     23  18  14     2.057669673245   134.19244188    12.25587044
 H     23  18  14     2.059486796529    84.85857450   125.45241208
 H     24  19  17     2.041046823986   127.28078426   178.44613241
 H     26  18  14     2.047344503340   118.76995697   244.94906660
 H     30  14  13     2.046012340948   127.99711412   279.66882698
 H     31  29  14     2.040450114918   125.22293469   180.92530585
 H     33  32  30     2.046930203877   121.01964473   180.74284758
 H     34  33  32     2.045617847496   122.70821597   180.59516895
 H     35  34  33     2.064814429233   105.73575241    97.19771933
 H     35  34  33     2.058786158072    84.05943581   206.43036958
 H     35  34  33     2.058418400901   133.08365142   318.50306270
 H     36  31  29     2.039845353366   126.61599965   178.98859863
 H     38  30  73     2.047975821711   118.77264435   359.90091293
 H     42   2   1     2.045020725966   119.31790784   349.80235357
 H     43  41  15     2.041436952892   126.36969097   182.06329380
 H     45  44  42     2.047097678177   121.10105945   179.58025624
 H     46  45  44     2.045051284662   122.72144639   179.46906377
 H     47  42   2     2.062723288131   106.65128841   315.16475048
 H     47  42   2     2.057569012371   132.46019523    94.52397119
 H     47  42   2     2.058915377895    83.63838232   206.04504406
 H     48  43  41     2.041664347903   127.23657387   181.62955349
 H     50  42   2     2.046925842384   118.77001737    94.71359229

---------------------
BASIS SET INFORMATION
---------------------
There are 3 groups of distinct atoms

 Group   1 Type C   : 17s4p1d contracted to 3s2p1d pattern {881/31/1}
 Group   2 Type N   : 17s4p1d contracted to 3s2p1d pattern {881/31/1}
 Group   3 Type H   : 4s1p contracted to 2s1p pattern {31/1}

Atom   0C    basis set group =>   1
Atom   1N    basis set group =>   2
Atom   2C    basis set group =>   1
Atom   3N    basis set group =>   2
Atom   4C    basis set group =>   1
Atom   5N    basis set group =>   2
Atom   6C    basis set group =>   1
Atom   7N    basis set group =>   2
Atom   8C    basis set group =>   1
Atom   9N    basis set group =>   2
Atom  10C    basis set group =>   1
Atom  11N    basis set group =>   2
Atom  12C    basis set group =>   1
Atom  13N    basis set group =>   2
Atom  14C    basis set group =>   1
Atom  15N    basis set group =>   2
Atom  16C    basis set group =>   1
Atom  17C    basis set group =>   1
Atom  18C    basis set group =>   1
Atom  19C    basis set group =>   1
Atom  20C    basis set group =>   1
Atom  21C    basis set group =>   1
Atom  22C    basis set group =>   1
Atom  23C    basis set group =>   1
Atom  24C    basis set group =>   1
Atom  25C    basis set group =>   1
Atom  26C    basis set group =>   1
Atom  27C    basis set group =>   1
Atom  28C    basis set group =>   1
Atom  29C    basis set group =>   1
Atom  30C    basis set group =>   1
Atom  31C    basis set group =>   1
Atom  32C    basis set group =>   1
Atom  33C    basis set group =>   1
Atom  34C    basis set group =>   1
Atom  35C    basis set group =>   1
Atom  36C    basis set group =>   1
Atom  37C    basis set group =>   1
Atom  38C    basis set group =>   1
Atom  39C    basis set group =>   1
Atom  40C    basis set group =>   1
Atom  41C    basis set group =>   1
Atom  42C    basis set group =>   1
Atom  43C    basis set group =>   1
Atom  44C    basis set group =>   1
Atom  45C    basis set group =>   1
Atom  46C    basis set group =>   1
Atom  47C    basis set group =>   1
Atom  48C    basis set group =>   1
Atom  49C    basis set group =>   1
Atom  50C    basis set group =>   1
Atom  51C    basis set group =>   1
Atom  52H    basis set group =>   3
Atom  53H    basis set group =>   3
Atom  54H    basis set group =>   3
Atom  55H    basis set group =>   3
Atom  56H    basis set group =>   3
Atom  57H    basis set group =>   3
Atom  58H    basis set group =>   3
Atom  59H    basis set group =>   3
Atom  60H    basis set group =>   3
Atom  61H    basis set group =>   3
Atom  62H    basis set group =>   3
Atom  63H    basis set group =>   3
Atom  64H    basis set group =>   3
Atom  65H    basis set group =>   3
Atom  66H    basis set group =>   3
Atom  67H    basis set group =>   3
Atom  68H    basis set group =>   3
Atom  69H    basis set group =>   3
Atom  70H    basis set group =>   3
Atom  71H    basis set group =>   3
Atom  72H    basis set group =>   3
Atom  73H    basis set group =>   3
Atom  74H    basis set group =>   3
Atom  75H    basis set group =>   3
Atom  76H    basis set group =>   3
Atom  77H    basis set group =>   3
Atom  78H    basis set group =>   3
Atom  79H    basis set group =>   3
Atom  80H    basis set group =>   3
Atom  81H    basis set group =>   3
Atom  82H    basis set group =>   3
Atom  83H    basis set group =>   3
Atom  84H    basis set group =>   3
Atom  85H    basis set group =>   3
Atom  86H    basis set group =>   3
Atom  87H    basis set group =>   3
Atom  88H    basis set group =>   3
Atom  89H    basis set group =>   3


           ************************************************************
           *        Program running with 16 parallel MPI-processes    *
           *              working on a common directory               *
           ************************************************************
------------------------------------------------------------------------------
                           ORCA GTO INTEGRAL CALCULATION
------------------------------------------------------------------------------
------------------------------------------------------------------------------
                   ___                                                        
                  /   \      - P O W E R E D   B Y -                         
                 /     \                                                     
                 |  |  |   _    _      __       _____    __    __             
                 |  |  |  | |  | |    /  \     |  _  \  |  |  /  |          
                  \  \/   | |  | |   /    \    | | | |  |  | /  /          
                 / \  \   | |__| |  /  /\  \   | |_| |  |  |/  /          
                |  |  |   |  __  | /  /__\  \  |    /   |      \           
                |  |  |   | |  | | |   __   |  |    \   |  |\   \          
                \     /   | |  | | |  |  |  |  | |\  \  |  | \   \       
                 \___/    |_|  |_| |__|  |__|  |_| \__\ |__|  \__/        
                                                                              
                      - O R C A' S   B I G   F R I E N D -                    
                                      &                                       
                       - I N T E G R A L  F E E D E R -                       
                                                                              
 v1 FN, 2020, v2 2021                                                         
------------------------------------------------------------------------------


Reading SHARK input file /scratch/allen/tmpyp4_amber_gaff2/conf1/conf1/Conf205.orca.SHARKINP.tmp ... ok
----------------------
SHARK INTEGRAL PACKAGE
----------------------

Number of atoms                             ...     90
Number of basis functions                   ...   1230
Number of shells                            ...    738
Maximum angular momentum                    ...      2
Integral batch strategy                     ... SHARK/LIBINT Hybrid
RI-J (if used) integral strategy            ... SPLIT-RIJ (Revised 2003 algorithm where possible)
Printlevel                                  ...      1
Contraction scheme used                     ... PARTIAL GENERAL contraction
Coulomb Range Separation                    ... NOT USED
Exchange Range Separation                   ... NOT USED
Finite Nucleus Model                        ... NOT USED
Auxiliary Coulomb fitting basis             ... NOT available
Auxiliary J/K fitting basis                 ... NOT available
Auxiliary Correlation fitting basis         ... NOT available
Auxiliary 'external' fitting basis          ... NOT available
Integral threshold                          ...     2.500000e-11
Primitive cut-off                           ...     2.500000e-12
Primitive pair pre-selection threshold      ...     2.500000e-12

Calculating pre-screening integrals         ... done (  0.1 sec) Dimension = 738
Calculating pre-screening integrals (ORCA)  ... done (  0.3 sec) Dimension = 426
Organizing shell pair data                  ... done (  0.7 sec)
Shell pair information
Total number of shell pairs                 ...    272691
Shell pairs after pre-screening             ...     71697
Total number of primitive shell pairs       ...    422091
Primitive shell pairs kept                  ...     92568
          la=0 lb=0:  29430 shell pairs
          la=1 lb=0:  26020 shell pairs
          la=1 lb=1:   4705 shell pairs
          la=2 lb=0:   7889 shell pairs
          la=2 lb=1:   3124 shell pairs
          la=2 lb=2:    529 shell pairs

Calculating one electron integrals          ... done (  0.2 sec)
Calculating Nuclear repulsion               ... done (  0.0 sec) ENN=   6233.015084308201 Eh

SHARK setup successfully completed in   2.3 seconds

Maximum memory used throughout the entire GTOINT-calculation: 99.1 MB


           ************************************************************
           *        Program running with 16 parallel MPI-processes    *
           *              working on a common directory               *
           ************************************************************
-------------------------------------------------------------------------------
                                 ORCA SCF
-------------------------------------------------------------------------------

------------
SCF SETTINGS
------------
Hamiltonian:
 Ab initio Hamiltonian  Method          .... Hartree-Fock(GTOs)


General Settings:
 Integral files         IntName         .... /scratch/allen/tmpyp4_amber_gaff2/conf1/conf1/Conf205.orca
 Hartree-Fock type      HFTyp           .... RHF
 Total Charge           Charge          ....    0
 Multiplicity           Mult            ....    1
 Number of Electrons    NEL             ....  358
 Basis Dimension        Dim             ....  918
 Nuclear Repulsion      ENuc            ....   6233.0150843082 Eh

Convergence Acceleration:
 DIIS                   CNVDIIS         .... on
   Start iteration      DIISMaxIt       ....    12
   Startup error        DIISStart       ....  0.200000
   # of expansion vecs  DIISMaxEq       ....     5
   Bias factor          DIISBfac        ....   1.050
   Max. coefficient     DIISMaxC        ....  10.000
 Trust-Rad. Augm. Hess. CNVTRAH         .... auto
   Auto Start mean grad. ratio tolernc. ....  1.125000
   Auto Start start iteration           ....    20
   Auto Start num. interpolation iter.  ....    10
   Max. Number of Micro iterations      ....    16
   Max. Number of Macro iterations      .... Maxiter - #DIIS iter
   Number of Davidson start vectors     ....     2
   Converg. threshold I  (grad. norm)   ....   1.000e-05
   Converg. threshold II (energy diff.) ....   1.000e-08
   Grad. Scal. Fac. for Micro threshold ....   0.100
   Minimum threshold for Micro iter.    ....   0.010
   NR start threshold (gradient norm)   ....   0.001
   Initial trust radius                 ....   0.400
   Minimum AH scaling param. (alpha)    ....   1.000
   Maximum AH scaling param. (alpha)    .... 1000.000
   Orbital update algorithm             .... Taylor
   White noise on init. David. guess    .... on
   Maximum white noise                  ....   0.010
   Quad. conv. algorithm                .... NR
 SOSCF                  CNVSOSCF        .... on
   Start iteration      SOSCFMaxIt      ....   150
   Startup grad/error   SOSCFStart      ....  0.003300
 Level Shifting         CNVShift        .... on
   Level shift para.    LevelShift      ....    0.2500
   Turn off err/grad.   ShiftErr        ....    0.0010
 Zerner damping         CNVZerner       .... off
 Static damping         CNVDamp         .... on
   Fraction old density DampFac         ....    0.7000
   Max. Damping (<1)    DampMax         ....    0.9800
   Min. Damping (>=0)   DampMin         ....    0.0000
   Turn off err/grad.   DampErr         ....    0.1000
 Fernandez-Rico         CNVRico         .... off

SCF Procedure:
 Maximum # iterations   MaxIter         ....   125
 SCF integral mode      SCFMode         .... Direct
   Integral package                     .... SHARK and LIBINT hybrid scheme
 Reset frequency        DirectResetFreq ....    20
 Integral Threshold     Thresh          ....  2.500e-11 Eh
 Primitive CutOff       TCut            ....  2.500e-12 Eh

Convergence Tolerance:
 Convergence Check Mode ConvCheckMode   .... Total+1el-Energy
 Convergence forced     ConvForced      .... 1
 Energy Change          TolE            ....  1.000e-08 Eh
 1-El. energy change                    ....  1.000e-05 Eh
 Orbital Gradient       TolG            ....  1.000e-05
 Orbital Rotation angle TolX            ....  1.000e-05
 DIIS Error             TolErr          ....  5.000e-07


Diagonalization of the overlap matrix:
Smallest eigenvalue                        ... 2.110e-04
Time for diagonalization                   ...    0.444 sec
Threshold for overlap eigenvalues          ... 1.000e-08
Number of eigenvalues below threshold      ... 0
Time for construction of square roots      ...    0.272 sec
Total time needed                          ...    0.723 sec

Time for model grid setup =    1.305 sec

------------------------------
INITIAL GUESS: MODEL POTENTIAL
------------------------------
Loading Hartree-Fock densities                     ... done
Calculating cut-offs                               ... done
Initializing the effective Hamiltonian             ... done
Setting up the integral package (SHARK)            ... done
Starting the Coulomb interaction                   ... done (   1.4 sec)
Reading the grid                                   ... done
Mapping shells                                     ... done
Starting the XC term evaluation                    ... done (   0.2 sec)
Transforming the Hamiltonian                       ... done (   0.3 sec)
Diagonalizing the Hamiltonian                      ... done (   0.4 sec)
Back transforming the eigenvectors                 ... done (   0.1 sec)
Now organizing SCF variables                       ... done
                      ------------------
                      INITIAL GUESS DONE (   3.8 sec)
                      ------------------
--------------
SCF ITERATIONS
--------------
ITER       Energy         Delta-E        Max-DP      RMS-DP      [F,P]     Damp
               ***  Starting incremental Fock matrix formation  ***
  0  -2121.6585092051   0.000000000000 0.07495236  0.00123610  0.2316866 0.7000
  1  -2122.3076140453  -0.649104840226 0.05680115  0.00100704  0.1436418 0.7000
                               ***Turning on DIIS***
  2  -2122.7117449217  -0.404130876346 0.13271398  0.00228373  0.0802642 0.0000
  3  -2117.9808466117   4.730898310010 0.05257440  0.00068666  0.0436637 0.0000
  4  -2123.3949643260  -5.414117714354 0.01553803  0.00022808  0.0088167 0.0000
  5  -2123.5424908367  -0.147526510684 0.00737010  0.00013314  0.0049088 0.0000
  6  -2123.5268100652   0.015680771474 0.00433147  0.00008542  0.0021311 0.0000
  7  -2123.6217490047  -0.094938939483 0.00308040  0.00006737  0.0015956 0.0000
  8  -2123.6307919728  -0.009042968115 0.00326701  0.00006409  0.0014919 0.0000
  9  -2123.6021446368   0.028647335996 0.00261273  0.00004520  0.0011976 0.0000
 10  -2123.6107339868  -0.008589349980 0.00524402  0.00009439  0.0009322 0.0000
                      *** Initiating the SOSCF procedure ***
                           *** Shutting down DIIS ***
                      *** Re-Reading the Fockian *** 
                      *** Removing any level shift *** 
ITER      Energy       Delta-E        Grad      Rot      Max-DP    RMS-DP
 11  -2123.50311864   0.1076153442  0.000181  0.000181  0.000239  0.000005
               *** Restarting incremental Fock matrix formation ***
 12  -2123.56925349  -0.0661348507  0.000886  0.006225  0.001410  0.000035
 13  -2123.56936193  -0.0001084387  0.001102  0.030930  0.006494  0.000136
 14  -2123.56954624  -0.0001843099  0.000362  0.001437  0.000627  0.000012
 15  -2123.56956169  -0.0000154515  0.000175  0.002389  0.000619  0.000015
 16  -2123.56956993  -0.0000082330  0.000150  0.002520  0.000455  0.000009
 17  -2123.56957273  -0.0000028056  0.000132  0.001821  0.000313  0.000007
 18  -2123.56957417  -0.0000014346  0.000065  0.000888  0.000258  0.000004
 19  -2123.56957490  -0.0000007309  0.000044  0.001027  0.000200  0.000004
 20  -2123.56957524  -0.0000003398  0.000025  0.000682  0.000108  0.000003
 21  -2123.56957541  -0.0000001739  0.000024  0.000861  0.000139  0.000003
 22  -2123.56957557  -0.0000001548  0.000021  0.000790  0.000130  0.000003
 23  -2123.56957566  -0.0000000963  0.000014  0.000464  0.000077  0.000002
 24  -2123.56957571  -0.0000000483  0.000009  0.000353  0.000054  0.000001
 25  -2123.56957574  -0.0000000318  0.000009  0.000172  0.000037  0.000001
 26  -2123.56957576  -0.0000000150  0.000006  0.000125  0.000032  0.000001
 27  -2123.56957576  -0.0000000044  0.000003  0.000096  0.000022  0.000000
                  ***Gradient check signals convergence***
              ***Rediagonalizing the Fockian in SOSCF/NRSCF***

               *****************************************************
               *                     SUCCESS                       *
               *           SCF CONVERGED AFTER  28 CYCLES          *
               *****************************************************


----------------
TOTAL SCF ENERGY
----------------

Total Energy       :        -2123.56957576 Eh          -57785.26590 eV

Components:
Nuclear Repulsion  :         6233.01508431 Eh          169608.96320 eV
Electronic Energy  :        -8356.58466007 Eh         -227394.22910 eV
One Electron Energy:       -15306.69376250 Eh         -416516.31256 eV
Two Electron Energy:         6950.10910243 Eh          189122.08346 eV

Virial components:
Potential Energy   :        -4245.89024505 Eh         -115536.54733 eV
Kinetic Energy     :         2122.32066929 Eh           57751.28143 eV
Virial Ratio       :            2.00058846


---------------
SCF CONVERGENCE
---------------

  Last Energy change         ...    1.3133e-09  Tolerance :   1.0000e-08
  Last MAX-Density change    ...    1.1306e-05  Tolerance :   1.0000e-07
  Last RMS-Density change    ...    2.2883e-07  Tolerance :   5.0000e-09
  Last Orbital Gradient      ...    2.1235e-06  Tolerance :   1.0000e-05
  Last Orbital Rotation      ...    5.6984e-05  Tolerance :   1.0000e-05

             **** THE GBW FILE WAS UPDATED (/scratch/allen/tmpyp4_amber_gaff2/conf1/conf1/Conf205.orca.gbw) ****
             **** DENSITY /scratch/allen/tmpyp4_amber_gaff2/conf1/conf1/Conf205.orca.scfp WAS UPDATED ****
             **** ENERGY FILE WAS UPDATED (/scratch/allen/tmpyp4_amber_gaff2/conf1/conf1/Conf205.orca.en.tmp) ****
             **** THE GBW FILE WAS UPDATED (/scratch/allen/tmpyp4_amber_gaff2/conf1/conf1/Conf205.orca.gbw) ****
             **** DENSITY /scratch/allen/tmpyp4_amber_gaff2/conf1/conf1/Conf205.orca.scfp WAS UPDATED ****
----------------
ORBITAL ENERGIES
----------------

  NO   OCC          E(Eh)            E(eV) 
   0   2.0000     -15.676730      -426.5855 
   1   2.0000     -15.634191      -425.4280 
   2   2.0000     -15.631398      -425.3520 
   3   2.0000     -15.589495      -424.2117 
   4   2.0000     -15.524937      -422.4550 
   5   2.0000     -15.516017      -422.2123 
   6   2.0000     -15.453256      -420.5045 
   7   2.0000     -15.440525      -420.1581 
   8   2.0000     -11.326956      -308.2221 
   9   2.0000     -11.326045      -308.1974 
  10   2.0000     -11.325717      -308.1884 
  11   2.0000     -11.299459      -307.4739 
  12   2.0000     -11.298084      -307.4365 
  13   2.0000     -11.293043      -307.2993 
  14   2.0000     -11.290638      -307.2339 
  15   2.0000     -11.286883      -307.1317 
  16   2.0000     -11.286392      -307.1183 
  17   2.0000     -11.279185      -306.9222 
  18   2.0000     -11.271687      -306.7182 
  19   2.0000     -11.261251      -306.4342 
  20   2.0000     -11.260274      -306.4076 
  21   2.0000     -11.253505      -306.2234 
  22   2.0000     -11.252923      -306.2076 
  23   2.0000     -11.237895      -305.7987 
  24   2.0000     -11.236188      -305.7522 
  25   2.0000     -11.231336      -305.6202 
  26   2.0000     -11.230533      -305.5983 
  27   2.0000     -11.229441      -305.5686 
  28   2.0000     -11.229321      -305.5654 
  29   2.0000     -11.210447      -305.0518 
  30   2.0000     -11.209144      -305.0163 
  31   2.0000     -11.197266      -304.6931 
  32   2.0000     -11.190557      -304.5105 
  33   2.0000     -11.190272      -304.5028 
  34   2.0000     -11.188824      -304.4634 
  35   2.0000     -11.187260      -304.4208 
  36   2.0000     -11.186975      -304.4131 
  37   2.0000     -11.186013      -304.3869 
  38   2.0000     -11.183275      -304.3124 
  39   2.0000     -11.173700      -304.0518 
  40   2.0000     -11.172319      -304.0143 
  41   2.0000     -11.170488      -303.9644 
  42   2.0000     -11.167852      -303.8927 
  43   2.0000     -11.160619      -303.6959 
  44   2.0000     -11.160502      -303.6927 
  45   2.0000     -11.157762      -303.6181 
  46   2.0000     -11.155630      -303.5601 
  47   2.0000     -11.155624      -303.5600 
  48   2.0000     -11.147533      -303.3398 
  49   2.0000     -11.137512      -303.0671 
  50   2.0000     -11.130740      -302.8828 
  51   2.0000     -11.119426      -302.5750 
  52   2.0000      -1.357782       -36.9471 
  53   2.0000      -1.321407       -35.9573 
  54   2.0000      -1.319246       -35.8985 
  55   2.0000      -1.282712       -34.9044 
  56   2.0000      -1.225764       -33.3547 
  57   2.0000      -1.210484       -32.9390 
  58   2.0000      -1.172574       -31.9073 
  59   2.0000      -1.151245       -31.3270 
  60   2.0000      -1.141498       -31.0617 
  61   2.0000      -1.110380       -30.2150 
  62   2.0000      -1.108667       -30.1684 
  63   2.0000      -1.079670       -29.3793 
  64   2.0000      -1.079182       -29.3660 
  65   2.0000      -1.045576       -28.4516 
  66   2.0000      -1.043942       -28.4071 
  67   2.0000      -1.039691       -28.2914 
  68   2.0000      -1.014722       -27.6120 
  69   2.0000      -1.013115       -27.5682 
  70   2.0000      -1.009393       -27.4670 
  71   2.0000      -0.993122       -27.0242 
  72   2.0000      -0.986313       -26.8389 
  73   2.0000      -0.980779       -26.6884 
  74   2.0000      -0.972470       -26.4623 
  75   2.0000      -0.961422       -26.1616 
  76   2.0000      -0.953897       -25.9569 
  77   2.0000      -0.945965       -25.7410 
  78   2.0000      -0.935392       -25.4533 
  79   2.0000      -0.918245       -24.9867 
  80   2.0000      -0.908334       -24.7170 
  81   2.0000      -0.894984       -24.3538 
  82   2.0000      -0.875308       -23.8184 
  83   2.0000      -0.872124       -23.7317 
  84   2.0000      -0.869702       -23.6658 
  85   2.0000      -0.857752       -23.3406 
  86   2.0000      -0.841451       -22.8971 
  87   2.0000      -0.835704       -22.7407 
  88   2.0000      -0.825236       -22.4558 
  89   2.0000      -0.797355       -21.6971 
  90   2.0000      -0.790560       -21.5122 
  91   2.0000      -0.752655       -20.4808 
  92   2.0000      -0.747667       -20.3451 
  93   2.0000      -0.733193       -19.9512 
  94   2.0000      -0.725223       -19.7343 
  95   2.0000      -0.722369       -19.6566 
  96   2.0000      -0.716982       -19.5101 
  97   2.0000      -0.713664       -19.4198 
  98   2.0000      -0.709169       -19.2975 
  99   2.0000      -0.697414       -18.9776 
 100   2.0000      -0.696355       -18.9488 
 101   2.0000      -0.686502       -18.6807 
 102   2.0000      -0.682888       -18.5823 
 103   2.0000      -0.682284       -18.5659 
 104   2.0000      -0.678486       -18.4625 
 105   2.0000      -0.673826       -18.3357 
 106   2.0000      -0.670863       -18.2551 
 107   2.0000      -0.660396       -17.9703 
 108   2.0000      -0.657082       -17.8801 
 109   2.0000      -0.653167       -17.7736 
 110   2.0000      -0.651311       -17.7231 
 111   2.0000      -0.644193       -17.5294 
 112   2.0000      -0.643854       -17.5202 
 113   2.0000      -0.638565       -17.3762 
 114   2.0000      -0.637467       -17.3464 
 115   2.0000      -0.627930       -17.0868 
 116   2.0000      -0.622841       -16.9484 
 117   2.0000      -0.620664       -16.8891 
 118   2.0000      -0.612910       -16.6781 
 119   2.0000      -0.612434       -16.6652 
 120   2.0000      -0.611173       -16.6309 
 121   2.0000      -0.609375       -16.5819 
 122   2.0000      -0.600601       -16.3432 
 123   2.0000      -0.586830       -15.9684 
 124   2.0000      -0.581786       -15.8312 
 125   2.0000      -0.580517       -15.7967 
 126   2.0000      -0.579741       -15.7756 
 127   2.0000      -0.572451       -15.5772 
 128   2.0000      -0.568597       -15.4723 
 129   2.0000      -0.559473       -15.2240 
 130   2.0000      -0.551954       -15.0194 
 131   2.0000      -0.547530       -14.8991 
 132   2.0000      -0.542159       -14.7529 
 133   2.0000      -0.541927       -14.7466 
 134   2.0000      -0.538475       -14.6526 
 135   2.0000      -0.535788       -14.5795 
 136   2.0000      -0.529706       -14.4140 
 137   2.0000      -0.521445       -14.1892 
 138   2.0000      -0.516953       -14.0670 
 139   2.0000      -0.514396       -13.9974 
 140   2.0000      -0.512106       -13.9351 
 141   2.0000      -0.510785       -13.8992 
 142   2.0000      -0.509202       -13.8561 
 143   2.0000      -0.503904       -13.7119 
 144   2.0000      -0.502259       -13.6672 
 145   2.0000      -0.496615       -13.5136 
 146   2.0000      -0.491323       -13.3696 
 147   2.0000      -0.482823       -13.1383 
 148   2.0000      -0.478815       -13.0292 
 149   2.0000      -0.466918       -12.7055 
 150   2.0000      -0.466408       -12.6916 
 151   2.0000      -0.457114       -12.4387 
 152   2.0000      -0.451044       -12.2735 
 153   2.0000      -0.444918       -12.1068 
 154   2.0000      -0.440400       -11.9839 
 155   2.0000      -0.428163       -11.6509 
 156   2.0000      -0.421334       -11.4651 
 157   2.0000      -0.408056       -11.1038 
 158   2.0000      -0.401246       -10.9185 
 159   2.0000      -0.388446       -10.5701 
 160   2.0000      -0.385668       -10.4946 
 161   2.0000      -0.378414       -10.2972 
 162   2.0000      -0.370153       -10.0724 
 163   2.0000      -0.356783        -9.7086 
 164   2.0000      -0.355588        -9.6760 
 165   2.0000      -0.341247        -9.2858 
 166   2.0000      -0.337636        -9.1875 
 167   2.0000      -0.325356        -8.8534 
 168   2.0000      -0.322872        -8.7858 
 169   2.0000      -0.304780        -8.2935 
 170   2.0000      -0.299594        -8.1524 
 171   2.0000      -0.285628        -7.7723 
 172   2.0000      -0.280545        -7.6340 
 173   2.0000      -0.263312        -7.1651 
 174   2.0000      -0.241958        -6.5840 
 175   2.0000      -0.189955        -5.1689 
 176   2.0000      -0.180529        -4.9124 
 177   2.0000      -0.077442        -2.1073 
 178   2.0000      -0.058982        -1.6050 
 179   0.0000       0.028349         0.7714 
 180   0.0000       0.065780         1.7900 
 181   0.0000       0.090781         2.4703 
 182   0.0000       0.108202         2.9443 
 183   0.0000       0.112170         3.0523 
 184   0.0000       0.136903         3.7253 
 185   0.0000       0.139606         3.7989 
 186   0.0000       0.142525         3.8783 
 187   0.0000       0.163658         4.4534 
 188   0.0000       0.164985         4.4895 
 189   0.0000       0.165891         4.5141 
 190   0.0000       0.171121         4.6564 
 191   0.0000       0.181974         4.9518 
 192   0.0000       0.185375         5.0443 
 193   0.0000       0.187886         5.1126 
 194   0.0000       0.204774         5.5722 
 195   0.0000       0.205792         5.5999 
 196   0.0000       0.208129         5.6635 
 197   0.0000       0.208834         5.6827 
 198   0.0000       0.218014         5.9325 
 199   0.0000       0.227628         6.1941 
 200   0.0000       0.232104         6.3159 
 201   0.0000       0.235254         6.4016 
 202   0.0000       0.238985         6.5031 
 203   0.0000       0.239954         6.5295 
 204   0.0000       0.247181         6.7261 
 205   0.0000       0.256078         6.9682 
 206   0.0000       0.256640         6.9835 
 207   0.0000       0.257237         6.9998 
 208   0.0000       0.259821         7.0701 
 209   0.0000       0.261458         7.1146 
 210   0.0000       0.263623         7.1735 
 211   0.0000       0.267629         7.2825 
 212   0.0000       0.269248         7.3266 
 213   0.0000       0.270698         7.3661 
 214   0.0000       0.273124         7.4321 
 215   0.0000       0.276493         7.5238 
 216   0.0000       0.278710         7.5841 
 217   0.0000       0.280792         7.6407 
 218   0.0000       0.285505         7.7690 
 219   0.0000       0.287887         7.8338 
 220   0.0000       0.288953         7.8628 
 221   0.0000       0.292044         7.9469 
 222   0.0000       0.294376         8.0104 
 223   0.0000       0.296560         8.0698 
 224   0.0000       0.297659         8.0997 
 225   0.0000       0.300253         8.1703 
 226   0.0000       0.305015         8.2999 
 227   0.0000       0.308592         8.3972 
 228   0.0000       0.310582         8.4514 
 229   0.0000       0.324627         8.8336 
 230   0.0000       0.327144         8.9020 
 231   0.0000       0.332134         9.0378 
 232   0.0000       0.341235         9.2855 
 233   0.0000       0.349595         9.5130 
 234   0.0000       0.354311         9.6413 
 235   0.0000       0.357686         9.7331 
 236   0.0000       0.376334        10.2406 
 237   0.0000       0.387286        10.5386 
 238   0.0000       0.393975        10.7206 
 239   0.0000       0.396753        10.7962 
 240   0.0000       0.401637        10.9291 
 241   0.0000       0.409724        11.1492 
 242   0.0000       0.413077        11.2404 
 243   0.0000       0.419504        11.4153 
 244   0.0000       0.429185        11.6787 
 245   0.0000       0.434102        11.8125 
 246   0.0000       0.436481        11.8772 
 247   0.0000       0.441154        12.0044 
 248   0.0000       0.441671        12.0185 
 249   0.0000       0.448597        12.2070 
 250   0.0000       0.458326        12.4717 
 251   0.0000       0.463895        12.6232 
 252   0.0000       0.466940        12.7061 
 253   0.0000       0.471421        12.8280 
 254   0.0000       0.472413        12.8550 
 255   0.0000       0.474498        12.9117 
 256   0.0000       0.477016        12.9803 
 257   0.0000       0.480301        13.0697 
 258   0.0000       0.487444        13.2640 
 259   0.0000       0.496491        13.5102 
 260   0.0000       0.503359        13.6971 
 261   0.0000       0.505252        13.7486 
 262   0.0000       0.506701        13.7880 
 263   0.0000       0.512736        13.9522 
 264   0.0000       0.514391        13.9973 
 265   0.0000       0.518549        14.1104 
 266   0.0000       0.524524        14.2730 
 267   0.0000       0.530192        14.4273 
 268   0.0000       0.533144        14.5076 
 269   0.0000       0.536210        14.5910 
 270   0.0000       0.540845        14.7171 
 271   0.0000       0.544848        14.8261 
 272   0.0000       0.556703        15.1487 
 273   0.0000       0.559431        15.2229 
 274   0.0000       0.561995        15.2927 
 275   0.0000       0.565461        15.3870 
 276   0.0000       0.569961        15.5094 
 277   0.0000       0.573429        15.6038 
 278   0.0000       0.577827        15.7235 
 279   0.0000       0.586415        15.9572 
 280   0.0000       0.590610        16.0713 
 281   0.0000       0.591838        16.1047 
 282   0.0000       0.594485        16.1768 
 283   0.0000       0.595572        16.2063 
 284   0.0000       0.598249        16.2792 
 285   0.0000       0.602257        16.3882 
 286   0.0000       0.607894        16.5416 
 287   0.0000       0.611220        16.6321 
 288   0.0000       0.614224        16.7139 
 289   0.0000       0.624410        16.9911 
 290   0.0000       0.626583        17.0502 
 291   0.0000       0.629240        17.1225 
 292   0.0000       0.635018        17.2797 
 293   0.0000       0.637408        17.3448 
 294   0.0000       0.645565        17.5667 
 295   0.0000       0.647912        17.6306 
 296   0.0000       0.653148        17.7730 
 297   0.0000       0.655525        17.8377 
 298   0.0000       0.662008        18.0142 
 299   0.0000       0.666778        18.1439 
 300   0.0000       0.671851        18.2820 
 301   0.0000       0.675183        18.3727 
 302   0.0000       0.676878        18.4188 
 303   0.0000       0.678197        18.4547 
 304   0.0000       0.679721        18.4962 
 305   0.0000       0.684661        18.6306 
 306   0.0000       0.689370        18.7587 
 307   0.0000       0.692228        18.8365 
 308   0.0000       0.695648        18.9295 
 309   0.0000       0.698487        19.0068 
 310   0.0000       0.702301        19.1106 
 311   0.0000       0.703936        19.1551 
 312   0.0000       0.706359        19.2210 
 313   0.0000       0.711412        19.3585 
 314   0.0000       0.711951        19.3732 
 315   0.0000       0.715609        19.4727 
 316   0.0000       0.717513        19.5245 
 317   0.0000       0.718000        19.5378 
 318   0.0000       0.722259        19.6537 
 319   0.0000       0.723525        19.6881 
 320   0.0000       0.726962        19.7816 
 321   0.0000       0.730078        19.8664 
 322   0.0000       0.731261        19.8986 
 323   0.0000       0.733220        19.9519 
 324   0.0000       0.736420        20.0390 
 325   0.0000       0.740091        20.1389 
 326   0.0000       0.742444        20.2029 
 327   0.0000       0.747225        20.3330 
 328   0.0000       0.752409        20.4741 
 329   0.0000       0.753748        20.5105 
 330   0.0000       0.757499        20.6126 
 331   0.0000       0.760231        20.6869 
 332   0.0000       0.760782        20.7019 
 333   0.0000       0.764701        20.8086 
 334   0.0000       0.767863        20.8946 
 335   0.0000       0.771553        20.9950 
 336   0.0000       0.776412        21.1273 
 337   0.0000       0.781750        21.2725 
 338   0.0000       0.786658        21.4060 
 339   0.0000       0.788655        21.4604 
 340   0.0000       0.791506        21.5380 
 341   0.0000       0.794385        21.6163 
 342   0.0000       0.797658        21.7054 
 343   0.0000       0.802204        21.8291 
 344   0.0000       0.805837        21.9279 
 345   0.0000       0.808317        21.9954 
 346   0.0000       0.809311        22.0225 
 347   0.0000       0.812082        22.0979 
 348   0.0000       0.815886        22.2014 
 349   0.0000       0.817578        22.2474 
 350   0.0000       0.818258        22.2659 
 351   0.0000       0.820327        22.3222 
 352   0.0000       0.824485        22.4354 
 353   0.0000       0.826756        22.4972 
 354   0.0000       0.828882        22.5550 
 355   0.0000       0.831591        22.6287 
 356   0.0000       0.833447        22.6792 
 357   0.0000       0.836441        22.7607 
 358   0.0000       0.837454        22.7883 
 359   0.0000       0.838205        22.8087 
 360   0.0000       0.839919        22.8554 
 361   0.0000       0.842099        22.9147 
 362   0.0000       0.843910        22.9640 
 363   0.0000       0.847429        23.0597 
 364   0.0000       0.851111        23.1599 
 365   0.0000       0.856375        23.3031 
 366   0.0000       0.859379        23.3849 
 367   0.0000       0.861105        23.4318 
 368   0.0000       0.864529        23.5250 
 369   0.0000       0.866244        23.5717 
 370   0.0000       0.869172        23.6514 
 371   0.0000       0.872593        23.7445 
 372   0.0000       0.873943        23.7812 
 373   0.0000       0.877299        23.8725 
 374   0.0000       0.879433        23.9306 
 375   0.0000       0.883219        24.0336 
 376   0.0000       0.886903        24.1339 
 377   0.0000       0.888078        24.1658 
 378   0.0000       0.891261        24.2525 
 379   0.0000       0.891553        24.2604 
 380   0.0000       0.896510        24.3953 
 381   0.0000       0.898455        24.4482 
 382   0.0000       0.900717        24.5098 
 383   0.0000       0.902621        24.5616 
 384   0.0000       0.905313        24.6348 
 385   0.0000       0.905486        24.6395 
 386   0.0000       0.907223        24.6868 
 387   0.0000       0.909581        24.7510 
 388   0.0000       0.914889        24.8954 
 389   0.0000       0.916535        24.9402 
 390   0.0000       0.920721        25.0541 
 391   0.0000       0.923586        25.1321 
 392   0.0000       0.926431        25.2095 
 393   0.0000       0.927809        25.2470 
 394   0.0000       0.929133        25.2830 
 395   0.0000       0.931290        25.3417 
 396   0.0000       0.932731        25.3809 
 397   0.0000       0.938567        25.5397 
 398   0.0000       0.942757        25.6537 
 399   0.0000       0.944574        25.7032 
 400   0.0000       0.946412        25.7532 
 401   0.0000       0.952444        25.9173 
 402   0.0000       0.953319        25.9411 
 403   0.0000       0.955593        26.0030 
 404   0.0000       0.959851        26.1189 
 405   0.0000       0.963173        26.2093 
 406   0.0000       0.968620        26.3575 
 407   0.0000       0.972241        26.4560 
 408   0.0000       0.979153        26.6441 
 409   0.0000       0.981509        26.7082 
 410   0.0000       0.985355        26.8129 
 411   0.0000       0.986584        26.8463 
 412   0.0000       0.995630        27.0925 
 413   0.0000       0.999522        27.1984 
 414   0.0000       1.001762        27.2593 
 415   0.0000       1.005138        27.3512 
 416   0.0000       1.011277        27.5182 
 417   0.0000       1.014426        27.6039 
 418   0.0000       1.023015        27.8377 
 419   0.0000       1.029680        28.0190 
 420   0.0000       1.033090        28.1118 
 421   0.0000       1.034212        28.1423 
 422   0.0000       1.040062        28.3015 
 423   0.0000       1.049082        28.5470 
 424   0.0000       1.056953        28.7612 
 425   0.0000       1.057413        28.7737 
 426   0.0000       1.063502        28.9394 
 427   0.0000       1.068229        29.0680 
 428   0.0000       1.076914        29.3043 
 429   0.0000       1.084540        29.5118 
 430   0.0000       1.085001        29.5244 
 431   0.0000       1.089110        29.6362 
 432   0.0000       1.093445        29.7542 
 433   0.0000       1.095911        29.8213 
 434   0.0000       1.100276        29.9400 
 435   0.0000       1.104227        30.0476 
 436   0.0000       1.109101        30.1802 
 437   0.0000       1.111320        30.2405 
 438   0.0000       1.116497        30.3814 
 439   0.0000       1.120903        30.5013 
 440   0.0000       1.121371        30.5141 
 441   0.0000       1.123789        30.5798 
 442   0.0000       1.126314        30.6486 
 443   0.0000       1.128610        30.7110 
 444   0.0000       1.132646        30.8209 
 445   0.0000       1.136577        30.9278 
 446   0.0000       1.140431        31.0327 
 447   0.0000       1.147287        31.2193 
 448   0.0000       1.149206        31.2715 
 449   0.0000       1.149495        31.2793 
 450   0.0000       1.154442        31.4140 
 451   0.0000       1.159430        31.5497 
 452   0.0000       1.165021        31.7018 
 453   0.0000       1.167315        31.7643 
 454   0.0000       1.169632        31.8273 
 455   0.0000       1.172660        31.9097 
 456   0.0000       1.175006        31.9735 
 457   0.0000       1.182585        32.1798 
 458   0.0000       1.185719        32.2651 
 459   0.0000       1.193871        32.4869 
 460   0.0000       1.195047        32.5189 
 461   0.0000       1.198312        32.6077 
 462   0.0000       1.202142        32.7119 
 463   0.0000       1.203778        32.7565 
 464   0.0000       1.208505        32.8851 
 465   0.0000       1.212210        32.9859 
 466   0.0000       1.215806        33.0838 
 467   0.0000       1.216828        33.1116 
 468   0.0000       1.223691        33.2983 
 469   0.0000       1.228512        33.4295 
 470   0.0000       1.229880        33.4667 
 471   0.0000       1.234594        33.5950 
 472   0.0000       1.236054        33.6348 
 473   0.0000       1.239016        33.7154 
 474   0.0000       1.243208        33.8294 
 475   0.0000       1.243806        33.8457 
 476   0.0000       1.249749        34.0074 
 477   0.0000       1.250224        34.0203 
 478   0.0000       1.252292        34.0766 
 479   0.0000       1.255864        34.1738 
 480   0.0000       1.259680        34.2776 
 481   0.0000       1.263540        34.3827 
 482   0.0000       1.264352        34.4048 
 483   0.0000       1.272570        34.6284 
 484   0.0000       1.276219        34.7277 
 485   0.0000       1.280375        34.8408 
 486   0.0000       1.282458        34.8974 
 487   0.0000       1.286830        35.0164 
 488   0.0000       1.288609        35.0648 
 489   0.0000       1.293202        35.1898 
 490   0.0000       1.295715        35.2582 
 491   0.0000       1.299262        35.3547 
 492   0.0000       1.300624        35.3918 
 493   0.0000       1.309856        35.6430 
 494   0.0000       1.311504        35.6878 
 495   0.0000       1.317852        35.8606 
 496   0.0000       1.320084        35.9213 
 497   0.0000       1.320784        35.9404 
 498   0.0000       1.326606        36.0988 
 499   0.0000       1.329951        36.1898 
 500   0.0000       1.332598        36.2618 
 501   0.0000       1.340482        36.4764 
 502   0.0000       1.342065        36.5194 
 503   0.0000       1.345267        36.6066 
 504   0.0000       1.346338        36.6357 
 505   0.0000       1.351102        36.7654 
 506   0.0000       1.351579        36.7783 
 507   0.0000       1.355234        36.8778 
 508   0.0000       1.358805        36.9750 
 509   0.0000       1.360240        37.0140 
[...]
      pz      :     0.022110  p :     0.079767
      px      :     0.043592
      py      :     0.014065
 77 H s       :     0.884823  s :     0.884823
      pz      :     0.047955  p :     0.079265
      px      :     0.015023
      py      :     0.016288
 78 H s       :     0.885173  s :     0.885173
      pz      :     0.025871  p :     0.079233
      px      :     0.020462
      py      :     0.032899
 79 H s       :     0.910612  s :     0.910612
      pz      :     0.021814  p :     0.086332
      px      :     0.021667
      py      :     0.042851
 80 H s       :     0.864838  s :     0.864838
      pz      :     0.039356  p :     0.084781
      px      :     0.030259
      py      :     0.015165
 81 H s       :     0.886882  s :     0.886882
      pz      :     0.037815  p :     0.084110
      px      :     0.016182
      py      :     0.030113
 82 H s       :     0.915948  s :     0.915948
      pz      :     0.021958  p :     0.086734
      px      :     0.031636
      py      :     0.033140
 83 H s       :     0.873341  s :     0.873341
      pz      :     0.039278  p :     0.084086
      px      :     0.015273
      py      :     0.029535
 84 H s       :     0.886689  s :     0.886689
      pz      :     0.035774  p :     0.083456
      px      :     0.031698
      py      :     0.015984
 85 H s       :     0.892861  s :     0.892861
      pz      :     0.022492  p :     0.079786
      px      :     0.014070
      py      :     0.043225
 86 H s       :     0.890973  s :     0.890973
      pz      :     0.024730  p :     0.078831
      px      :     0.032981
      py      :     0.021119
 87 H s       :     0.889901  s :     0.889901
      pz      :     0.048009  p :     0.078736
      px      :     0.015588
      py      :     0.015139
 88 H s       :     0.910724  s :     0.910724
      pz      :     0.021642  p :     0.087012
      px      :     0.042918
      py      :     0.022452
 89 H s       :     0.871431  s :     0.871431
      pz      :     0.037940  p :     0.083833
      px      :     0.030478
      py      :     0.015415


                      *****************************
                      * MAYER POPULATION ANALYSIS *
                      *****************************

  NA   - Mulliken gross atomic population
  ZA   - Total nuclear charge
  QA   - Mulliken gross atomic charge
  VA   - Mayer's total valence
  BVA  - Mayer's bonded valence
  FA   - Mayer's free valence

  ATOM       NA         ZA         QA         VA         BVA        FA
  0 C      5.7901     6.0000     0.2099     3.8430     3.8430     0.0000
  1 N      7.4562     7.0000    -0.4562     3.3346     3.3346     0.0000
  2 C      6.0693     6.0000    -0.0693     3.9213     3.9213    -0.0000
  3 N      7.3387     7.0000    -0.3387     3.4568     3.4568    -0.0000
  4 C      6.0499     6.0000    -0.0499     4.0520     4.0520     0.0000
  5 N      7.5658     7.0000    -0.5658     3.0947     3.0947     0.0000
  6 C      6.1182     6.0000    -0.1182     3.9799     3.9799     0.0000
  7 N      7.3405     7.0000    -0.3405     3.4334     3.4334     0.0000
  8 C      5.7900     6.0000     0.2100     3.8452     3.8452    -0.0000
  9 N      7.5623     7.0000    -0.5623     3.0774     3.0774    -0.0000
 10 C      5.8813     6.0000     0.1187     3.9091     3.9091     0.0000
 11 N      7.4384     7.0000    -0.4384     3.3783     3.3783     0.0000
 12 C      6.0760     6.0000    -0.0760     3.8830     3.8830     0.0000
 13 N      7.4301     7.0000    -0.4301     3.4250     3.4250     0.0000
 14 C      5.7716     6.0000     0.2284     3.7880     3.7880    -0.0000
 15 N      7.4410     7.0000    -0.4410     3.3721     3.3721     0.0000
 16 C      5.7709     6.0000     0.2291     3.7775     3.7775    -0.0000
 17 C      6.1140     6.0000    -0.1140     3.9709     3.9709     0.0000
 18 C      6.1894     6.0000    -0.1894     3.7656     3.7656     0.0000
 19 C      5.7783     6.0000     0.2217     3.8641     3.8641     0.0000
 20 C      5.7868     6.0000     0.2132     3.8290     3.8290    -0.0000
 21 C      6.0848     6.0000    -0.0848     3.8673     3.8673    -0.0000
 22 C      6.0910     6.0000    -0.0910     3.9828     3.9828    -0.0000
 23 C      6.0399     6.0000    -0.0399     3.9925     3.9925     0.0000
 24 C      5.8058     6.0000     0.1942     3.8213     3.8213    -0.0000
 25 C      5.8854     6.0000     0.1146     3.8915     3.8915     0.0000
 26 C      6.0857     6.0000    -0.0857     3.9110     3.9110    -0.0000
 27 C      5.7863     6.0000     0.2137     3.8627     3.8627    -0.0000
 28 C      6.0613     6.0000    -0.0613     3.9886     3.9886    -0.0000
 29 C      6.1807     6.0000    -0.1807     3.7451     3.7451     0.0000
 30 C      5.7544     6.0000     0.2456     3.8005     3.8005    -0.0000
 31 C      5.7709     6.0000     0.2291     3.8179     3.8179     0.0000
 32 C      6.0619     6.0000    -0.0619     3.9228     3.9228    -0.0000
 33 C      6.0617     6.0000    -0.0617     3.9725     3.9725    -0.0000
 34 C      6.0510     6.0000    -0.0510     3.9841     3.9841     0.0000
 35 C      5.7732     6.0000     0.2268     3.8172     3.8172    -0.0000
 36 C      5.8914     6.0000     0.1086     3.8759     3.8759     0.0000
 37 C      6.0644     6.0000    -0.0644     3.9178     3.9178    -0.0000
 38 C      5.7685     6.0000     0.2315     3.8004     3.8004    -0.0000
 39 C      6.0580     6.0000    -0.0580     3.9836     3.9836     0.0000
 40 C      6.1817     6.0000    -0.1817     3.7281     3.7281    -0.0000
 41 C      5.7744     6.0000     0.2256     3.8866     3.8866     0.0000
 42 C      5.8024     6.0000     0.1976     3.8259     3.8259    -0.0000
 43 C      6.0724     6.0000    -0.0724     3.9001     3.9001     0.0000
 44 C      6.0895     6.0000    -0.0895     3.9850     3.9850    -0.0000
 45 C      6.0609     6.0000    -0.0609     3.9922     3.9922    -0.0000
 46 C      5.7889     6.0000     0.2111     3.8284     3.8284    -0.0000
 47 C      5.8846     6.0000     0.1154     3.8930     3.8930     0.0000
 48 C      6.0673     6.0000    -0.0673     3.9093     3.9093    -0.0000
 49 C      5.7617     6.0000     0.2383     3.8933     3.8933     0.0000
 50 C      6.0468     6.0000    -0.0468     3.9904     3.9904     0.0000
 51 C      6.1925     6.0000    -0.1925     3.7360     3.7360     0.0000
 52 H      0.9616     1.0000     0.0384     0.9859     0.9859    -0.0000
 53 H      1.0171     1.0000    -0.0171     0.9986     0.9986    -0.0000
 54 H      0.9519     1.0000     0.0481     1.0166     1.0166     0.0000
 55 H      0.9632     1.0000     0.0368     0.9866     0.9866    -0.0000
 56 H      0.9505     1.0000     0.0495     0.9695     0.9695    -0.0000
 57 H      0.9527     1.0000     0.0473     0.9827     0.9827    -0.0000
 58 H      0.9521     1.0000     0.0479     0.9848     0.9848    -0.0000
 59 H      1.0006     1.0000    -0.0006     1.0017     1.0017    -0.0000
 60 H      0.9499     1.0000     0.0501     1.0184     1.0184     0.0000
 61 H      0.8288     1.0000     0.1712     1.0421     1.0421     0.0000
 62 H      0.8246     1.0000     0.1754     1.0436     1.0436     0.0000
 63 H      0.9447     1.0000     0.0553     0.9853     0.9853     0.0000
 64 H      1.0126     1.0000    -0.0126     0.9939     0.9939    -0.0000
 65 H      0.9527     1.0000     0.0473     1.0097     1.0097     0.0000
 66 H      0.9442     1.0000     0.0558     0.9855     0.9855    -0.0000
 67 H      0.9376     1.0000     0.0624     0.9719     0.9719     0.0000
 68 H      0.9427     1.0000     0.0573     0.9868     0.9868    -0.0000
 69 H      0.9436     1.0000     0.0564     0.9828     0.9828    -0.0000
 70 H      1.0301     1.0000    -0.0301     0.9937     0.9937    -0.0000
 71 H      0.9552     1.0000     0.0448     1.0059     1.0059     0.0000
 72 H      0.9295     1.0000     0.0705     0.9836     0.9836    -0.0000
 73 H      1.0082     1.0000    -0.0082     1.0009     1.0009    -0.0000
 74 H      0.9404     1.0000     0.0596     1.0101     1.0101    -0.0000
 75 H      0.9301     1.0000     0.0699     0.9840     0.9840     0.0000
 76 H      0.9258     1.0000     0.0742     0.9721     0.9721     0.0000
 77 H      0.9326     1.0000     0.0674     0.9854     0.9854     0.0000
 78 H      0.9333     1.0000     0.0667     0.9854     0.9854    -0.0000
 79 H      1.0164     1.0000    -0.0164     0.9976     0.9976    -0.0000
 80 H      0.9395     1.0000     0.0605     1.0072     1.0072     0.0000
 81 H      0.9458     1.0000     0.0542     0.9856     0.9856    -0.0000
 82 H      1.0248     1.0000    -0.0248     0.9935     0.9935     0.0000
 83 H      0.9580     1.0000     0.0420     1.0083     1.0083    -0.0000
 84 H      0.9458     1.0000     0.0542     0.9852     0.9852    -0.0000
 85 H      0.9392     1.0000     0.0608     0.9716     0.9716    -0.0000
 86 H      0.9444     1.0000     0.0556     0.9839     0.9839    -0.0000
 87 H      0.9429     1.0000     0.0571     0.9856     0.9856    -0.0000
 88 H      1.0147     1.0000    -0.0147     0.9966     0.9966     0.0000
 89 H      0.9537     1.0000     0.0463     1.0075     1.0075     0.0000

  Mayer bond orders larger than 0.100000
B(  0-C ,  1-N ) :   1.0910 B(  0-C , 17-C ) :   1.7111 B(  0-C , 52-H ) :   0.9654 
B(  1-N ,  8-C ) :   1.0918 B(  1-N , 10-C ) :   0.9775 B(  2-C , 12-C ) :   1.5005 
B(  2-C , 16-C ) :   1.3617 B(  2-C , 53-H ) :   0.9743 B(  3-N , 14-C ) :   1.2196 
B(  3-N , 16-C ) :   1.1868 B(  3-N , 61-H ) :   0.8990 B(  4-C ,  6-C ) :   1.2133 
B(  4-C , 17-C ) :   1.2116 B(  4-C , 18-C ) :   1.4503 B(  5-N , 19-C ) :   1.4541 
B(  5-N , 27-C ) :   1.3764 B(  6-C ,  8-C ) :   1.7075 B(  6-C , 54-H ) :   0.9425 
B(  7-N , 30-C ) :   1.1957 B(  7-N , 38-C ) :   1.1903 B(  7-N , 62-H ) :   0.8968 
B(  8-C , 55-H ) :   0.9663 B(  9-N , 41-C ) :   1.3945 B(  9-N , 49-C ) :   1.4252 
B( 10-C , 56-H ) :   0.9772 B( 10-C , 57-H ) :   0.9822 B( 10-C , 58-H ) :   0.9843 
B( 11-N , 20-C ) :   1.1307 B( 11-N , 24-C ) :   1.1075 B( 11-N , 25-C ) :   0.9602 
B( 12-C , 14-C ) :   1.3568 B( 12-C , 59-H ) :   0.9659 B( 13-N , 31-C ) :   1.1590 
B( 13-N , 35-C ) :   1.1572 B( 13-N , 36-C ) :   0.9425 B( 14-C , 18-C ) :   1.1261 
B( 15-N , 42-C ) :   1.1080 B( 15-N , 46-C ) :   1.1235 B( 15-N , 47-C ) :   0.9614 
B( 16-C , 51-C ) :   1.1699 B( 17-C , 60-H ) :   0.9345 B( 18-C , 19-C ) :   1.1287 
B( 19-C , 21-C ) :   1.2486 B( 20-C , 28-C ) :   1.6285 B( 20-C , 63-H ) :   0.9703 
B( 21-C , 26-C ) :   1.5968 B( 21-C , 64-H ) :   0.9554 B( 22-C , 23-C ) :   1.2891 
B( 22-C , 28-C ) :   1.2642 B( 22-C , 29-C ) :   1.2245 B( 23-C , 24-C ) :   1.6202 
B( 23-C , 65-H ) :   0.9703 B( 24-C , 66-H ) :   0.9695 B( 25-C , 67-H ) :   0.9760 
B( 25-C , 68-H ) :   0.9828 B( 25-C , 69-H ) :   0.9823 B( 26-C , 27-C ) :   1.2492 
B( 26-C , 70-H ) :   0.9697 B( 27-C , 29-C ) :   1.2099 B( 28-C , 71-H ) :   0.9720 
B( 29-C , 30-C ) :   1.2436 B( 30-C , 32-C ) :   1.2814 B( 31-C , 39-C ) :   1.5906 
B( 31-C , 72-H ) :   0.9682 B( 32-C , 37-C ) :   1.5774 B( 32-C , 73-H ) :   0.9786 
B( 33-C , 34-C ) :   1.3052 B( 33-C , 39-C ) :   1.3017 B( 33-C , 40-C ) :   1.1805 
B( 34-C , 35-C ) :   1.5880 B( 34-C , 74-H ) :   0.9697 B( 35-C , 75-H ) :   0.9682 
B( 36-C , 76-H ) :   0.9767 B( 36-C , 77-H ) :   0.9816 B( 36-C , 78-H ) :   0.9824 
B( 37-C , 38-C ) :   1.2868 B( 37-C , 79-H ) :   0.9765 B( 38-C , 40-C ) :   1.2321 
B( 39-C , 80-H ) :   0.9706 B( 40-C , 41-C ) :   1.2490 B( 41-C , 43-C ) :   1.1860 
B( 42-C , 50-C ) :   1.6333 B( 42-C , 81-H ) :   0.9697 B( 43-C , 48-C ) :   1.6666 
B( 43-C , 82-H ) :   0.9722 B( 44-C , 45-C ) :   1.2638 B( 44-C , 50-C ) :   1.2719 
B( 44-C , 51-C ) :   1.2608 B( 45-C , 46-C ) :   1.6348 B( 45-C , 83-H ) :   0.9718 
B( 46-C , 84-H ) :   0.9700 B( 47-C , 85-H ) :   0.9762 B( 47-C , 86-H ) :   0.9829 
B( 47-C , 87-H ) :   0.9825 B( 48-C , 49-C ) :   1.1895 B( 48-C , 88-H ) :   0.9748 
B( 49-C , 51-C ) :   1.2422 B( 50-C , 89-H ) :   0.9709 

-------
TIMINGS
-------

Total SCF time: 0 days 0 hours 28 min 43 sec 

Total time                  ....    1723.605 sec
Sum of individual times     ....    1718.838 sec  ( 99.7%)

Fock matrix formation       ....    1691.007 sec  ( 98.1%)
Diagonalization             ....       8.781 sec  (  0.5%)
Density matrix formation    ....       0.532 sec  (  0.0%)
Population analysis         ....       0.631 sec  (  0.0%)
Initial guess               ....       2.512 sec  (  0.1%)
Orbital Transformation      ....       0.000 sec  (  0.0%)
Orbital Orthonormalization  ....       0.000 sec  (  0.0%)
DIIS solution               ....       3.980 sec  (  0.2%)
SOSCF solution              ....      10.089 sec  (  0.6%)

Maximum memory used throughout the entire SCF-calculation: 302.6 MB


           ************************************************************
           *        Program running with 16 parallel MPI-processes    *
           *              working on a common directory               *
           ************************************************************

------------------------------------------------------------------------------
                                ORCA  MP2 
------------------------------------------------------------------------------

Freezing NCore=104 chemical core electrons

----------
MP2 ENERGY (disk based algorithm)
----------

Dimension of the basis                    ...  918
Memory devoted to MP2                     ... 2000 MB   
Data format for buffers                   ... DOUBLE
Compression type for matrix containers    ... UNCOMPRESSED

-------------------------------
PARTIAL EXCHANGE TRANSFORMATION
-------------------------------

Transformation type                        ... one-operator
Generation of integrals (i,mue|j,nue)      ... ON
Generation of integrals (mue,kappa|nue,tau)... OFF
Generation of integrals (i,mue|a,nue)      ... OFF
Dimension of the basis                     ...  918
Number of internal MOs                     ...  127 (  52- 178)
Pair cutoff                                ... 2.500e-12 Eh
Number of AO pairs in the trafo            ... 421821
Total Number of distinct AO pairs          ... 421821
Memory devoted for trafo                   ... 2000.0 MB 
Max. Number of MO pairs treated together   ...  311      
Number Format for Storage                  ... Double (8 Byte)
Integral package used                      ... LIBINT

Starting integral evaluation:
    ... done with AO integral generation
Closing buffer AOK     (38.31 GB; CompressionRatio= 1.32)
Collecting buffer AOK 
Number of MO pairs included in the trafo   ... 8128
------------------------
SORTING OF (i,mue|j,nue)
------------------------

IBATCH = 1 of  2
IBATCH = 2 of  2
Closing buffer KAO     (51.03 GB; CompressionRatio= 1.00)
Collecting buffer KAO 
N(AO-Batches) Done                         ...  85996393 
N(AO-Batches) Skipped                      ...  82321323 
N(IJ)-pairs Skipped                        ...         0 
TOTAL TIME for half transformation         ...  2550.143 sec
AO-integral generation                     ...   210.641 sec
Half transformation                        ...   423.308 sec
K-integral sorting                         ...  1690.826 sec
Process 10:   Internal MO 132
Process  4:   Internal MO  84
Process 13:   Internal MO 156

Finished integral transformation - now doing MP2 part

OPERATOR COMBINATION   0   0: ij=( 52..178, 52..178)
Process  7:   Internal MO 108
Process  1:   Internal MO  60
Process  0:   Internal MO  54
Process  0:   Internal MO  57
Process  1:   Internal MO  63
Process  5:   Internal MO  93
Process  2:   Internal MO  69
Process  8:   Internal MO 117
Process  3:   Internal MO  78
Process  1:   Internal MO  66
Process 11:   Internal MO 141
Process  6:   Internal MO 102
Process  2:   Internal MO  72
Process  4:   Internal MO  87
Process  3:   Internal MO  81
Process  7:   Internal MO 111
Process  5:   Internal MO  96
Process 12:   Internal MO 150
Process  2:   Internal MO  75
Process 10:   Internal MO 135
Process  6:   Internal MO 105
Process  8:   Internal MO 120
Process  4:   Internal MO  90
Process  5:   Internal MO  99
Process 13:   Internal MO 159
Process  7:   Internal MO 114
Process 14:   Internal MO 165
Process 12:   Internal MO 153
Process  8:   Internal MO 123
Process  9:   Internal MO 126
Process 10:   Internal MO 138
Process 15:   Internal MO 174
Process 11:   Internal MO 144
Process 13:   Internal MO 162
Process  9:   Internal MO 129
Process 14:   Internal MO 168
Process 11:   Internal MO 147
Process 15:   Internal MO 177
Process 14:   Internal MO 171
-----------------------------------------------
 MP2 CORRELATION ENERGY   :     -7.285015059 Eh
-----------------------------------------------


-------
TIMINGS
-------
Total time                : 2896.093 sec
Integral trafo            : 2552.962 sec ( 88.2%)
K(i,j)                    :    6.322 sec (  0.2%)
T(i,j)                    :    0.062 sec (  0.0%)

---------------------------------------
MP2 TOTAL ENERGY:    -2130.854590819 Eh
---------------------------------------

Maximum memory used throughout the entire MP2-calculation: 2275.3 MB

-------------------------   --------------------
FINAL SINGLE POINT ENERGY     -2130.854590818932
-------------------------   --------------------


                            ***************************************
                            *     ORCA property calculations      *
                            ***************************************


  WARNING: The energy has been calculated at the MP2 level but the densities
           used in the property calculations are still SCF densities
           MP2 response densities have not been calculated 
           use %mp2 Density relaxed end
           or  %mp2 Density unrelaxed end

                                    ---------------------
                                    Active property flags
                                    ---------------------
   (+) Dipole Moment


------------------------------------------------------------------------------
                       ORCA ELECTRIC PROPERTIES CALCULATION
------------------------------------------------------------------------------

Dipole Moment Calculation                       ... on
Quadrupole Moment Calculation                   ... off
Polarizability Calculation                      ... off
GBWName                                         ... /scratch/allen/tmpyp4_amber_gaff2/conf1/conf1/Conf205.orca.gbw
Electron density                                ... /scratch/allen/tmpyp4_amber_gaff2/conf1/conf1/Conf205.orca.scfp
The origin for moment calculation is the CENTER OF MASS  = ( 0.002789, -0.002113 -0.000735)

-------------
DIPOLE MOMENT
-------------
                                X             Y             Z
Electronic contribution:      2.53328      -4.14733      -0.17639
Nuclear contribution   :      0.07689       0.23864       0.17423
                        -----------------------------------------
Total Dipole Moment    :      2.61017      -3.90870      -0.00216
                        -----------------------------------------
Magnitude (a.u.)       :      4.70009
Magnitude (Debye)      :     11.94669



--------------------
Rotational spectrum 
--------------------
 
Rotational constants in cm-1:     0.001501     0.001479     0.000760 
Rotational constants in MHz :    44.992024    44.331431    22.792944 

 Dipole components along the rotational axes: 
x,y,z [a.u.] :     3.362397    -3.284077    -0.002144 
x,y,z [Debye]:     8.546533    -8.347460    -0.005449 

 

Timings for individual modules:

Sum of individual times         ...     4643.750 sec (=  77.396 min)
GTO integral calculation        ...        3.509 sec (=   0.058 min)   0.1 %
SCF iterations                  ...     1724.848 sec (=  28.747 min)  37.1 %
MP2 module                      ...     2915.393 sec (=  48.590 min)  62.8 %
                             ****ORCA TERMINATED NORMALLY****
TOTAL RUN TIME: 0 days 1 hours 17 minutes 27 seconds 444 msec
# of primitive gaussian functions

