
                                 *****************
                                 * O   R   C   A *
                                 *****************

                                            #,                                       
                                            ###                                      
                                            ####                                     
                                            #####                                    
                                            ######                                   
                                           ########,                                 
                                     ,,################,,,,,                         
                               ,,#################################,,                 
                          ,,##########################################,,             
                       ,#########################################, ''#####,          
                    ,#############################################,,   '####,        
                  ,##################################################,,,,####,       
                ,###########''''           ''''###############################       
              ,#####''   ,,,,##########,,,,          '''####'''          '####       
            ,##' ,,,,###########################,,,                        '##       
           ' ,,###''''                  '''############,,,                           
         ,,##''                                '''############,,,,        ,,,,,,###''
      ,#''                                            '''#######################'''  
     '                                                          ''''####''''         
             ,#######,   #######,   ,#######,      ##                                
            ,#'     '#,  ##    ##  ,#'     '#,    #''#        ######   ,####,        
            ##       ##  ##   ,#'  ##            #'  '#       #        #'  '#        
            ##       ##  #######   ##           ,######,      #####,   #    #        
            '#,     ,#'  ##    ##  '#,     ,#' ,#      #,         ##   #,  ,#        
             '#######'   ##     ##  '#######'  #'      '#     #####' # '####'        



                  #######################################################
                  #                        -***-                        #
                  #          Department of theory and spectroscopy      #
                  #    Directorship and core code : Frank Neese         #
                  #        Max Planck Institute fuer Kohlenforschung    #
                  #                Kaiser Wilhelm Platz 1               #
                  #                 D-45470 Muelheim/Ruhr               #
                  #                      Germany                        #
                  #                                                     #
                  #                  All rights reserved                #
                  #                        -***-                        #
                  #######################################################


                         Program Version 5.0.4 -  RELEASE  -


 With contributions from (in alphabetic order):
   Daniel Aravena         : Magnetic Suceptibility
   Michael Atanasov       : Ab Initio Ligand Field Theory (pilot matlab implementation)
   Alexander A. Auer      : GIAO ZORA, VPT2 properties, NMR spectrum
   Ute Becker             : Parallelization
   Giovanni Bistoni       : ED, misc. LED, open-shell LED, HFLD
   Martin Brehm           : Molecular dynamics
   Dmytro Bykov           : SCF Hessian
   Vijay G. Chilkuri      : MRCI spin determinant printing, contributions to CSF-ICE
   Dipayan Datta          : RHF DLPNO-CCSD density
   Achintya Kumar Dutta   : EOM-CC, STEOM-CC
   Dmitry Ganyushin       : Spin-Orbit,Spin-Spin,Magnetic field MRCI
   Miquel Garcia          : C-PCM and meta-GGA Hessian, CC/C-PCM, Gaussian charge scheme
   Yang Guo               : DLPNO-NEVPT2, F12-NEVPT2, CIM, IAO-localization
   Andreas Hansen         : Spin unrestricted coupled pair/coupled cluster methods
   Benjamin Helmich-Paris : MC-RPA, TRAH-SCF, COSX integrals
   Lee Huntington         : MR-EOM, pCC
   Robert Izsak           : Overlap fitted RIJCOSX, COSX-SCS-MP3, EOM
   Marcus Kettner         : VPT2
   Christian Kollmar      : KDIIS, OOCD, Brueckner-CCSD(T), CCSD density, CASPT2, CASPT2-K
   Simone Kossmann        : Meta GGA functionals, TD-DFT gradient, OOMP2, MP2 Hessian
   Martin Krupicka        : Initial AUTO-CI
   Lucas Lang             : DCDCAS
   Marvin Lechner         : AUTO-CI (C++ implementation), FIC-MRCC
   Dagmar Lenk            : GEPOL surface, SMD
   Dimitrios Liakos       : Extrapolation schemes; Compound Job, initial MDCI parallelization
   Dimitrios Manganas     : Further ROCIS development; embedding schemes
   Dimitrios Pantazis     : SARC Basis sets
   Anastasios Papadopoulos: AUTO-CI, single reference methods and gradients
   Taras Petrenko         : DFT Hessian,TD-DFT gradient, ASA, ECA, R-Raman, ABS, FL, XAS/XES, NRVS
   Peter Pinski           : DLPNO-MP2, DLPNO-MP2 Gradient
   Christoph Reimann      : Effective Core Potentials
   Marius Retegan         : Local ZFS, SOC
   Christoph Riplinger    : Optimizer, TS searches, QM/MM, DLPNO-CCSD(T), (RO)-DLPNO pert. Triples
   Tobias Risthaus        : Range-separated hybrids, TD-DFT gradient, RPA, STAB
   Michael Roemelt        : Original ROCIS implementation
   Masaaki Saitow         : Open-shell DLPNO-CCSD energy and density
   Barbara Sandhoefer     : DKH picture change effects
   Avijit Sen             : IP-ROCIS
   Kantharuban Sivalingam : CASSCF convergence, NEVPT2, FIC-MRCI
   Bernardo de Souza      : ESD, SOC TD-DFT
   Georgi Stoychev        : AutoAux, RI-MP2 NMR, DLPNO-MP2 response
   Willem Van den Heuvel  : Paramagnetic NMR
   Boris Wezisla          : Elementary symmetry handling
   Frank Wennmohs         : Technical directorship


 We gratefully acknowledge several colleagues who have allowed us to
 interface, adapt or use parts of their codes:
   Stefan Grimme, W. Hujo, H. Kruse, P. Pracht,  : VdW corrections, initial TS optimization,
                  C. Bannwarth, S. Ehlert          DFT functionals, gCP, sTDA/sTD-DF
   Ed Valeev, F. Pavosevic, A. Kumar             : LibInt (2-el integral package), F12 methods
   Garnet Chan, S. Sharma, J. Yang, R. Olivares  : DMRG
   Ulf Ekstrom                                   : XCFun DFT Library
   Mihaly Kallay                                 : mrcc  (arbitrary order and MRCC methods)
   Jiri Pittner, Ondrej Demel                    : Mk-CCSD
   Frank Weinhold                                : gennbo (NPA and NBO analysis)
   Christopher J. Cramer and Donald G. Truhlar   : smd solvation model
   Lars Goerigk                                  : TD-DFT with DH, B97 family of functionals
   V. Asgeirsson, H. Jonsson                     : NEB implementation
   FAccTs GmbH                                   : IRC, NEB, NEB-TS, DLPNO-Multilevel, CI-OPT
                                                   MM, QMMM, 2- and 3-layer-ONIOM, Crystal-QMMM,
                                                   LR-CPCM, SF, NACMEs, symmetry and pop. for TD-DFT,
                                                   nearIR, NL-DFT gradient (VV10), updates on ESD,
                                                   ML-optimized integration grids
   S Lehtola, MJT Oliveira, MAL Marques          : LibXC Library
   Liviu Ungur et al                             : ANISO software


 Your calculation uses the libint2 library for the computation of 2-el integrals
 For citations please refer to: http://libint.valeyev.net

 Your ORCA version has been built with support for libXC version: 5.1.0
 For citations please refer to: https://tddft.org/programs/libxc/

 This ORCA versions uses:
   CBLAS   interface :  Fast vector & matrix operations
   LAPACKE interface :  Fast linear algebra routines
   SCALAPACK package :  Parallel linear algebra routines
   Shared memory     :  Shared parallel matrices
   BLAS/LAPACK       :  OpenBLAS 0.3.15  USE64BITINT DYNAMIC_ARCH NO_AFFINITY Sandybridge SINGLE_THREADED
        Core in use  :  Sandybridge
   Copyright (c) 2011-2014, The OpenBLAS Project


================================================================================

----- Orbital basis set information -----
Your calculation utilizes the basis: cc-pVDZ 
       H, B-Ne : Obtained from the ccRepo (grant-hill.group.shef.ac.uk/ccrepo) Feb. 2017
                 T. H. Dunning, Jr., J. Chem. Phys. 90, 1007 (1989)
            He : Obtained from the ccRepo (grant-hill.group.shef.ac.uk/ccrepo) Feb. 2017
                 D. E. Woon, T. H. Dunning, Jr., J. Chem. Phys. 100, 2975 (1994)
  Li-Be, Na-Mg : Obtained from the ccRepo (grant-hill.group.shef.ac.uk/ccrepo) Feb. 2017
                 B. P. Prascher, D. E. Woon, K. A. Peterson, T. H. Dunning, Jr., A. K. Wilson, Theor. Chem. Acc. 128, 69 (2011)
         Al-Ar : Obtained from the ccRepo (grant-hill.group.shef.ac.uk/ccrepo) Feb. 2017
                 D. E. Woon, T. H. Dunning, Jr., J. Chem. Phys. 98, 1358 (1993)
            Ca : Obtained from the Peterson Research Group Website (tyr0.chem.wsu.edu/~kipeters) Feb. 2017
                 J. Koput, K. A. Peterson, J. Phys. Chem. 106, 9595 (2002)
         Sc-Zn : Obtained from the ccRepo (grant-hill.group.shef.ac.uk/ccrepo) Feb. 2017
                 N. B. Balabanov, K. A. Peterson, J. Chem. Phys. 123, 064107 (2005)
                 N. B. Balabanov, K. A. Peterson, J. Chem. Phys. 125, 074110 (2006)
         Ga-Kr : Obtained from the ccRepo (grant-hill.group.shef.ac.uk/ccrepo) Feb. 2017
                 A. K. Wilson, D. E. Woon, K. A. Peterson, T. H. Dunning, Jr., J. Chem. Phys. 110, 7667 (1999)

================================================================================
                                        WARNINGS
                       Please study these warnings very carefully!
================================================================================


WARNING: No MP2 level density has been requested!
         To caclulate MP2 level properties use
         %mp2 Density relaxed end
         or
         %mp2 Density unrelaxed end

WARNING: Post HF methods need fully converged wavefunctions
  ===> : Setting SCFConvForced true
         You can overwrite this default with %scf ConvForced false 


INFO   : the flag for use of the SHARK integral package has been found!

================================================================================
                                       INPUT FILE
================================================================================
NAME = /scratch/allen/tmpyp4_amber_gaff2/2.Mdgx/conf11/conf11/Conf234.orca
|  1> ! PAL2
|  2> ! mp2 cc-pvdz TightSCF  NoKeepInts
|  3> 
|  4> %scf
|  5>   MaxCore 2000
|  6> end
|  7> %mp2
|  8>   MaxCore 2000
|  9> end
| 10> * xyz 0 1
| 11>    C       -4.59000         5.41300         0.99000
| 12>    C        1.47400         4.04100         0.05700
| 13>    C       -2.80200         4.09300         0.04900
| 14>    C       -2.60400         5.12100        -0.88600
| 15>    C       -3.39600         6.25100        -0.85200
| 16>    C       -5.17900         7.62500         0.10800
| 17>    C        0.13200         4.30700         0.06100
| 18>    C       -0.56900         3.05600         0.04700
| 19>    C        1.64900         2.61800         0.02300
| 20>    C       -3.82000         4.26600         1.00000
| 21>    N       -4.37400         6.38500         0.07400
| 22>    N        0.38800         2.06700         0.02500
| 23>    N       -2.01000         0.39500        -0.07500
| 24>    N       -0.38800        -2.07400        -0.02700
| 25>    N        2.01000        -0.40100         0.06500
| 26>    C       -1.96000         2.86100         0.02400
| 27>    C       -2.62300         1.61500        -0.01800
| 28>    C       -5.57300        -4.32900         1.06600
| 29>    C       -4.07300         1.47100         0.05600
| 30>    C       -4.10600        -2.75600        -0.02600
| 31>    C       -4.99500        -2.75700        -1.11100
| 32>    C       -6.13200        -3.54200        -1.07600
| 33>    C       -7.65100        -5.11300         0.04000
| 34>    C       -4.32400         0.14100         0.03700
| 35>    C       -3.02500        -0.52000        -0.04800
| 36>    C       -4.42200        -3.56600         1.07500
| 37>    N       -6.40700        -4.31300         0.00100
| 38>    C       -2.86700        -1.92200        -0.04000
| 39>    C       -1.65000        -2.62400        -0.02700
| 40>    C        3.56800        -6.14200        -1.04000
| 41>    C       -1.47600        -4.04900        -0.03400
| 42>    C        2.80300        -4.09900        -0.00800
| 43>    C        3.65700        -4.38400         1.06900
| 44>    C        4.42700        -5.53000         1.05900
| 45>    C        5.24500        -7.58800         0.01400
| 46>    C       -0.13400        -4.31500        -0.02200
| 47>    C        0.56800        -3.06400        -0.02700
| 48>    C        2.77500        -5.01200        -1.07400
| 49>    N        4.37600        -6.39100         0.01700
| 50>    C        1.95900        -2.86900        -0.00900
| 51>    C        2.62100        -1.62200         0.00900
| 52>    C        5.54300         4.33900        -1.13000
| 53>    C        4.07000        -1.47900        -0.09400
| 54>    C        4.10400         2.75100        -0.02100
| 55>    C        5.02700         2.72900         1.03600
| 56>    C        6.16600         3.50900         0.97800
| 57>    C        7.61900         5.15300        -0.11500
| 58>    C        4.32100        -0.14800        -0.09200
| 59>    C        3.02500         0.51400         0.01500
| 60>    C        4.38700         3.58200        -1.11500
| 61>    C        2.86600         1.91600         0.01300
| 62>    N        6.41300         4.29600        -0.09500
| 63>    H       -5.39300         5.58400         1.69600
| 64>    H        2.27400         4.76600         0.08100
| 65>    H       -1.82800         5.05000        -1.63900
| 66>    H       -3.27500         7.07300        -1.54600
| 67>    H       -4.65500         8.37400         0.70700
| 68>    H       -5.31200         7.98600        -0.91100
| 69>    H       -6.14800         7.40100         0.55500
| 70>    H       -0.33200         5.28200         0.06900
| 71>    H       -4.03100         3.50200         1.73900
| 72>    H        0.18200         1.07200         0.00500
| 73>    H       -0.18300        -1.08000        -0.02100
| 74>    H       -5.86400        -4.96200         1.89500
| 75>    H       -4.79400         2.27200         0.13900
| 76>    H       -4.80000        -2.16000        -1.99400
| 77>    H       -6.84100        -3.58200        -1.89300
| 78>    H       -8.42800        -4.53600         0.54600
| 79>    H       -7.95600        -5.33700        -0.98100
| 80>    H       -7.45600        -6.03700         0.58400
| 81>    H       -5.28700        -0.34400         0.10000
| 82>    H       -3.78000        -3.60100         1.94700
| 83>    H        3.58700        -6.86800        -1.84300
| 84>    H       -2.27600        -4.77400        -0.05000
| 85>    H        3.71400        -3.72400         1.92600
| 86>    H        5.09200        -5.79500         1.87100
| 87>    H        6.20500        -7.32900        -0.43900
| 88>    H        5.39300        -7.91700         1.04200
| 89>    H        4.75900        -8.37300        -0.56400
| 90>    H        0.32900        -5.29000        -0.00800
| 91>    H        2.14600        -4.84200        -1.94000
| 92>    H        5.80800         4.98600        -1.95600
| 93>    H        4.78800        -2.28100        -0.18500
| 94>    H        4.86000         2.11400         1.91200
| 95>    H        6.90100         3.53100         1.77200
| 96>    H        7.38300         6.10900         0.35600
| 97>    H        8.41400         4.65200         0.43500
| 98>    H        7.92100         5.31000        -1.15000
| 99>    H        5.28300         0.33600        -0.17900
|100>    H        3.72000         3.63200        -1.96700
|101> *
|102> 
|103>                          ****END OF INPUT****
================================================================================

                       ****************************
                       * Single Point Calculation *
                       ****************************

---------------------------------
CARTESIAN COORDINATES (ANGSTROEM)
---------------------------------
  C     -4.590000    5.413000    0.990000
  C      1.474000    4.041000    0.057000
  C     -2.802000    4.093000    0.049000
  C     -2.604000    5.121000   -0.886000
  C     -3.396000    6.251000   -0.852000
  C     -5.179000    7.625000    0.108000
  C      0.132000    4.307000    0.061000
  C     -0.569000    3.056000    0.047000
  C      1.649000    2.618000    0.023000
  C     -3.820000    4.266000    1.000000
  N     -4.374000    6.385000    0.074000
  N      0.388000    2.067000    0.025000
  N     -2.010000    0.395000   -0.075000
  N     -0.388000   -2.074000   -0.027000
  N      2.010000   -0.401000    0.065000
  C     -1.960000    2.861000    0.024000
  C     -2.623000    1.615000   -0.018000
  C     -5.573000   -4.329000    1.066000
  C     -4.073000    1.471000    0.056000
  C     -4.106000   -2.756000   -0.026000
  C     -4.995000   -2.757000   -1.111000
  C     -6.132000   -3.542000   -1.076000
  C     -7.651000   -5.113000    0.040000
  C     -4.324000    0.141000    0.037000
  C     -3.025000   -0.520000   -0.048000
  C     -4.422000   -3.566000    1.075000
  N     -6.407000   -4.313000    0.001000
  C     -2.867000   -1.922000   -0.040000
  C     -1.650000   -2.624000   -0.027000
  C      3.568000   -6.142000   -1.040000
  C     -1.476000   -4.049000   -0.034000
  C      2.803000   -4.099000   -0.008000
  C      3.657000   -4.384000    1.069000
  C      4.427000   -5.530000    1.059000
  C      5.245000   -7.588000    0.014000
  C     -0.134000   -4.315000   -0.022000
  C      0.568000   -3.064000   -0.027000
  C      2.775000   -5.012000   -1.074000
  N      4.376000   -6.391000    0.017000
  C      1.959000   -2.869000   -0.009000
  C      2.621000   -1.622000    0.009000
  C      5.543000    4.339000   -1.130000
  C      4.070000   -1.479000   -0.094000
  C      4.104000    2.751000   -0.021000
  C      5.027000    2.729000    1.036000
  C      6.166000    3.509000    0.978000
  C      7.619000    5.153000   -0.115000
  C      4.321000   -0.148000   -0.092000
  C      3.025000    0.514000    0.015000
  C      4.387000    3.582000   -1.115000
  C      2.866000    1.916000    0.013000
  N      6.413000    4.296000   -0.095000
  H     -5.393000    5.584000    1.696000
  H      2.274000    4.766000    0.081000
  H     -1.828000    5.050000   -1.639000
  H     -3.275000    7.073000   -1.546000
  H     -4.655000    8.374000    0.707000
  H     -5.312000    7.986000   -0.911000
  H     -6.148000    7.401000    0.555000
  H     -0.332000    5.282000    0.069000
  H     -4.031000    3.502000    1.739000
  H      0.182000    1.072000    0.005000
  H     -0.183000   -1.080000   -0.021000
  H     -5.864000   -4.962000    1.895000
  H     -4.794000    2.272000    0.139000
  H     -4.800000   -2.160000   -1.994000
  H     -6.841000   -3.582000   -1.893000
  H     -8.428000   -4.536000    0.546000
  H     -7.956000   -5.337000   -0.981000
  H     -7.456000   -6.037000    0.584000
  H     -5.287000   -0.344000    0.100000
  H     -3.780000   -3.601000    1.947000
  H      3.587000   -6.868000   -1.843000
  H     -2.276000   -4.774000   -0.050000
  H      3.714000   -3.724000    1.926000
  H      5.092000   -5.795000    1.871000
  H      6.205000   -7.329000   -0.439000
  H      5.393000   -7.917000    1.042000
  H      4.759000   -8.373000   -0.564000
  H      0.329000   -5.290000   -0.008000
  H      2.146000   -4.842000   -1.940000
  H      5.808000    4.986000   -1.956000
  H      4.788000   -2.281000   -0.185000
  H      4.860000    2.114000    1.912000
  H      6.901000    3.531000    1.772000
  H      7.383000    6.109000    0.356000
  H      8.414000    4.652000    0.435000
  H      7.921000    5.310000   -1.150000
  H      5.283000    0.336000   -0.179000
  H      3.720000    3.632000   -1.967000

----------------------------
CARTESIAN COORDINATES (A.U.)
----------------------------
  NO LB      ZA    FRAG     MASS         X           Y           Z
   0 C     6.0000    0    12.011   -8.673843   10.229088    1.870829
   1 C     6.0000    0    12.011    2.785456    7.636383    0.107714
   2 C     6.0000    0    12.011   -5.295013    7.734649    0.092597
   3 C     6.0000    0    12.011   -4.920847    9.677288   -1.674297
   4 C     6.0000    0    12.011   -6.417510   11.812678   -1.610047
   5 C     6.0000    0    12.011   -9.786892   14.409162    0.204090
   6 C     6.0000    0    12.011    0.249444    8.139050    0.115273
   7 C     6.0000    0    12.011   -1.075254    5.775003    0.088817
   8 C     6.0000    0    12.011    3.116158    4.947303    0.043464
   9 C     6.0000    0    12.011   -7.218754    8.061572    1.889726
  10 N     7.0000    0    14.007   -8.265662   12.065901    0.139840
  11 N     7.0000    0    14.007    0.733214    3.906064    0.047243
  12 N     7.0000    0    14.007   -3.798350    0.746442   -0.141729
  13 N     7.0000    0    14.007   -0.733214   -3.919292   -0.051023
  14 N     7.0000    0    14.007    3.798350   -0.757780    0.122832
  15 C     6.0000    0    12.011   -3.703863    5.406506    0.045353
  16 C     6.0000    0    12.011   -4.956752    3.051908   -0.034015
  17 C     6.0000    0    12.011  -10.531444   -8.180624    2.014448
  18 C     6.0000    0    12.011   -7.696855    2.779787    0.105825
  19 C     6.0000    0    12.011   -7.759216   -5.208085   -0.049133
  20 C     6.0000    0    12.011   -9.439182   -5.209975   -2.099486
  21 C     6.0000    0    12.011  -11.587801   -6.693410   -2.033345
  22 C     6.0000    0    12.011  -14.458295   -9.662170    0.075589
  23 C     6.0000    0    12.011   -8.171176    0.266451    0.069920
  24 C     6.0000    0    12.011   -5.716422   -0.982658   -0.090707
  25 C     6.0000    0    12.011   -8.356369   -6.738763    2.031456
  26 N     7.0000    0    14.007  -12.107475   -8.150389    0.001890
  27 C     6.0000    0    12.011   -5.417845   -3.632054   -0.075589
  28 C     6.0000    0    12.011   -3.118048   -4.958641   -0.051023
  29 C     6.0000    0    12.011    6.742543  -11.606698   -1.965315
  30 C     6.0000    0    12.011   -2.789236   -7.651501   -0.064251
  31 C     6.0000    0    12.011    5.296902   -7.745987   -0.015118
  32 C     6.0000    0    12.011    6.910728   -8.284559    2.020117
  33 C     6.0000    0    12.011    8.365818  -10.450186    2.001220
  34 C     6.0000    0    12.011    9.911614  -14.339242    0.026456
  35 C     6.0000    0    12.011   -0.253223   -8.154168   -0.041574
  36 C     6.0000    0    12.011    1.073364   -5.790121   -0.051023
  37 C     6.0000    0    12.011    5.243990   -9.471307   -2.029566
  38 N     7.0000    0    14.007    8.269442  -12.077240    0.032125
  39 C     6.0000    0    12.011    3.701973   -5.421624   -0.017008
  40 C     6.0000    0    12.011    4.952972   -3.065136    0.017008
  41 C     6.0000    0    12.011   10.474752    8.199522   -2.135391
  42 C     6.0000    0    12.011    7.691185   -2.794905   -0.177634
  43 C     6.0000    0    12.011    7.755436    5.198637   -0.039684
  44 C     6.0000    0    12.011    9.499653    5.157063    1.957756
  45 C     6.0000    0    12.011   11.652051    6.631049    1.848152
  46 C     6.0000    0    12.011   14.397823    9.737759   -0.217319
  47 C     6.0000    0    12.011    8.165507   -0.279679   -0.173855
  48 C     6.0000    0    12.011    5.716422    0.971319    0.028346
  49 C     6.0000    0    12.011    8.290229    6.768999   -2.107045
  50 C     6.0000    0    12.011    5.415955    3.620715    0.024566
  51 N     7.0000    0    14.007   12.118814    8.118263   -0.179524
  52 H     1.0000    0     1.008  -10.191293   10.552231    3.204976
  53 H     1.0000    0     1.008    4.297237    9.006435    0.153068
  54 H     1.0000    0     1.008   -3.454419    9.543117   -3.097261
  55 H     1.0000    0     1.008   -6.188853   13.366033   -2.921517
  56 H     1.0000    0     1.008   -8.796675   15.824567    1.336036
  57 H     1.0000    0     1.008  -10.038225   15.091353   -1.721541
  58 H     1.0000    0     1.008  -11.618036   13.985863    1.048798
  59 H     1.0000    0     1.008   -0.627389    9.981533    0.130391
  60 H     1.0000    0     1.008   -7.617486    6.617821    3.286234
  61 H     1.0000    0     1.008    0.343930    2.025786    0.009449
  62 H     1.0000    0     1.008   -0.345820   -2.040904   -0.039684
  63 H     1.0000    0     1.008  -11.081354   -9.376821    3.581031
  64 H     1.0000    0     1.008   -9.059347    4.293458    0.262672
  65 H     1.0000    0     1.008   -9.070685   -4.081808   -3.768114
  66 H     1.0000    0     1.008  -12.927616   -6.768999   -3.577252
  67 H     1.0000    0     1.008  -15.926612   -8.571798    1.031790
  68 H     1.0000    0     1.008  -15.034661  -10.085468   -1.853821
  69 H     1.0000    0     1.008  -14.089798  -11.408277    1.103600
  70 H     1.0000    0     1.008   -9.990982   -0.650066    0.188973
  71 H     1.0000    0     1.008   -7.143165   -6.804904    3.679297
  72 H     1.0000    0     1.008    6.778448  -12.978639   -3.482765
  73 H     1.0000    0     1.008   -4.301017   -9.021553   -0.094486
  74 H     1.0000    0     1.008    7.018443   -7.037340    3.639613
  75 H     1.0000    0     1.008    9.622485  -10.950963    3.535678
  76 H     1.0000    0     1.008   11.725751  -13.849803   -0.829590
  77 H     1.0000    0     1.008   10.191293  -14.960962    1.969095
  78 H     1.0000    0     1.008    8.993207  -15.822677   -1.065806
  79 H     1.0000    0     1.008    0.621720   -9.996651   -0.015118
  80 H     1.0000    0     1.008    4.055352   -9.150054   -3.666069
  81 H     1.0000    0     1.008   10.975529    9.422175   -3.696304
  82 H     1.0000    0     1.008    9.048009   -4.310465   -0.349599
  83 H     1.0000    0     1.008    9.184069    3.994881    3.613156
  84 H     1.0000    0     1.008   13.041000    6.672623    3.348595
  85 H     1.0000    0     1.008   13.951848   11.544337    0.672743
  86 H     1.0000    0     1.008   15.900156    8.791006    0.822031
  87 H     1.0000    0     1.008   14.968521   10.034446   -2.173185
  88 H     1.0000    0     1.008    9.983423    0.634948   -0.338261
  89 H     1.0000    0     1.008    7.029781    6.863485   -3.717091

--------------------------------
INTERNAL COORDINATES (ANGSTROEM)
--------------------------------
 C      0   0   0     0.000000000000     0.00000000     0.00000000
 C      1   0   0     6.286888658152     0.00000000     0.00000000
 C      1   2   0     2.413467422610    26.89998446     0.00000000
 C      3   1   2     1.403642760819    87.91751536   283.75356543
 C      4   3   1     1.380333293085   120.14648184     0.08970173
 C      5   4   3     2.447154469992   152.54308561     1.77256560
 C      2   1   3     1.368114030335     8.50594853    44.40638427
 C      7   2   3     1.434084376876   108.05010202     0.84668783
 C      2   1   3     1.434123425651   109.74029080   323.23025411
 C      1   2   7     1.381524158312    44.13452920    89.05755913
 N      1   2   7     1.352958240302    84.39432931   301.86254429
 N      9   2   1     1.376127174356   106.58526707     8.08922357
 N     12   9   2     2.925062050624   168.53581413   171.12065651
 N     13  12   9     2.954513327098    91.55032014    11.12112580
 N     14  13  12     2.925371258490    88.43092389   359.84326247
 C      8   7   2     1.404790019896   127.24786865   181.11170171
 C     13  12   9     1.366535034311    81.72106996   188.00453233
 C     14  13  12     5.758810554272    80.56209567   166.76250791
 C     17  13  12     1.459010623676   111.08861209   183.82872609
 C     18  14  13     2.412235892279    27.27532823    36.33507194
 C     20  18  14     1.402692767501    87.95206320   148.94598259
 C     21  20  18     1.382106725257   120.14573887   359.70382047
 C     18  14  13     2.446510985056   144.15733107    82.80075377
 C     19  17  13     1.353610726908   106.29293361   359.75308708
 C     13  12   9     1.366813447402   172.21332906    33.46711076
 C     18  14  13     1.380960173213    15.08449437   309.23336894
 N     22  21  20     1.352773077792   120.73759875     0.27865223
 C     25  13  17     1.410897586645   125.60330303   182.37774668
 C     14  13  12     1.376642291955    80.24689249   177.85461986
 C     14  13  12     5.764089607215   164.51507311   312.20821879
 C     29  14  13     1.435600919476   106.58649366   178.76395472
 C     30  14  13     2.413316804732    27.10625047    82.12560436
 C     32  30  14     1.403734305344    87.90059683   149.76154742
 C     33  32  30     1.380694028378   120.14881443   359.74174632
 C     34  33  32     2.448777858443   152.49203239     2.45173620
 C     31  29  14     1.368160809262   108.16950133     0.70383075
 C     14  13  12     1.376239804685   169.26375223   353.09862627
 C     30  14  13     1.380907310430    14.68948582   353.70041132
 N     34  33  32     1.352658863128   120.85575621     0.19603406
 C     37  14  29     1.404717053360   126.01551127   180.90772073
 C     15  14  13     1.366491126938    81.61824056   183.09049352
 C      2   1   3     4.249062720177   161.77298077   118.27781607
 C     41  15  14     1.459677704153   111.05201287   175.08990246
 C     42   2   1     2.412953791518    41.78584867   179.78718243
 C     44  42   2     1.403446472082    87.95153797   233.97558675
 C     45  44  42     1.381696421071   120.11137308     0.19721020
 C     42   2   1     2.450019795838   135.97209175    90.10203153
 C     43  41  15     1.354461516618   106.26758155     0.30894352
 C     15  14  13     1.367461151185   171.87382904   332.35056460
 C     42   2   1     1.381886391857    32.59078432   228.64246162
 C      9   2   1     1.404988612053   126.98745415   189.09356110
 N     42   2   1     1.352765315936   113.57249190   117.83862073
 H      1   2   7     1.082813926767   147.83501976   168.51428028
 H      2   1   3     1.079907866440   124.38363522   152.32152156
 H      4   3   1     1.083617091043   121.05874279   179.59766462
 H      5   4   3     1.082571475700   122.79782428   179.43885720
 H      6   5   4     1.092876022246   104.50550101    99.95772596
 H      6   5   4     1.089206591974    84.72423868   209.41598039
 H      6   5   4     1.090388004336   133.86525454   322.31762872
 H      7   2  54     1.079807853278   126.66122480     1.30600390
 H     10   1   2     1.083668768582   118.79945623   142.00738567
 H     12   9   2     1.016297692608   125.29023241   180.00180175
 H     14  13  12     1.014936943854    44.97226959   359.42596618
 H     18  14  13     1.082871645210   128.03556573   234.20482432
 H     19  17  13     1.080893611786   126.41830519   178.11313280
 H     21  20  18     1.083569563987   121.05669627   180.67006309
 H     22  21  20     1.082483256222   122.73097286   180.59748951
 H     23  18  14     1.092105306278   103.92715769   234.93429879
 H     23  18  14     1.088871893291   134.19244188    12.25587044
 H     23  18  14     1.089833473518    84.85857450   125.45241208
 H     24  19  17     1.080075460327   127.28078426   178.44613241
 H     26  18  14     1.083408048706   118.76995697   244.94906660
 H     30  14  13     1.082703098730   127.99711412   279.66882698
 H     31  29  14     1.079759695488   125.22293469   180.92530585
 H     33  32  30     1.083188810873   121.01964473   180.74284758
 H     34  33  32     1.082494341787   122.70821597   180.59516895
 H     35  34  33     1.092652735319   105.73575241    97.19771933
 H     35  34  33     1.089462711615    84.05943581   206.43036958
 H     35  34  33     1.089268102902   133.08365142   318.50306270
 H     36  31  29     1.079439669458   126.61599965   178.98859863
 H     38  30  73     1.083742127999   118.77264435   359.90091293
 H     42   2   1     1.082178358682   119.31790784   334.47015118
 H     43  41  15     1.080281907652   126.36969097   182.06329380
 H     45  44  42     1.083277434455   121.10105945   179.58025624
 H     46  45  44     1.082194529648   122.72144639   179.46906377
 H     47  42   2     1.091546151109   106.65128841   315.16475048
 H     47  42   2     1.088818625851   132.46019523    94.52397119
 H     47  42   2     1.089531091801    83.63838232   206.04504406
 H     48  43  41     1.080402239909   127.23657387   181.62955349
 H     50  42   2     1.083186502870   118.77001737    94.71359229

---------------------------
INTERNAL COORDINATES (A.U.)
---------------------------
 C      0   0   0     0.000000000000     0.00000000     0.00000000
 C      1   0   0    11.880497798363     0.00000000     0.00000000
 C      1   2   0     4.560792461874    26.89998446     0.00000000
 C      3   1   2     2.652500407809    87.91751536   283.75356543
 C      4   3   1     2.608451897465   120.14648184     0.08970173
 C      5   4   3     4.624451755685   152.54308561     1.77256560
 C      2   1   3     2.585360837309     8.50594853    44.40638427
 C      7   2   3     2.710026725231   108.05010202     0.84668783
 C      2   1   3     2.710100516721   109.74029080   323.23025411
 C      1   2   7     2.610702306606    44.13452920    89.05755913
 N      1   2   7     2.556720544802    84.39432931   301.86254429
 N      9   2   1     2.600503484979   106.58526707     8.08922357
 N     12   9   2     5.527566200405   168.53581413   171.12065651
 N     13  12   9     5.583221047236    91.55032014    11.12112580
 N     14  13  12     5.528150518591    88.43092389   359.84326247
 C      8   7   2     2.654668413270   127.24786865   181.11170171
 C     13  12   9     2.582376967257    81.72106996   188.00453233
 C     14  13  12    10.882574804710    80.56209567   166.76250791
 C     17  13  12     2.757130505230   111.08861209   183.82872609
 C     18  14  13     4.558465206823    27.27532823    36.33507194
 C     20  18  14     2.650705180609    87.95206320   148.94598259
 C     21  20  18     2.611803198586   120.14573887   359.70382047
 C     18  14  13     4.623235745386   144.15733107    82.80075377
 C     19  17  13     2.557953565794   106.29293361   359.75308708
 C     13  12   9     2.582903091751   172.21332906    33.46711076
 C     18  14  13     2.609636529225    15.08449437   309.23336894
 N     22  21  20     2.556370638369   120.73759875     0.27865223
 C     25  13  17     2.666210041769   125.60330303   182.37774668
 C     14  13  12     2.601476916169    80.24689249   177.85461986
 C     14  13  12    10.892550769017   164.51507311   312.20821879
 C     29  14  13     2.712892575415   106.58649366   178.76395472
 C     30  14  13     4.560507835333    27.10625047    82.12560436
 C     32  30  14     2.652673401891    87.90059683   149.76154742
 C     33  32  30     2.609133588376   120.14881443   359.74174632
 C     34  33  32     4.627519515267   152.49203239     2.45173620
 C     31  29  14     2.585449236669   108.16950133     0.70383075
 C     14  13  12     2.600716325456   169.26375223   353.09862627
 C     30  14  13     2.609536633043    14.68948582   353.70041132
 N     34  33  32     2.556154803934   120.85575621     0.19603406
 C     37  14  29     2.654530526499   126.01551127   180.90772073
 C     15  14  13     2.582293994346    81.61824056   183.09049352
 C      2   1   3     8.029564866989   161.77298077   118.27781607
 C     41  15  14     2.758391104639   111.05201287   175.08990246
 C     42   2   1     4.559821839776    41.78584867   179.78718243
 C     44  42   2     2.652129475853    87.95153797   233.97558675
 C     45  44  42     2.611027836043   120.11137308     0.19721020
 C     42   2   1     4.629866436820   135.97209175    90.10203153
 C     43  41  15     2.559561325344   106.26758155     0.30894352
 C     15  14  13     2.584127074516   171.87382904   332.35056460
 C     42   2   1     2.611386828803    32.59078432   228.64246162
 C      9   2   1     2.655043698059   126.98745415   189.09356110
 N     42   2   1     2.556355970587   113.57249190   117.83862073
 H      1   2   7     2.046221775585   147.83501976   168.51428028
 H      2   1   3     2.040730117440   124.38363522   152.32152156
 H      4   3   1     2.047739536107   121.05874279   179.59766462
 H      5   4   3     2.045763609469   122.79782428   179.43885720
 H      6   5   4     2.065236380374   104.50550101    99.95772596
 H      6   5   4     2.058302162093    84.72423868   209.41598039
 H      6   5   4     2.060534707908   133.86525454   322.31762872
 H      7   2  54     2.040541119952   126.66122480     1.30600390
 H     10   1   2     2.047837192504   118.79945623   142.00738567
 H     12   9   2     1.920524309565   125.29023241   180.00180175
 H     14  13  12     1.917952867083    44.97226959   359.42596618
 H     18  14  13     2.046330847636   128.03556573   234.20482432
 H     19  17  13     2.042592906181   126.41830519   178.11313280
 H     21  20  18     2.047649722989   121.05669627   180.67006309
 H     22  21  20     2.045596898814   122.73097286   180.59748951
 H     23  18  14     2.063779938267   103.92715769   234.93429879
 H     23  18  14     2.057669673245   134.19244188    12.25587044
 H     23  18  14     2.059486796529    84.85857450   125.45241208
 H     24  19  17     2.041046823986   127.28078426   178.44613241
 H     26  18  14     2.047344503340   118.76995697   244.94906660
 H     30  14  13     2.046012340948   127.99711412   279.66882698
 H     31  29  14     2.040450114918   125.22293469   180.92530585
 H     33  32  30     2.046930203877   121.01964473   180.74284758
 H     34  33  32     2.045617847496   122.70821597   180.59516895
 H     35  34  33     2.064814429233   105.73575241    97.19771933
 H     35  34  33     2.058786158072    84.05943581   206.43036958
 H     35  34  33     2.058418400901   133.08365142   318.50306270
 H     36  31  29     2.039845353366   126.61599965   178.98859863
 H     38  30  73     2.047975821711   118.77264435   359.90091293
 H     42   2   1     2.045020725966   119.31790784   334.47015118
 H     43  41  15     2.041436952892   126.36969097   182.06329380
 H     45  44  42     2.047097678177   121.10105945   179.58025624
 H     46  45  44     2.045051284662   122.72144639   179.46906377
 H     47  42   2     2.062723288131   106.65128841   315.16475048
 H     47  42   2     2.057569012371   132.46019523    94.52397119
 H     47  42   2     2.058915377895    83.63838232   206.04504406
 H     48  43  41     2.041664347903   127.23657387   181.62955349
 H     50  42   2     2.046925842384   118.77001737    94.71359229

---------------------
BASIS SET INFORMATION
---------------------
There are 3 groups of distinct atoms

 Group   1 Type C   : 17s4p1d contracted to 3s2p1d pattern {881/31/1}
 Group   2 Type N   : 17s4p1d contracted to 3s2p1d pattern {881/31/1}
 Group   3 Type H   : 4s1p contracted to 2s1p pattern {31/1}

Atom   0C    basis set group =>   1
Atom   1N    basis set group =>   2
Atom   2C    basis set group =>   1
Atom   3N    basis set group =>   2
Atom   4C    basis set group =>   1
Atom   5N    basis set group =>   2
Atom   6C    basis set group =>   1
Atom   7N    basis set group =>   2
Atom   8C    basis set group =>   1
Atom   9N    basis set group =>   2
Atom  10C    basis set group =>   1
Atom  11N    basis set group =>   2
Atom  12C    basis set group =>   1
Atom  13N    basis set group =>   2
Atom  14C    basis set group =>   1
Atom  15N    basis set group =>   2
Atom  16C    basis set group =>   1
Atom  17C    basis set group =>   1
Atom  18C    basis set group =>   1
Atom  19C    basis set group =>   1
Atom  20C    basis set group =>   1
Atom  21C    basis set group =>   1
Atom  22C    basis set group =>   1
Atom  23C    basis set group =>   1
Atom  24C    basis set group =>   1
Atom  25C    basis set group =>   1
Atom  26C    basis set group =>   1
Atom  27C    basis set group =>   1
Atom  28C    basis set group =>   1
Atom  29C    basis set group =>   1
Atom  30C    basis set group =>   1
Atom  31C    basis set group =>   1
Atom  32C    basis set group =>   1
Atom  33C    basis set group =>   1
Atom  34C    basis set group =>   1
Atom  35C    basis set group =>   1
Atom  36C    basis set group =>   1
Atom  37C    basis set group =>   1
Atom  38C    basis set group =>   1
Atom  39C    basis set group =>   1
Atom  40C    basis set group =>   1
Atom  41C    basis set group =>   1
Atom  42C    basis set group =>   1
Atom  43C    basis set group =>   1
Atom  44C    basis set group =>   1
Atom  45C    basis set group =>   1
Atom  46C    basis set group =>   1
Atom  47C    basis set group =>   1
Atom  48C    basis set group =>   1
Atom  49C    basis set group =>   1
Atom  50C    basis set group =>   1
Atom  51C    basis set group =>   1
Atom  52H    basis set group =>   3
Atom  53H    basis set group =>   3
Atom  54H    basis set group =>   3
Atom  55H    basis set group =>   3
Atom  56H    basis set group =>   3
Atom  57H    basis set group =>   3
Atom  58H    basis set group =>   3
Atom  59H    basis set group =>   3
Atom  60H    basis set group =>   3
Atom  61H    basis set group =>   3
Atom  62H    basis set group =>   3
Atom  63H    basis set group =>   3
Atom  64H    basis set group =>   3
Atom  65H    basis set group =>   3
Atom  66H    basis set group =>   3
Atom  67H    basis set group =>   3
Atom  68H    basis set group =>   3
Atom  69H    basis set group =>   3
Atom  70H    basis set group =>   3
Atom  71H    basis set group =>   3
Atom  72H    basis set group =>   3
Atom  73H    basis set group =>   3
Atom  74H    basis set group =>   3
Atom  75H    basis set group =>   3
Atom  76H    basis set group =>   3
Atom  77H    basis set group =>   3
Atom  78H    basis set group =>   3
Atom  79H    basis set group =>   3
Atom  80H    basis set group =>   3
Atom  81H    basis set group =>   3
Atom  82H    basis set group =>   3
Atom  83H    basis set group =>   3
Atom  84H    basis set group =>   3
Atom  85H    basis set group =>   3
Atom  86H    basis set group =>   3
Atom  87H    basis set group =>   3
Atom  88H    basis set group =>   3
Atom  89H    basis set group =>   3


           ************************************************************
           *        Program running with 16 parallel MPI-processes    *
           *              working on a common directory               *
           ************************************************************
------------------------------------------------------------------------------
                           ORCA GTO INTEGRAL CALCULATION
------------------------------------------------------------------------------
------------------------------------------------------------------------------
                   ___                                                        
                  /   \      - P O W E R E D   B Y -                         
                 /     \                                                     
                 |  |  |   _    _      __       _____    __    __             
                 |  |  |  | |  | |    /  \     |  _  \  |  |  /  |          
                  \  \/   | |  | |   /    \    | | | |  |  | /  /          
                 / \  \   | |__| |  /  /\  \   | |_| |  |  |/  /          
                |  |  |   |  __  | /  /__\  \  |    /   |      \           
                |  |  |   | |  | | |   __   |  |    \   |  |\   \          
                \     /   | |  | | |  |  |  |  | |\  \  |  | \   \       
                 \___/    |_|  |_| |__|  |__|  |_| \__\ |__|  \__/        
                                                                              
                      - O R C A' S   B I G   F R I E N D -                    
                                      &                                       
                       - I N T E G R A L  F E E D E R -                       
                                                                              
 v1 FN, 2020, v2 2021                                                         
------------------------------------------------------------------------------


Reading SHARK input file /scratch/allen/tmpyp4_amber_gaff2/conf1/conf1/Conf234.orca.SHARKINP.tmp ... ok
----------------------
SHARK INTEGRAL PACKAGE
----------------------

Number of atoms                             ...     90
Number of basis functions                   ...   1230
Number of shells                            ...    738
Maximum angular momentum                    ...      2
Integral batch strategy                     ... SHARK/LIBINT Hybrid
RI-J (if used) integral strategy            ... SPLIT-RIJ (Revised 2003 algorithm where possible)
Printlevel                                  ...      1
Contraction scheme used                     ... PARTIAL GENERAL contraction
Coulomb Range Separation                    ... NOT USED
Exchange Range Separation                   ... NOT USED
Finite Nucleus Model                        ... NOT USED
Auxiliary Coulomb fitting basis             ... NOT available
Auxiliary J/K fitting basis                 ... NOT available
Auxiliary Correlation fitting basis         ... NOT available
Auxiliary 'external' fitting basis          ... NOT available
Integral threshold                          ...     2.500000e-11
Primitive cut-off                           ...     2.500000e-12
Primitive pair pre-selection threshold      ...     2.500000e-12

Calculating pre-screening integrals         ... done (  0.1 sec) Dimension = 738
Calculating pre-screening integrals (ORCA)  ... done (  0.3 sec) Dimension = 426
Organizing shell pair data                  ... done (  0.7 sec)
Shell pair information
Total number of shell pairs                 ...    272691
Shell pairs after pre-screening             ...     71614
Total number of primitive shell pairs       ...    422091
Primitive shell pairs kept                  ...     92389
          la=0 lb=0:  29418 shell pairs
          la=1 lb=0:  25969 shell pairs
          la=1 lb=1:   4702 shell pairs
          la=2 lb=0:   7870 shell pairs
          la=2 lb=1:   3124 shell pairs
          la=2 lb=2:    531 shell pairs

Calculating one electron integrals          ... done (  0.2 sec)
Calculating Nuclear repulsion               ... done (  0.0 sec) ENN=   6226.371969483657 Eh

SHARK setup successfully completed in   2.4 seconds

Maximum memory used throughout the entire GTOINT-calculation: 98.9 MB


           ************************************************************
           *        Program running with 16 parallel MPI-processes    *
           *              working on a common directory               *
           ************************************************************
-------------------------------------------------------------------------------
                                 ORCA SCF
-------------------------------------------------------------------------------

------------
SCF SETTINGS
------------
Hamiltonian:
 Ab initio Hamiltonian  Method          .... Hartree-Fock(GTOs)


General Settings:
 Integral files         IntName         .... /scratch/allen/tmpyp4_amber_gaff2/conf1/conf1/Conf234.orca
 Hartree-Fock type      HFTyp           .... RHF
 Total Charge           Charge          ....    0
 Multiplicity           Mult            ....    1
 Number of Electrons    NEL             ....  358
 Basis Dimension        Dim             ....  918
 Nuclear Repulsion      ENuc            ....   6226.3719694837 Eh

Convergence Acceleration:
 DIIS                   CNVDIIS         .... on
   Start iteration      DIISMaxIt       ....    12
   Startup error        DIISStart       ....  0.200000
   # of expansion vecs  DIISMaxEq       ....     5
   Bias factor          DIISBfac        ....   1.050
   Max. coefficient     DIISMaxC        ....  10.000
 Trust-Rad. Augm. Hess. CNVTRAH         .... auto
   Auto Start mean grad. ratio tolernc. ....  1.125000
   Auto Start start iteration           ....    20
   Auto Start num. interpolation iter.  ....    10
   Max. Number of Micro iterations      ....    16
   Max. Number of Macro iterations      .... Maxiter - #DIIS iter
   Number of Davidson start vectors     ....     2
   Converg. threshold I  (grad. norm)   ....   1.000e-05
   Converg. threshold II (energy diff.) ....   1.000e-08
   Grad. Scal. Fac. for Micro threshold ....   0.100
   Minimum threshold for Micro iter.    ....   0.010
   NR start threshold (gradient norm)   ....   0.001
   Initial trust radius                 ....   0.400
   Minimum AH scaling param. (alpha)    ....   1.000
   Maximum AH scaling param. (alpha)    .... 1000.000
   Orbital update algorithm             .... Taylor
   White noise on init. David. guess    .... on
   Maximum white noise                  ....   0.010
   Quad. conv. algorithm                .... NR
 SOSCF                  CNVSOSCF        .... on
   Start iteration      SOSCFMaxIt      ....   150
   Startup grad/error   SOSCFStart      ....  0.003300
 Level Shifting         CNVShift        .... on
   Level shift para.    LevelShift      ....    0.2500
   Turn off err/grad.   ShiftErr        ....    0.0010
 Zerner damping         CNVZerner       .... off
 Static damping         CNVDamp         .... on
   Fraction old density DampFac         ....    0.7000
   Max. Damping (<1)    DampMax         ....    0.9800
   Min. Damping (>=0)   DampMin         ....    0.0000
   Turn off err/grad.   DampErr         ....    0.1000
 Fernandez-Rico         CNVRico         .... off

SCF Procedure:
 Maximum # iterations   MaxIter         ....   125
 SCF integral mode      SCFMode         .... Direct
   Integral package                     .... SHARK and LIBINT hybrid scheme
 Reset frequency        DirectResetFreq ....    20
 Integral Threshold     Thresh          ....  2.500e-11 Eh
 Primitive CutOff       TCut            ....  2.500e-12 Eh

Convergence Tolerance:
 Convergence Check Mode ConvCheckMode   .... Total+1el-Energy
 Convergence forced     ConvForced      .... 1
 Energy Change          TolE            ....  1.000e-08 Eh
 1-El. energy change                    ....  1.000e-05 Eh
 Orbital Gradient       TolG            ....  1.000e-05
 Orbital Rotation angle TolX            ....  1.000e-05
 DIIS Error             TolErr          ....  5.000e-07


Diagonalization of the overlap matrix:
Smallest eigenvalue                        ... 2.243e-04
Time for diagonalization                   ...    0.436 sec
Threshold for overlap eigenvalues          ... 1.000e-08
Number of eigenvalues below threshold      ... 0
Time for construction of square roots      ...    0.267 sec
Total time needed                          ...    0.710 sec

Time for model grid setup =    1.310 sec

------------------------------
INITIAL GUESS: MODEL POTENTIAL
------------------------------
Loading Hartree-Fock densities                     ... done
Calculating cut-offs                               ... done
Initializing the effective Hamiltonian             ... done
Setting up the integral package (SHARK)            ... done
Starting the Coulomb interaction                   ... done (   1.4 sec)
Reading the grid                                   ... done
Mapping shells                                     ... done
Starting the XC term evaluation                    ... done (   0.2 sec)
Transforming the Hamiltonian                       ... done (   0.3 sec)
Diagonalizing the Hamiltonian                      ... done (   0.4 sec)
Back transforming the eigenvectors                 ... done (   0.1 sec)
Now organizing SCF variables                       ... done
                      ------------------
                      INITIAL GUESS DONE (   3.8 sec)
                      ------------------
--------------
SCF ITERATIONS
--------------
ITER       Energy         Delta-E        Max-DP      RMS-DP      [F,P]     Damp
               ***  Starting incremental Fock matrix formation  ***
  0  -2121.6771225347   0.000000000000 0.06894725  0.00121151  0.2329055 0.7000
  1  -2122.3408825773  -0.663760042557 0.05229370  0.00098397  0.1441207 0.7000
                               ***Turning on DIIS***
  2  -2122.7530972444  -0.412214667065 0.11607172  0.00222927  0.0802450 0.0000
  3  -2117.7581639116   4.994933332760 0.03058104  0.00068348  0.0442150 0.0000
  4  -2123.4146909808  -5.656527069232 0.00914032  0.00022888  0.0070134 0.0000
  5  -2123.5919467035  -0.177255722681 0.00519205  0.00013543  0.0049229 0.0000
  6  -2123.5751341897   0.016812513795 0.00341967  0.00008776  0.0019650 0.0000
  7  -2123.6797030763  -0.104568886556 0.00288400  0.00006929  0.0015093 0.0000
  8  -2123.6973807429  -0.017677666623 0.00286119  0.00006508  0.0014083 0.0000
  9  -2123.6619640976   0.035416645285 0.00229180  0.00004433  0.0011141 0.0000
 10  -2123.6758773490  -0.013913251367 0.00470050  0.00008732  0.0008505 0.0000
                      *** Initiating the SOSCF procedure ***
                           *** Shutting down DIIS ***
                      *** Re-Reading the Fockian *** 
                      *** Removing any level shift *** 
ITER      Energy       Delta-E        Grad      Rot      Max-DP    RMS-DP
 11  -2123.55885312   0.1170242241  0.000313  0.000313  0.000287  0.000006
               *** Restarting incremental Fock matrix formation ***
 12  -2123.62429793  -0.0654448085  0.000957  0.006484  0.001124  0.000027
 13  -2123.62436506  -0.0000671290  0.001020  0.026696  0.004469  0.000092
 14  -2123.62445217  -0.0000871034  0.000451  0.002325  0.000538  0.000011
 15  -2123.62446412  -0.0000119533  0.000148  0.002163  0.000688  0.000011
 16  -2123.62446937  -0.0000052488  0.000109  0.003426  0.000713  0.000014
 17  -2123.62447292  -0.0000035533  0.000119  0.002907  0.000511  0.000010
 18  -2123.62447469  -0.0000017667  0.000061  0.001613  0.000246  0.000006
 19  -2123.62447576  -0.0000010692  0.000061  0.000744  0.000184  0.000004
 20  -2123.62447615  -0.0000003921  0.000031  0.000585  0.000135  0.000002
 21  -2123.62447629  -0.0000001389  0.000027  0.000258  0.000059  0.000001
 22  -2123.62447638  -0.0000000931  0.000018  0.000396  0.000098  0.000002
 23  -2123.62447645  -0.0000000713  0.000011  0.000204  0.000055  0.000001
 24  -2123.62447647  -0.0000000203  0.000005  0.000134  0.000034  0.000001
 25  -2123.62447649  -0.0000000144  0.000005  0.000079  0.000023  0.000000
 26  -2123.62447650  -0.0000000097  0.000003  0.000058  0.000017  0.000000
                  ***Gradient check signals convergence***
              ***Rediagonalizing the Fockian in SOSCF/NRSCF***

               *****************************************************
               *                     SUCCESS                       *
               *           SCF CONVERGED AFTER  27 CYCLES          *
               *****************************************************


----------------
TOTAL SCF ENERGY
----------------

Total Energy       :        -2123.62447650 Eh          -57786.75983 eV

Components:
Nuclear Repulsion  :         6226.37196948 Eh          169428.19485 eV
Electronic Energy  :        -8349.99644598 Eh         -227214.95468 eV
One Electron Energy:       -15293.79588066 Eh         -416165.34335 eV
Two Electron Energy:         6943.79943468 Eh          188950.38867 eV

Virial components:
Potential Energy   :        -4245.64499217 Eh         -115529.87366 eV
Kinetic Energy     :         2122.02051567 Eh           57743.11383 eV
Virial Ratio       :            2.00075586


---------------
SCF CONVERGENCE
---------------

  Last Energy change         ...   -1.7189e-09  Tolerance :   1.0000e-08
  Last MAX-Density change    ...    1.6814e-05  Tolerance :   1.0000e-07
  Last RMS-Density change    ...    2.5589e-07  Tolerance :   5.0000e-09
  Last Orbital Gradient      ...    2.3022e-06  Tolerance :   1.0000e-05
  Last Orbital Rotation      ...    6.6941e-05  Tolerance :   1.0000e-05

             **** THE GBW FILE WAS UPDATED (/scratch/allen/tmpyp4_amber_gaff2/conf1/conf1/Conf234.orca.gbw) ****
             **** DENSITY /scratch/allen/tmpyp4_amber_gaff2/conf1/conf1/Conf234.orca.scfp WAS UPDATED ****
             **** ENERGY FILE WAS UPDATED (/scratch/allen/tmpyp4_amber_gaff2/conf1/conf1/Conf234.orca.en.tmp) ****
             **** THE GBW FILE WAS UPDATED (/scratch/allen/tmpyp4_amber_gaff2/conf1/conf1/Conf234.orca.gbw) ****
             **** DENSITY /scratch/allen/tmpyp4_amber_gaff2/conf1/conf1/Conf234.orca.scfp WAS UPDATED ****
----------------
ORBITAL ENERGIES
----------------

  NO   OCC          E(Eh)            E(eV) 
   0   2.0000     -15.647746      -425.7968 
   1   2.0000     -15.638168      -425.5362 
   2   2.0000     -15.629447      -425.2989 
   3   2.0000     -15.615101      -424.9085 
   4   2.0000     -15.520453      -422.3330 
   5   2.0000     -15.516358      -422.2216 
   6   2.0000     -15.446276      -420.3145 
   7   2.0000     -15.443569      -420.2409 
   8   2.0000     -11.308065      -307.7081 
   9   2.0000     -11.303032      -307.5711 
  10   2.0000     -11.301871      -307.5395 
  11   2.0000     -11.300823      -307.5110 
  12   2.0000     -11.296576      -307.3955 
  13   2.0000     -11.294560      -307.3406 
  14   2.0000     -11.292071      -307.2729 
  15   2.0000     -11.288287      -307.1699 
  16   2.0000     -11.287017      -307.1353 
  17   2.0000     -11.285902      -307.1050 
  18   2.0000     -11.276294      -306.8436 
  19   2.0000     -11.275241      -306.8149 
  20   2.0000     -11.251772      -306.1763 
  21   2.0000     -11.241495      -305.8966 
  22   2.0000     -11.240590      -305.8720 
  23   2.0000     -11.239697      -305.8477 
  24   2.0000     -11.233967      -305.6918 
  25   2.0000     -11.233852      -305.6886 
  26   2.0000     -11.233072      -305.6674 
  27   2.0000     -11.227530      -305.5166 
  28   2.0000     -11.227370      -305.5123 
  29   2.0000     -11.222894      -305.3905 
  30   2.0000     -11.217335      -305.2392 
  31   2.0000     -11.215993      -305.2027 
  32   2.0000     -11.202562      -304.8372 
  33   2.0000     -11.202079      -304.8241 
  34   2.0000     -11.193374      -304.5872 
  35   2.0000     -11.192926      -304.5750 
  36   2.0000     -11.176412      -304.1256 
  37   2.0000     -11.175200      -304.0926 
  38   2.0000     -11.175057      -304.0888 
  39   2.0000     -11.172118      -304.0088 
  40   2.0000     -11.168656      -303.9146 
  41   2.0000     -11.167869      -303.8932 
  42   2.0000     -11.167365      -303.8794 
  43   2.0000     -11.164946      -303.8136 
  44   2.0000     -11.162567      -303.7489 
  45   2.0000     -11.160865      -303.7026 
  46   2.0000     -11.151833      -303.4568 
  47   2.0000     -11.149289      -303.3876 
  48   2.0000     -11.147495      -303.3388 
  49   2.0000     -11.145018      -303.2713 
  50   2.0000     -11.140514      -303.1488 
  51   2.0000     -11.136515      -303.0400 
  52   2.0000      -1.333051       -36.2742 
  53   2.0000      -1.324763       -36.0486 
  54   2.0000      -1.317319       -35.8461 
  55   2.0000      -1.305761       -35.5316 
  56   2.0000      -1.219475       -33.1836 
  57   2.0000      -1.212461       -32.9927 
  58   2.0000      -1.163494       -31.6603 
  59   2.0000      -1.156793       -31.4779 
  60   2.0000      -1.120540       -30.4914 
  61   2.0000      -1.112855       -30.2823 
  62   2.0000      -1.106540       -30.1105 
  63   2.0000      -1.097324       -29.8597 
  64   2.0000      -1.056621       -28.7521 
  65   2.0000      -1.048642       -28.5350 
  66   2.0000      -1.041962       -28.3532 
  67   2.0000      -1.031835       -28.0777 
  68   2.0000      -1.028198       -27.9787 
  69   2.0000      -1.010973       -27.5100 
  70   2.0000      -1.009648       -27.4739 
  71   2.0000      -0.996591       -27.1186 
  72   2.0000      -0.983715       -26.7682 
  73   2.0000      -0.975291       -26.5390 
  74   2.0000      -0.970836       -26.4178 
  75   2.0000      -0.959684       -26.1143 
  76   2.0000      -0.952097       -25.9079 
  77   2.0000      -0.945142       -25.7186 
  78   2.0000      -0.939571       -25.5670 
  79   2.0000      -0.923251       -25.1229 
  80   2.0000      -0.894433       -24.3388 
  81   2.0000      -0.882454       -24.0128 
  82   2.0000      -0.875614       -23.8267 
  83   2.0000      -0.869346       -23.6561 
  84   2.0000      -0.862531       -23.4707 
  85   2.0000      -0.856861       -23.3164 
  86   2.0000      -0.848904       -23.0998 
  87   2.0000      -0.842481       -22.9251 
  88   2.0000      -0.821932       -22.3659 
  89   2.0000      -0.798717       -21.7342 
  90   2.0000      -0.797494       -21.7009 
  91   2.0000      -0.740219       -20.1424 
  92   2.0000      -0.732002       -19.9188 
  93   2.0000      -0.729612       -19.8538 
  94   2.0000      -0.721314       -19.6279 
  95   2.0000      -0.720493       -19.6056 
  96   2.0000      -0.712587       -19.3905 
  97   2.0000      -0.708233       -19.2720 
  98   2.0000      -0.699610       -19.0374 
  99   2.0000      -0.693545       -18.8723 
 100   2.0000      -0.686863       -18.6905 
 101   2.0000      -0.681255       -18.5379 
 102   2.0000      -0.679221       -18.4825 
 103   2.0000      -0.673842       -18.3362 
 104   2.0000      -0.669408       -18.2155 
 105   2.0000      -0.665554       -18.1107 
 106   2.0000      -0.663536       -18.0557 
 107   2.0000      -0.659661       -17.9503 
 108   2.0000      -0.657876       -17.9017 
 109   2.0000      -0.656728       -17.8705 
 110   2.0000      -0.652303       -17.7501 
 111   2.0000      -0.649699       -17.6792 
 112   2.0000      -0.647217       -17.6117 
 113   2.0000      -0.640773       -17.4363 
 114   2.0000      -0.635524       -17.2935 
 115   2.0000      -0.624009       -16.9801 
 116   2.0000      -0.622727       -16.9453 
 117   2.0000      -0.615503       -16.7487 
 118   2.0000      -0.612122       -16.6567 
 119   2.0000      -0.609409       -16.5829 
 120   2.0000      -0.609039       -16.5728 
 121   2.0000      -0.603838       -16.4313 
 122   2.0000      -0.598332       -16.2814 
 123   2.0000      -0.592372       -16.1192 
 124   2.0000      -0.590812       -16.0768 
 125   2.0000      -0.584265       -15.8987 
 126   2.0000      -0.578942       -15.7538 
 127   2.0000      -0.573451       -15.6044 
 128   2.0000      -0.569468       -15.4960 
 129   2.0000      -0.560297       -15.2465 
 130   2.0000      -0.553869       -15.0715 
 131   2.0000      -0.546206       -14.8630 
 132   2.0000      -0.541104       -14.7242 
 133   2.0000      -0.535988       -14.5850 
 134   2.0000      -0.534206       -14.5365 
 135   2.0000      -0.529300       -14.4030 
 136   2.0000      -0.525610       -14.3026 
 137   2.0000      -0.522666       -14.2225 
 138   2.0000      -0.520233       -14.1563 
 139   2.0000      -0.516457       -14.0535 
 140   2.0000      -0.510493       -13.8912 
 141   2.0000      -0.506126       -13.7724 
 142   2.0000      -0.505098       -13.7444 
 143   2.0000      -0.501608       -13.6494 
 144   2.0000      -0.500114       -13.6088 
 145   2.0000      -0.498410       -13.5624 
 146   2.0000      -0.496149       -13.5009 
 147   2.0000      -0.492256       -13.3950 
 148   2.0000      -0.490504       -13.3473 
 149   2.0000      -0.469548       -12.7771 
 150   2.0000      -0.461188       -12.5496 
 151   2.0000      -0.452722       -12.3192 
 152   2.0000      -0.448339       -12.1999 
 153   2.0000      -0.446842       -12.1592 
 154   2.0000      -0.445880       -12.1330 
 155   2.0000      -0.439483       -11.9589 
 156   2.0000      -0.435513       -11.8509 
 157   2.0000      -0.431193       -11.7334 
 158   2.0000      -0.393536       -10.7087 
 159   2.0000      -0.384793       -10.4707 
 160   2.0000      -0.377716       -10.2782 
 161   2.0000      -0.372460       -10.1352 
 162   2.0000      -0.366030        -9.9602 
 163   2.0000      -0.359153        -9.7730 
 164   2.0000      -0.353630        -9.6228 
 165   2.0000      -0.343831        -9.3561 
 166   2.0000      -0.337134        -9.1739 
 167   2.0000      -0.333738        -9.0815 
 168   2.0000      -0.329197        -8.9579 
 169   2.0000      -0.300296        -8.1715 
 170   2.0000      -0.297121        -8.0851 
 171   2.0000      -0.288668        -7.8551 
 172   2.0000      -0.287089        -7.8121 
 173   2.0000      -0.256486        -6.9793 
 174   2.0000      -0.248099        -6.7511 
 175   2.0000      -0.188595        -5.1319 
 176   2.0000      -0.178595        -4.8598 
 177   2.0000      -0.068196        -1.8557 
 178   2.0000      -0.055124        -1.5000 
 179   0.0000       0.030369         0.8264 
 180   0.0000       0.070289         1.9127 
 181   0.0000       0.092715         2.5229 
 182   0.0000       0.098968         2.6930 
 183   0.0000       0.128112         3.4861 
 184   0.0000       0.134732         3.6662 
 185   0.0000       0.141052         3.8382 
 186   0.0000       0.151170         4.1135 
 187   0.0000       0.157701         4.2913 
 188   0.0000       0.161037         4.3820 
 189   0.0000       0.163030         4.4363 
 190   0.0000       0.167301         4.5525 
 191   0.0000       0.174154         4.7390 
 192   0.0000       0.197465         5.3733 
 193   0.0000       0.200827         5.4648 
 194   0.0000       0.202778         5.5179 
 195   0.0000       0.206282         5.6132 
 196   0.0000       0.207258         5.6398 
 197   0.0000       0.210423         5.7259 
 198   0.0000       0.214224         5.8293 
 199   0.0000       0.217589         5.9209 
 200   0.0000       0.232176         6.3178 
 201   0.0000       0.237683         6.4677 
 202   0.0000       0.241494         6.5714 
 203   0.0000       0.248598         6.7647 
 204   0.0000       0.249899         6.8001 
 205   0.0000       0.254983         6.9384 
 206   0.0000       0.257008         6.9936 
 207   0.0000       0.258491         7.0339 
 208   0.0000       0.262795         7.1510 
 209   0.0000       0.263822         7.1790 
 210   0.0000       0.267497         7.2790 
 211   0.0000       0.269627         7.3369 
 212   0.0000       0.272411         7.4127 
 213   0.0000       0.275070         7.4850 
 214   0.0000       0.277585         7.5535 
 215   0.0000       0.279178         7.5968 
 216   0.0000       0.280316         7.6278 
 217   0.0000       0.283030         7.7016 
 218   0.0000       0.287587         7.8256 
 219   0.0000       0.288039         7.8379 
 220   0.0000       0.290314         7.8998 
 221   0.0000       0.291579         7.9343 
 222   0.0000       0.293694         7.9918 
 223   0.0000       0.295232         8.0337 
 224   0.0000       0.298855         8.1323 
 225   0.0000       0.300857         8.1867 
 226   0.0000       0.303307         8.2534 
 227   0.0000       0.307372         8.3640 
 228   0.0000       0.308969         8.4075 
 229   0.0000       0.312230         8.4962 
 230   0.0000       0.316950         8.6246 
 231   0.0000       0.319968         8.7068 
 232   0.0000       0.325030         8.8445 
 233   0.0000       0.329767         8.9734 
 234   0.0000       0.332590         9.0502 
 235   0.0000       0.339323         9.2334 
 236   0.0000       0.356198         9.6926 
 237   0.0000       0.386779        10.5248 
 238   0.0000       0.394446        10.7334 
 239   0.0000       0.400517        10.8986 
 240   0.0000       0.405660        11.0386 
 241   0.0000       0.413252        11.2452 
 242   0.0000       0.421075        11.4580 
 243   0.0000       0.424137        11.5414 
 244   0.0000       0.431017        11.7286 
 245   0.0000       0.431807        11.7501 
 246   0.0000       0.433216        11.7884 
 247   0.0000       0.438783        11.9399 
 248   0.0000       0.440344        11.9824 
 249   0.0000       0.443475        12.0676 
 250   0.0000       0.446363        12.1461 
 251   0.0000       0.453053        12.3282 
 252   0.0000       0.456593        12.4245 
 253   0.0000       0.465812        12.6754 
 254   0.0000       0.470919        12.8143 
 255   0.0000       0.474496        12.9117 
 256   0.0000       0.482322        13.1246 
 257   0.0000       0.485795        13.2192 
 258   0.0000       0.492852        13.4112 
 259   0.0000       0.497252        13.5309 
 260   0.0000       0.500237        13.6121 
 261   0.0000       0.503054        13.6888 
 262   0.0000       0.505975        13.7683 
 263   0.0000       0.510333        13.8869 
 264   0.0000       0.511612        13.9217 
 265   0.0000       0.514657        14.0045 
 266   0.0000       0.519033        14.1236 
 267   0.0000       0.522674        14.2227 
 268   0.0000       0.535619        14.5749 
 269   0.0000       0.538202        14.6452 
 270   0.0000       0.541318        14.7300 
 271   0.0000       0.545525        14.8445 
 272   0.0000       0.546530        14.8718 
 273   0.0000       0.553623        15.0648 
 274   0.0000       0.559969        15.2375 
 275   0.0000       0.564583        15.3631 
 276   0.0000       0.572134        15.5686 
 277   0.0000       0.579486        15.7686 
 278   0.0000       0.580323        15.7914 
 279   0.0000       0.585397        15.9295 
 280   0.0000       0.587841        15.9960 
 281   0.0000       0.591428        16.0936 
 282   0.0000       0.594609        16.1801 
 283   0.0000       0.596476        16.2309 
 284   0.0000       0.600592        16.3429 
 285   0.0000       0.602193        16.3865 
 286   0.0000       0.606792        16.5117 
 287   0.0000       0.607990        16.5443 
 288   0.0000       0.610224        16.6050 
 289   0.0000       0.615073        16.7370 
 290   0.0000       0.619712        16.8632 
 291   0.0000       0.627802        17.0834 
 292   0.0000       0.638435        17.3727 
 293   0.0000       0.639016        17.3885 
 294   0.0000       0.642041        17.4708 
 295   0.0000       0.652004        17.7419 
 296   0.0000       0.656212        17.8564 
 297   0.0000       0.659535        17.9469 
 298   0.0000       0.661865        18.0103 
 299   0.0000       0.664154        18.0726 
 300   0.0000       0.670504        18.2453 
 301   0.0000       0.671365        18.2688 
 302   0.0000       0.679541        18.4912 
 303   0.0000       0.681264        18.5381 
 304   0.0000       0.683910        18.6101 
 305   0.0000       0.685854        18.6630 
 306   0.0000       0.690900        18.8004 
 307   0.0000       0.692406        18.8413 
 308   0.0000       0.698096        18.9962 
 309   0.0000       0.700546        19.0628 
 310   0.0000       0.703844        19.1526 
 311   0.0000       0.705117        19.1872 
 312   0.0000       0.706614        19.2279 
 313   0.0000       0.708461        19.2782 
 314   0.0000       0.713459        19.4142 
 315   0.0000       0.714130        19.4325 
 316   0.0000       0.715511        19.4700 
 317   0.0000       0.718683        19.5564 
 318   0.0000       0.719884        19.5890 
 319   0.0000       0.720918        19.6172 
 320   0.0000       0.726290        19.7634 
 321   0.0000       0.728014        19.8103 
 322   0.0000       0.733062        19.9476 
 323   0.0000       0.733827        19.9684 
 324   0.0000       0.739081        20.1114 
 325   0.0000       0.741859        20.1870 
 326   0.0000       0.744652        20.2630 
 327   0.0000       0.745936        20.2979 
 328   0.0000       0.747268        20.3342 
 329   0.0000       0.748502        20.3678 
 330   0.0000       0.751414        20.4470 
 331   0.0000       0.755895        20.5689 
 332   0.0000       0.757917        20.6240 
 333   0.0000       0.761453        20.7202 
 334   0.0000       0.764601        20.8059 
 335   0.0000       0.773537        21.0490 
 336   0.0000       0.778845        21.1935 
 337   0.0000       0.780340        21.2341 
 338   0.0000       0.783448        21.3187 
 339   0.0000       0.787655        21.4332 
 340   0.0000       0.789726        21.4895 
 341   0.0000       0.793976        21.6052 
 342   0.0000       0.797559        21.7027 
 343   0.0000       0.802257        21.8305 
 344   0.0000       0.804375        21.8882 
 345   0.0000       0.805318        21.9138 
 346   0.0000       0.809731        22.0339 
 347   0.0000       0.812031        22.0965 
 348   0.0000       0.814363        22.1600 
 349   0.0000       0.816777        22.2256 
 350   0.0000       0.819951        22.3120 
 351   0.0000       0.823359        22.4047 
 352   0.0000       0.826078        22.4787 
 353   0.0000       0.827766        22.5247 
 354   0.0000       0.830373        22.5956 
 355   0.0000       0.831905        22.6373 
 356   0.0000       0.834434        22.7061 
 357   0.0000       0.835274        22.7290 
 358   0.0000       0.836393        22.7594 
 359   0.0000       0.839066        22.8321 
 360   0.0000       0.840465        22.8702 
 361   0.0000       0.841916        22.9097 
 362   0.0000       0.843166        22.9437 
 363   0.0000       0.844771        22.9874 
 364   0.0000       0.846222        23.0269 
 365   0.0000       0.847734        23.0680 
 366   0.0000       0.852360        23.1939 
 367   0.0000       0.856623        23.3099 
 368   0.0000       0.859957        23.4006 
 369   0.0000       0.862534        23.4708 
 370   0.0000       0.865220        23.5438 
 371   0.0000       0.868201        23.6249 
 372   0.0000       0.872072        23.7303 
 373   0.0000       0.877168        23.8690 
 374   0.0000       0.878259        23.8987 
 375   0.0000       0.882887        24.0246 
 376   0.0000       0.886160        24.1136 
 377   0.0000       0.886996        24.1364 
 378   0.0000       0.892042        24.2737 
 379   0.0000       0.895171        24.3588 
 380   0.0000       0.897895        24.4330 
 381   0.0000       0.899939        24.4886 
 382   0.0000       0.901739        24.5376 
 383   0.0000       0.902562        24.5600 
 384   0.0000       0.903985        24.5987 
 385   0.0000       0.906666        24.6716 
 386   0.0000       0.909017        24.7356 
 387   0.0000       0.910258        24.7694 
 388   0.0000       0.911963        24.8158 
 389   0.0000       0.913596        24.8602 
 390   0.0000       0.917035        24.9538 
 391   0.0000       0.920426        25.0461 
 392   0.0000       0.922810        25.1109 
 393   0.0000       0.924981        25.1700 
 394   0.0000       0.927231        25.2312 
 395   0.0000       0.931486        25.3470 
 396   0.0000       0.934298        25.4235 
 397   0.0000       0.935943        25.4683 
 398   0.0000       0.936679        25.4883 
 399   0.0000       0.941788        25.6274 
 400   0.0000       0.944805        25.7095 
 401   0.0000       0.946871        25.7657 
 402   0.0000       0.950369        25.8609 
 403   0.0000       0.951842        25.9009 
 404   0.0000       0.954071        25.9616 
 405   0.0000       0.955510        26.0008 
 406   0.0000       0.963042        26.2057 
 407   0.0000       0.964355        26.2414 
 408   0.0000       0.968245        26.3473 
 409   0.0000       0.971456        26.4347 
 410   0.0000       0.977053        26.5870 
 411   0.0000       0.978678        26.6312 
 412   0.0000       0.985193        26.8085 
 413   0.0000       0.985874        26.8270 
 414   0.0000       0.988971        26.9113 
 415   0.0000       0.990521        26.9534 
 416   0.0000       0.994609        27.0647 
 417   0.0000       1.002919        27.2908 
 418   0.0000       1.007982        27.4286 
 419   0.0000       1.016127        27.6502 
 420   0.0000       1.021980        27.8095 
 421   0.0000       1.029270        28.0078 
 422   0.0000       1.032134        28.0858 
 423   0.0000       1.038892        28.2697 
 424   0.0000       1.042202        28.3597 
 425   0.0000       1.046804        28.4850 
 426   0.0000       1.051467        28.6119 
 427   0.0000       1.066290        29.0152 
 428   0.0000       1.068854        29.0850 
 429   0.0000       1.072043        29.1718 
 430   0.0000       1.075258        29.2593 
 431   0.0000       1.079715        29.3805 
 432   0.0000       1.084664        29.5152 
 433   0.0000       1.090993        29.6874 
 434   0.0000       1.096508        29.8375 
 435   0.0000       1.099459        29.9178 
 436   0.0000       1.106745        30.1161 
 437   0.0000       1.112568        30.2745 
 438   0.0000       1.117473        30.4080 
 439   0.0000       1.118020        30.4229 
 440   0.0000       1.119608        30.4661 
 441   0.0000       1.125013        30.6131 
 442   0.0000       1.128647        30.7120 
 443   0.0000       1.131147        30.7801 
 444   0.0000       1.134592        30.8738 
 445   0.0000       1.135380        30.8953 
 446   0.0000       1.138004        30.9667 
 447   0.0000       1.142327        31.0843 
 448   0.0000       1.143938        31.1281 
 449   0.0000       1.145390        31.1676 
 450   0.0000       1.148499        31.2522 
 451   0.0000       1.150318        31.3017 
 452   0.0000       1.155489        31.4424 
 453   0.0000       1.156328        31.4653 
 454   0.0000       1.161366        31.6024 
 455   0.0000       1.168216        31.7888 
 456   0.0000       1.174729        31.9660 
 457   0.0000       1.176476        32.0135 
 458   0.0000       1.177881        32.0518 
 459   0.0000       1.186848        32.2958 
 460   0.0000       1.188050        32.3285 
 461   0.0000       1.191575        32.4244 
 462   0.0000       1.204193        32.7678 
 463   0.0000       1.205114        32.7928 
 464   0.0000       1.207853        32.8674 
 465   0.0000       1.210390        32.9364 
 466   0.0000       1.212093        32.9827 
 467   0.0000       1.218442        33.1555 
 468   0.0000       1.223797        33.3012 
 469   0.0000       1.227297        33.3964 
 470   0.0000       1.233065        33.5534 
 471   0.0000       1.234762        33.5996 
 472   0.0000       1.236762        33.6540 
 473   0.0000       1.239958        33.7410 
 474   0.0000       1.242094        33.7991 
 475   0.0000       1.247151        33.9367 
 476   0.0000       1.249956        34.0130 
 477   0.0000       1.250058        34.0158 
 478   0.0000       1.253062        34.0975 
 479   0.0000       1.254638        34.1404 
 480   0.0000       1.257956        34.2307 
 481   0.0000       1.266242        34.4562 
 482   0.0000       1.267738        34.4969 
 483   0.0000       1.272883        34.6369 
 484   0.0000       1.273415        34.6514 
 485   0.0000       1.278313        34.7847 
 486   0.0000       1.280275        34.8381 
 487   0.0000       1.282001        34.8850 
 488   0.0000       1.288744        35.0685 
 489   0.0000       1.290359        35.1124 
 490   0.0000       1.290997        35.1298 
 491   0.0000       1.294828        35.2341 
 492   0.0000       1.301621        35.4189 
 493   0.0000       1.308606        35.6090 
 494   0.0000       1.312603        35.7177 
 495   0.0000       1.314365        35.7657 
 496   0.0000       1.318748        35.8850 
 497   0.0000       1.322221        35.9795 
 498   0.0000       1.325190        36.0602 
 499   0.0000       1.329434        36.1757 
 500   0.0000       1.333604        36.2892 
 501   0.0000       1.337704        36.4008 
 502   0.0000       1.340850        36.4864 
 503   0.0000       1.346210        36.6322 
 504   0.0000       1.348588        36.6969 
 505   0.0000       1.352451        36.8021 
 506   0.0000       1.355028        36.8722 
 507   0.0000       1.356802        36.9204 
 508   0.0000       1.359000        36.9803 
 509   0.0000       1.361994        37.0617 
 510   0.0000       1.366758        37.1914 
[...]
      pz      :     0.022000  p :     0.079610
      px      :     0.043362
      py      :     0.014248
 77 H s       :     0.888188  s :     0.888188
      pz      :     0.047696  p :     0.078968
      px      :     0.015014
      py      :     0.016258
 78 H s       :     0.888573  s :     0.888573
      pz      :     0.025738  p :     0.078913
      px      :     0.020537
      py      :     0.032638
 79 H s       :     0.909424  s :     0.909424
      pz      :     0.022062  p :     0.086635
      px      :     0.021747
      py      :     0.042827
 80 H s       :     0.869498  s :     0.869498
      pz      :     0.038974  p :     0.084251
      px      :     0.029991
      py      :     0.015285
 81 H s       :     0.887214  s :     0.887214
      pz      :     0.037759  p :     0.083920
      px      :     0.016155
      py      :     0.030006
 82 H s       :     0.915232  s :     0.915232
      pz      :     0.022064  p :     0.086834
      px      :     0.031427
      py      :     0.033343
 83 H s       :     0.872729  s :     0.872729
      pz      :     0.039270  p :     0.084005
      px      :     0.015256
      py      :     0.029479
 84 H s       :     0.886959  s :     0.886959
      pz      :     0.035794  p :     0.083675
      px      :     0.031724
      py      :     0.016157
 85 H s       :     0.893462  s :     0.893462
      pz      :     0.022499  p :     0.079751
      px      :     0.014084
      py      :     0.043168
 86 H s       :     0.890762  s :     0.890762
      pz      :     0.024728  p :     0.078859
      px      :     0.032994
      py      :     0.021137
 87 H s       :     0.890136  s :     0.890136
      pz      :     0.047970  p :     0.078710
      px      :     0.015605
      py      :     0.015135
 88 H s       :     0.913053  s :     0.913053
      pz      :     0.021925  p :     0.086952
      px      :     0.042631
      py      :     0.022396
 89 H s       :     0.872371  s :     0.872371
      pz      :     0.037897  p :     0.083864
      px      :     0.030479
      py      :     0.015489


                      *****************************
                      * MAYER POPULATION ANALYSIS *
                      *****************************

  NA   - Mulliken gross atomic population
  ZA   - Total nuclear charge
  QA   - Mulliken gross atomic charge
  VA   - Mayer's total valence
  BVA  - Mayer's bonded valence
  FA   - Mayer's free valence

  ATOM       NA         ZA         QA         VA         BVA        FA
  0 C      5.7912     6.0000     0.2088     3.8315     3.8315    -0.0000
  1 N      7.4468     7.0000    -0.4468     3.3542     3.3542    -0.0000
  2 C      6.0634     6.0000    -0.0634     3.9186     3.9186     0.0000
  3 N      7.3366     7.0000    -0.3366     3.4489     3.4489    -0.0000
  4 C      6.0578     6.0000    -0.0578     3.9837     3.9837    -0.0000
  5 N      7.5631     7.0000    -0.5631     3.0873     3.0873    -0.0000
  6 C      6.0802     6.0000    -0.0802     4.0028     4.0028     0.0000
  7 N      7.3385     7.0000    -0.3385     3.4397     3.4397    -0.0000
  8 C      5.7968     6.0000     0.2032     3.8331     3.8331    -0.0000
  9 N      7.5631     7.0000    -0.5631     3.0820     3.0820     0.0000
 10 C      5.8840     6.0000     0.1160     3.8996     3.8996     0.0000
 11 N      7.4375     7.0000    -0.4375     3.3833     3.3833    -0.0000
 12 C      6.0763     6.0000    -0.0763     3.9186     3.9186    -0.0000
 13 N      7.4369     7.0000    -0.4369     3.3929     3.3929     0.0000
 14 C      5.7558     6.0000     0.2442     3.7837     3.7837    -0.0000
 15 N      7.4409     7.0000    -0.4409     3.3716     3.3716     0.0000
 16 C      5.7687     6.0000     0.2313     3.7888     3.7888    -0.0000
 17 C      6.0861     6.0000    -0.0861     4.0020     4.0020     0.0000
 18 C      6.2162     6.0000    -0.2162     3.7654     3.7654    -0.0000
 19 C      5.7591     6.0000     0.2409     3.8627     3.8627     0.0000
 20 C      5.7900     6.0000     0.2100     3.8264     3.8264    -0.0000
 21 C      6.0893     6.0000    -0.0893     3.9079     3.9079    -0.0000
 22 C      6.0881     6.0000    -0.0881     3.9833     3.9833    -0.0000
 23 C      6.0459     6.0000    -0.0459     3.9910     3.9910    -0.0000
 24 C      5.7978     6.0000     0.2022     3.8227     3.8227    -0.0000
 25 C      5.8860     6.0000     0.1140     3.8900     3.8900     0.0000
 26 C      6.0721     6.0000    -0.0721     3.9085     3.9085    -0.0000
 27 C      5.7807     6.0000     0.2193     3.8779     3.8779    -0.0000
 28 C      6.0553     6.0000    -0.0553     3.9878     3.9878     0.0000
 29 C      6.1834     6.0000    -0.1834     3.7381     3.7381    -0.0000
 30 C      5.7615     6.0000     0.2385     3.7954     3.7954     0.0000
 31 C      5.7836     6.0000     0.2164     3.8245     3.8245    -0.0000
 32 C      6.0644     6.0000    -0.0644     3.9192     3.9192     0.0000
 33 C      6.0754     6.0000    -0.0754     3.9816     3.9816    -0.0000
 34 C      6.0504     6.0000    -0.0504     3.9897     3.9897    -0.0000
 35 C      5.7890     6.0000     0.2110     3.8229     3.8229    -0.0000
 36 C      5.8875     6.0000     0.1125     3.8868     3.8868     0.0000
 37 C      6.0662     6.0000    -0.0662     3.9176     3.9176     0.0000
 38 C      5.7647     6.0000     0.2353     3.7991     3.7991     0.0000
 39 C      6.0603     6.0000    -0.0603     3.9889     3.9889    -0.0000
 40 C      6.1872     6.0000    -0.1872     3.7372     3.7372    -0.0000
 41 C      5.7774     6.0000     0.2226     3.8826     3.8826     0.0000
 42 C      5.7985     6.0000     0.2015     3.8271     3.8271     0.0000
 43 C      6.0731     6.0000    -0.0731     3.9023     3.9023     0.0000
 44 C      6.0892     6.0000    -0.0892     3.9850     3.9850     0.0000
 45 C      6.0550     6.0000    -0.0550     3.9928     3.9928    -0.0000
 46 C      5.7944     6.0000     0.2056     3.8264     3.8264    -0.0000
 47 C      5.8844     6.0000     0.1156     3.8935     3.8935     0.0000
 48 C      6.0722     6.0000    -0.0722     3.9057     3.9057     0.0000
 49 C      5.7701     6.0000     0.2299     3.8866     3.8866    -0.0000
 50 C      6.0512     6.0000    -0.0512     3.9904     3.9904    -0.0000
 51 C      6.1896     6.0000    -0.1896     3.7360     3.7360    -0.0000
 52 H      0.9501     1.0000     0.0499     0.9854     0.9854    -0.0000
 53 H      1.0146     1.0000    -0.0146     0.9986     0.9986     0.0000
 54 H      0.9533     1.0000     0.0467     1.0085     1.0085     0.0000
 55 H      0.9521     1.0000     0.0479     0.9862     0.9862    -0.0000
 56 H      0.9443     1.0000     0.0557     0.9707     0.9707    -0.0000
 57 H      0.9463     1.0000     0.0537     0.9837     0.9837    -0.0000
 58 H      0.9468     1.0000     0.0532     0.9852     0.9852    -0.0000
 59 H      1.0077     1.0000    -0.0077     1.0008     1.0008    -0.0000
 60 H      0.9505     1.0000     0.0495     1.0099     1.0099     0.0000
 61 H      0.8276     1.0000     0.1724     1.0423     1.0423    -0.0000
 62 H      0.8264     1.0000     0.1736     1.0435     1.0435    -0.0000
 63 H      0.9435     1.0000     0.0565     0.9854     0.9854    -0.0000
 64 H      1.0146     1.0000    -0.0146     0.9970     0.9970     0.0000
 65 H      0.9524     1.0000     0.0476     1.0090     1.0090     0.0000
 66 H      0.9426     1.0000     0.0574     0.9851     0.9851    -0.0000
 67 H      0.9372     1.0000     0.0628     0.9720     0.9720    -0.0000
 68 H      0.9419     1.0000     0.0581     0.9868     0.9868    -0.0000
 69 H      0.9417     1.0000     0.0583     0.9829     0.9829    -0.0000
 70 H      1.0258     1.0000    -0.0258     0.9939     0.9939    -0.0000
 71 H      0.9529     1.0000     0.0471     1.0065     1.0065     0.0000
 72 H      0.9394     1.0000     0.0606     0.9846     0.9846    -0.0000
 73 H      1.0125     1.0000    -0.0125     0.9993     0.9993    -0.0000
 74 H      0.9495     1.0000     0.0505     1.0100     1.0100    -0.0000
 75 H      0.9402     1.0000     0.0598     0.9851     0.9851    -0.0000
 76 H      0.9344     1.0000     0.0656     0.9718     0.9718    -0.0000
 77 H      0.9391     1.0000     0.0609     0.9852     0.9852     0.0000
 78 H      0.9399     1.0000     0.0601     0.9849     0.9849     0.0000
 79 H      1.0147     1.0000    -0.0147     0.9989     0.9989     0.0000
 80 H      0.9489     1.0000     0.0511     1.0071     1.0071    -0.0000
 81 H      0.9465     1.0000     0.0535     0.9855     0.9855     0.0000
 82 H      1.0238     1.0000    -0.0238     0.9940     0.9940     0.0000
 83 H      0.9572     1.0000     0.0428     1.0090     1.0090    -0.0000
 84 H      0.9465     1.0000     0.0535     0.9855     0.9855    -0.0000
 85 H      0.9404     1.0000     0.0596     0.9716     0.9716    -0.0000
 86 H      0.9439     1.0000     0.0561     0.9840     0.9840    -0.0000
 87 H      0.9433     1.0000     0.0567     0.9856     0.9856    -0.0000
 88 H      1.0195     1.0000    -0.0195     0.9951     0.9951     0.0000
 89 H      0.9556     1.0000     0.0444     1.0072     1.0072     0.0000

  Mayer bond orders larger than 0.100000
B(  0-C ,  1-N ) :   1.1067 B(  0-C , 17-C ) :   1.6607 B(  0-C , 52-H ) :   0.9690 
B(  1-N ,  8-C ) :   1.1018 B(  1-N , 10-C ) :   0.9682 B(  2-C , 12-C ) :   1.5271 
B(  2-C , 16-C ) :   1.3348 B(  2-C , 53-H ) :   0.9772 B(  3-N , 14-C ) :   1.2081 
B(  3-N , 16-C ) :   1.1948 B(  3-N , 61-H ) :   0.8986 B(  4-C ,  6-C ) :   1.2445 
B(  4-C , 17-C ) :   1.2438 B(  4-C , 18-C ) :   1.3301 B(  5-N , 19-C ) :   1.4320 
B(  5-N , 27-C ) :   1.3947 B(  6-C ,  8-C ) :   1.6611 B(  6-C , 54-H ) :   0.9695 
B(  7-N , 30-C ) :   1.1945 B(  7-N , 38-C ) :   1.1984 B(  7-N , 62-H ) :   0.8979 
B(  8-C , 55-H ) :   0.9697 B(  9-N , 41-C ) :   1.4040 B(  9-N , 49-C ) :   1.4184 
B( 10-C , 56-H ) :   0.9764 B( 10-C , 57-H ) :   0.9819 B( 10-C , 58-H ) :   0.9839 
B( 11-N , 20-C ) :   1.1275 B( 11-N , 24-C ) :   1.1185 B( 11-N , 25-C ) :   0.9584 
B( 12-C , 14-C ) :   1.3361 B( 12-C , 59-H ) :   0.9753 B( 13-N , 31-C ) :   1.1343 
B( 13-N , 35-C ) :   1.1287 B( 13-N , 36-C ) :   0.9546 B( 14-C , 18-C ) :   1.1725 
B( 15-N , 42-C ) :   1.1132 B( 15-N , 46-C ) :   1.1168 B( 15-N , 47-C ) :   0.9620 
B( 16-C , 51-C ) :   1.1895 B( 17-C , 60-H ) :   0.9693 B( 18-C , 19-C ) :   1.1863 
B( 19-C , 21-C ) :   1.2195 B( 20-C , 28-C ) :   1.6239 B( 20-C , 63-H ) :   0.9702 
B( 21-C , 26-C ) :   1.6362 B( 21-C , 64-H ) :   0.9706 B( 22-C , 23-C ) :   1.2867 
B( 22-C , 28-C ) :   1.2719 B( 22-C , 29-C ) :   1.2248 B( 23-C , 24-C ) :   1.6177 
B( 23-C , 65-H ) :   0.9707 B( 24-C , 66-H ) :   0.9692 B( 25-C , 67-H ) :   0.9761 
B( 25-C , 68-H ) :   0.9829 B( 25-C , 69-H ) :   0.9822 B( 26-C , 27-C ) :   1.2176 
B( 26-C , 70-H ) :   0.9727 B( 27-C , 29-C ) :   1.2287 B( 28-C , 71-H ) :   0.9716 
B( 29-C , 30-C ) :   1.2185 B( 30-C , 32-C ) :   1.3047 B( 31-C , 39-C ) :   1.6187 
B( 31-C , 72-H ) :   0.9692 B( 32-C , 37-C ) :   1.5537 B( 32-C , 73-H ) :   0.9780 
B( 33-C , 34-C ) :   1.2843 B( 33-C , 39-C ) :   1.2780 B( 33-C , 40-C ) :   1.2284 
B( 34-C , 35-C ) :   1.6157 B( 34-C , 74-H ) :   0.9702 B( 35-C , 75-H ) :   0.9692 
B( 36-C , 76-H ) :   0.9764 B( 36-C , 77-H ) :   0.9819 B( 36-C , 78-H ) :   0.9829 
B( 37-C , 38-C ) :   1.3069 B( 37-C , 79-H ) :   0.9774 B( 38-C , 40-C ) :   1.2138 
B( 39-C , 80-H ) :   0.9712 B( 40-C , 41-C ) :   1.2285 B( 41-C , 43-C ) :   1.2049 
B( 42-C , 50-C ) :   1.6335 B( 42-C , 81-H ) :   0.9696 B( 43-C , 48-C ) :   1.6470 
B( 43-C , 82-H ) :   0.9733 B( 44-C , 45-C ) :   1.2686 B( 44-C , 50-C ) :   1.2683 
B( 44-C , 51-C ) :   1.2570 B( 45-C , 46-C ) :   1.6334 B( 45-C , 83-H ) :   0.9714 
B( 46-C , 84-H ) :   0.9701 B( 47-C , 85-H ) :   0.9761 B( 47-C , 86-H ) :   0.9828 
B( 47-C , 87-H ) :   0.9825 B( 48-C , 49-C ) :   1.2058 B( 48-C , 88-H ) :   0.9742 
B( 49-C , 51-C ) :   1.2268 B( 50-C , 89-H ) :   0.9713 

-------
TIMINGS
-------

Total SCF time: 0 days 0 hours 27 min 13 sec 

Total time                  ....    1633.735 sec
Sum of individual times     ....    1629.063 sec  ( 99.7%)

Fock matrix formation       ....    1601.988 sec  ( 98.1%)
Diagonalization             ....       8.786 sec  (  0.5%)
Density matrix formation    ....       0.498 sec  (  0.0%)
Population analysis         ....       0.589 sec  (  0.0%)
Initial guess               ....       2.505 sec  (  0.2%)
Orbital Transformation      ....       0.000 sec  (  0.0%)
Orbital Orthonormalization  ....       0.000 sec  (  0.0%)
DIIS solution               ....       3.951 sec  (  0.2%)
SOSCF solution              ....       9.435 sec  (  0.6%)

Maximum memory used throughout the entire SCF-calculation: 302.6 MB


           ************************************************************
           *        Program running with 16 parallel MPI-processes    *
           *              working on a common directory               *
           ************************************************************

------------------------------------------------------------------------------
                                ORCA  MP2 
------------------------------------------------------------------------------

Freezing NCore=104 chemical core electrons

----------
MP2 ENERGY (disk based algorithm)
----------

Dimension of the basis                    ...  918
Memory devoted to MP2                     ... 2000 MB   
Data format for buffers                   ... DOUBLE
Compression type for matrix containers    ... UNCOMPRESSED

-------------------------------
PARTIAL EXCHANGE TRANSFORMATION
-------------------------------

Transformation type                        ... one-operator
Generation of integrals (i,mue|j,nue)      ... ON
Generation of integrals (mue,kappa|nue,tau)... OFF
Generation of integrals (i,mue|a,nue)      ... OFF
Dimension of the basis                     ...  918
Number of internal MOs                     ...  127 (  52- 178)
Pair cutoff                                ... 2.500e-12 Eh
Number of AO pairs in the trafo            ... 421821
Total Number of distinct AO pairs          ... 421821
Memory devoted for trafo                   ... 2000.0 MB 
Max. Number of MO pairs treated together   ...  311      
Number Format for Storage                  ... Double (8 Byte)
Integral package used                      ... LIBINT

Starting integral evaluation:
    ... done with AO integral generation
Closing buffer AOK     (38.21 GB; CompressionRatio= 1.33)
Collecting buffer AOK 
Number of MO pairs included in the trafo   ... 8128
------------------------
SORTING OF (i,mue|j,nue)
------------------------

IBATCH = 1 of  2
IBATCH = 2 of  2
Closing buffer KAO     (51.03 GB; CompressionRatio= 1.00)
Collecting buffer KAO 
N(AO-Batches) Done                         ...  85493779 
N(AO-Batches) Skipped                      ...  82298240 
N(IJ)-pairs Skipped                        ...         0 
TOTAL TIME for half transformation         ...  2465.695 sec
AO-integral generation                     ...   209.729 sec
Half transformation                        ...   423.246 sec
K-integral sorting                         ...  1610.441 sec
Process 13:   Internal MO 156
Process 10:   Internal MO 132
Process  4:   Internal MO  84

Finished integral transformation - now doing MP2 part

OPERATOR COMBINATION   0   0: ij=( 52..178, 52..178)
Process  1:   Internal MO  60
Process  7:   Internal MO 108
Process  2:   Internal MO  69
Process  1:   Internal MO  63
Process  5:   Internal MO  93
Process  3:   Internal MO  78
Process  2:   Internal MO  72
Process  8:   Internal MO 117
Process  1:   Internal MO  66
Process  6:   Internal MO 102
Process 11:   Internal MO 141
Process  4:   Internal MO  87
Process  2:   Internal MO  75
Process 14:   Internal MO 165
Process  0:   Internal MO  54
Process  3:   Internal MO  81
Process  9:   Internal MO 126
Process  7:   Internal MO 111
Process  0:   Internal MO  57
Process 12:   Internal MO 150
Process  5:   Internal MO  96
Process 15:   Internal MO 174
Process 10:   Internal MO 135
Process  6:   Internal MO 105
Process  4:   Internal MO  90
Process  8:   Internal MO 120
Process  7:   Internal MO 114
Process  5:   Internal MO  99
Process  9:   Internal MO 129
Process 11:   Internal MO 144
Process 13:   Internal MO 159
Process 12:   Internal MO 153
Process 14:   Internal MO 168
Process 10:   Internal MO 138
Process  8:   Internal MO 123
Process 15:   Internal MO 177
Process 11:   Internal MO 147
Process 13:   Internal MO 162
Process 14:   Internal MO 171
-----------------------------------------------
 MP2 CORRELATION ENERGY   :     -7.288981513 Eh
-----------------------------------------------


-------
TIMINGS
-------
Total time                : 2753.964 sec
Integral trafo            : 2468.330 sec ( 89.6%)
K(i,j)                    :   67.717 sec (  2.5%)
T(i,j)                    :    0.420 sec (  0.0%)

---------------------------------------
MP2 TOTAL ENERGY:    -2130.913458012 Eh
---------------------------------------

Maximum memory used throughout the entire MP2-calculation: 2275.2 MB

-------------------------   --------------------
FINAL SINGLE POINT ENERGY     -2130.913458011923
-------------------------   --------------------


                            ***************************************
                            *     ORCA property calculations      *
                            ***************************************


  WARNING: The energy has been calculated at the MP2 level but the densities
           used in the property calculations are still SCF densities
           MP2 response densities have not been calculated 
           use %mp2 Density relaxed end
           or  %mp2 Density unrelaxed end

                                    ---------------------
                                    Active property flags
                                    ---------------------
   (+) Dipole Moment


------------------------------------------------------------------------------
                       ORCA ELECTRIC PROPERTIES CALCULATION
------------------------------------------------------------------------------

Dipole Moment Calculation                       ... on
Quadrupole Moment Calculation                   ... off
Polarizability Calculation                      ... off
GBWName                                         ... /scratch/allen/tmpyp4_amber_gaff2/conf1/conf1/Conf234.orca.gbw
Electron density                                ... /scratch/allen/tmpyp4_amber_gaff2/conf1/conf1/Conf234.orca.scfp
The origin for moment calculation is the CENTER OF MASS  = ( 0.001819, -0.002782 -0.001577)

-------------
DIPOLE MOMENT
-------------
                                X             Y             Z
Electronic contribution:      0.51871      -1.86711      -0.12446
Nuclear contribution   :      0.07827       0.23998       0.13385
                        -----------------------------------------
Total Dipole Moment    :      0.59698      -1.62713       0.00939
                        -----------------------------------------
Magnitude (a.u.)       :      1.73322
Magnitude (Debye)      :      4.40548



--------------------
Rotational spectrum 
--------------------
 
Rotational constants in cm-1:     0.001499     0.001475     0.000762 
Rotational constants in MHz :    44.936229    44.231875    22.833953 

 Dipole components along the rotational axes: 
x,y,z [a.u.] :     1.077869    -1.357271     0.007079 
x,y,z [Debye]:     2.739725    -3.449909     0.017993 

 

Timings for individual modules:

Sum of individual times         ...     4410.514 sec (=  73.509 min)
GTO integral calculation        ...        3.610 sec (=   0.060 min)   0.1 %
SCF iterations                  ...     1634.927 sec (=  27.249 min)  37.1 %
MP2 module                      ...     2771.978 sec (=  46.200 min)  62.8 %
                             ****ORCA TERMINATED NORMALLY****
TOTAL RUN TIME: 0 days 1 hours 13 minutes 33 seconds 878 msec
# of primitive gaussian functions

