
                                 *****************
                                 * O   R   C   A *
                                 *****************

                                            #,                                       
                                            ###                                      
                                            ####                                     
                                            #####                                    
                                            ######                                   
                                           ########,                                 
                                     ,,################,,,,,                         
                               ,,#################################,,                 
                          ,,##########################################,,             
                       ,#########################################, ''#####,          
                    ,#############################################,,   '####,        
                  ,##################################################,,,,####,       
                ,###########''''           ''''###############################       
              ,#####''   ,,,,##########,,,,          '''####'''          '####       
            ,##' ,,,,###########################,,,                        '##       
           ' ,,###''''                  '''############,,,                           
         ,,##''                                '''############,,,,        ,,,,,,###''
      ,#''                                            '''#######################'''  
     '                                                          ''''####''''         
             ,#######,   #######,   ,#######,      ##                                
            ,#'     '#,  ##    ##  ,#'     '#,    #''#        ######   ,####,        
            ##       ##  ##   ,#'  ##            #'  '#       #        #'  '#        
            ##       ##  #######   ##           ,######,      #####,   #    #        
            '#,     ,#'  ##    ##  '#,     ,#' ,#      #,         ##   #,  ,#        
             '#######'   ##     ##  '#######'  #'      '#     #####' # '####'        



                  #######################################################
                  #                        -***-                        #
                  #          Department of theory and spectroscopy      #
                  #    Directorship and core code : Frank Neese         #
                  #        Max Planck Institute fuer Kohlenforschung    #
                  #                Kaiser Wilhelm Platz 1               #
                  #                 D-45470 Muelheim/Ruhr               #
                  #                      Germany                        #
                  #                                                     #
                  #                  All rights reserved                #
                  #                        -***-                        #
                  #######################################################


                         Program Version 5.0.4 -  RELEASE  -


 With contributions from (in alphabetic order):
   Daniel Aravena         : Magnetic Suceptibility
   Michael Atanasov       : Ab Initio Ligand Field Theory (pilot matlab implementation)
   Alexander A. Auer      : GIAO ZORA, VPT2 properties, NMR spectrum
   Ute Becker             : Parallelization
   Giovanni Bistoni       : ED, misc. LED, open-shell LED, HFLD
   Martin Brehm           : Molecular dynamics
   Dmytro Bykov           : SCF Hessian
   Vijay G. Chilkuri      : MRCI spin determinant printing, contributions to CSF-ICE
   Dipayan Datta          : RHF DLPNO-CCSD density
   Achintya Kumar Dutta   : EOM-CC, STEOM-CC
   Dmitry Ganyushin       : Spin-Orbit,Spin-Spin,Magnetic field MRCI
   Miquel Garcia          : C-PCM and meta-GGA Hessian, CC/C-PCM, Gaussian charge scheme
   Yang Guo               : DLPNO-NEVPT2, F12-NEVPT2, CIM, IAO-localization
   Andreas Hansen         : Spin unrestricted coupled pair/coupled cluster methods
   Benjamin Helmich-Paris : MC-RPA, TRAH-SCF, COSX integrals
   Lee Huntington         : MR-EOM, pCC
   Robert Izsak           : Overlap fitted RIJCOSX, COSX-SCS-MP3, EOM
   Marcus Kettner         : VPT2
   Christian Kollmar      : KDIIS, OOCD, Brueckner-CCSD(T), CCSD density, CASPT2, CASPT2-K
   Simone Kossmann        : Meta GGA functionals, TD-DFT gradient, OOMP2, MP2 Hessian
   Martin Krupicka        : Initial AUTO-CI
   Lucas Lang             : DCDCAS
   Marvin Lechner         : AUTO-CI (C++ implementation), FIC-MRCC
   Dagmar Lenk            : GEPOL surface, SMD
   Dimitrios Liakos       : Extrapolation schemes; Compound Job, initial MDCI parallelization
   Dimitrios Manganas     : Further ROCIS development; embedding schemes
   Dimitrios Pantazis     : SARC Basis sets
   Anastasios Papadopoulos: AUTO-CI, single reference methods and gradients
   Taras Petrenko         : DFT Hessian,TD-DFT gradient, ASA, ECA, R-Raman, ABS, FL, XAS/XES, NRVS
   Peter Pinski           : DLPNO-MP2, DLPNO-MP2 Gradient
   Christoph Reimann      : Effective Core Potentials
   Marius Retegan         : Local ZFS, SOC
   Christoph Riplinger    : Optimizer, TS searches, QM/MM, DLPNO-CCSD(T), (RO)-DLPNO pert. Triples
   Tobias Risthaus        : Range-separated hybrids, TD-DFT gradient, RPA, STAB
   Michael Roemelt        : Original ROCIS implementation
   Masaaki Saitow         : Open-shell DLPNO-CCSD energy and density
   Barbara Sandhoefer     : DKH picture change effects
   Avijit Sen             : IP-ROCIS
   Kantharuban Sivalingam : CASSCF convergence, NEVPT2, FIC-MRCI
   Bernardo de Souza      : ESD, SOC TD-DFT
   Georgi Stoychev        : AutoAux, RI-MP2 NMR, DLPNO-MP2 response
   Willem Van den Heuvel  : Paramagnetic NMR
   Boris Wezisla          : Elementary symmetry handling
   Frank Wennmohs         : Technical directorship


 We gratefully acknowledge several colleagues who have allowed us to
 interface, adapt or use parts of their codes:
   Stefan Grimme, W. Hujo, H. Kruse, P. Pracht,  : VdW corrections, initial TS optimization,
                  C. Bannwarth, S. Ehlert          DFT functionals, gCP, sTDA/sTD-DF
   Ed Valeev, F. Pavosevic, A. Kumar             : LibInt (2-el integral package), F12 methods
   Garnet Chan, S. Sharma, J. Yang, R. Olivares  : DMRG
   Ulf Ekstrom                                   : XCFun DFT Library
   Mihaly Kallay                                 : mrcc  (arbitrary order and MRCC methods)
   Jiri Pittner, Ondrej Demel                    : Mk-CCSD
   Frank Weinhold                                : gennbo (NPA and NBO analysis)
   Christopher J. Cramer and Donald G. Truhlar   : smd solvation model
   Lars Goerigk                                  : TD-DFT with DH, B97 family of functionals
   V. Asgeirsson, H. Jonsson                     : NEB implementation
   FAccTs GmbH                                   : IRC, NEB, NEB-TS, DLPNO-Multilevel, CI-OPT
                                                   MM, QMMM, 2- and 3-layer-ONIOM, Crystal-QMMM,
                                                   LR-CPCM, SF, NACMEs, symmetry and pop. for TD-DFT,
                                                   nearIR, NL-DFT gradient (VV10), updates on ESD,
                                                   ML-optimized integration grids
   S Lehtola, MJT Oliveira, MAL Marques          : LibXC Library
   Liviu Ungur et al                             : ANISO software


 Your calculation uses the libint2 library for the computation of 2-el integrals
 For citations please refer to: http://libint.valeyev.net

 Your ORCA version has been built with support for libXC version: 5.1.0
 For citations please refer to: https://tddft.org/programs/libxc/

 This ORCA versions uses:
   CBLAS   interface :  Fast vector & matrix operations
   LAPACKE interface :  Fast linear algebra routines
   SCALAPACK package :  Parallel linear algebra routines
   Shared memory     :  Shared parallel matrices
   BLAS/LAPACK       :  OpenBLAS 0.3.15  USE64BITINT DYNAMIC_ARCH NO_AFFINITY Sandybridge SINGLE_THREADED
        Core in use  :  Sandybridge
   Copyright (c) 2011-2014, The OpenBLAS Project


================================================================================

----- Orbital basis set information -----
Your calculation utilizes the basis: cc-pVDZ 
       H, B-Ne : Obtained from the ccRepo (grant-hill.group.shef.ac.uk/ccrepo) Feb. 2017
                 T. H. Dunning, Jr., J. Chem. Phys. 90, 1007 (1989)
            He : Obtained from the ccRepo (grant-hill.group.shef.ac.uk/ccrepo) Feb. 2017
                 D. E. Woon, T. H. Dunning, Jr., J. Chem. Phys. 100, 2975 (1994)
  Li-Be, Na-Mg : Obtained from the ccRepo (grant-hill.group.shef.ac.uk/ccrepo) Feb. 2017
                 B. P. Prascher, D. E. Woon, K. A. Peterson, T. H. Dunning, Jr., A. K. Wilson, Theor. Chem. Acc. 128, 69 (2011)
         Al-Ar : Obtained from the ccRepo (grant-hill.group.shef.ac.uk/ccrepo) Feb. 2017
                 D. E. Woon, T. H. Dunning, Jr., J. Chem. Phys. 98, 1358 (1993)
            Ca : Obtained from the Peterson Research Group Website (tyr0.chem.wsu.edu/~kipeters) Feb. 2017
                 J. Koput, K. A. Peterson, J. Phys. Chem. 106, 9595 (2002)
         Sc-Zn : Obtained from the ccRepo (grant-hill.group.shef.ac.uk/ccrepo) Feb. 2017
                 N. B. Balabanov, K. A. Peterson, J. Chem. Phys. 123, 064107 (2005)
                 N. B. Balabanov, K. A. Peterson, J. Chem. Phys. 125, 074110 (2006)
         Ga-Kr : Obtained from the ccRepo (grant-hill.group.shef.ac.uk/ccrepo) Feb. 2017
                 A. K. Wilson, D. E. Woon, K. A. Peterson, T. H. Dunning, Jr., J. Chem. Phys. 110, 7667 (1999)

================================================================================
                                        WARNINGS
                       Please study these warnings very carefully!
================================================================================


WARNING: No MP2 level density has been requested!
         To caclulate MP2 level properties use
         %mp2 Density relaxed end
         or
         %mp2 Density unrelaxed end

WARNING: Post HF methods need fully converged wavefunctions
  ===> : Setting SCFConvForced true
         You can overwrite this default with %scf ConvForced false 


INFO   : the flag for use of the SHARK integral package has been found!

================================================================================
                                       INPUT FILE
================================================================================
NAME = /scratch/allen/tmpyp4_amber_gaff2/2.Mdgx/conf11/conf11/Conf92.orca
|  1> ! PAL2
|  2> ! mp2 cc-pvdz TightSCF  NoKeepInts
|  3> 
|  4> %scf
|  5>   MaxCore 2000
|  6> end
|  7> %mp2
|  8>   MaxCore 2000
|  9> end
| 10> * xyz 0 1
| 11>    C       -3.99700         5.86000        -1.07900
| 12>    C        1.47400         4.04100         0.05700
| 13>    C       -2.80200         4.09300         0.04900
| 14>    C       -3.19200         4.67500         1.26500
| 15>    C       -3.96700         5.81800         1.27000
| 16>    C       -5.21700         7.59800         0.14800
| 17>    C        0.13200         4.30700         0.06100
| 18>    C       -0.56900         3.05600         0.04700
| 19>    C        1.64900         2.61800         0.02300
| 20>    C       -3.22800         4.71400        -1.13500
| 21>    N       -4.35600         6.39600         0.10900
| 22>    N        0.38800         2.06700         0.02500
| 23>    N       -2.01000         0.39500        -0.07500
| 24>    N       -0.38800        -2.07400        -0.02700
| 25>    N        2.01000        -0.40100         0.06500
| 26>    C       -1.96000         2.86100         0.02400
| 27>    C       -2.62300         1.61500        -0.01800
| 28>    C       -5.57300        -4.32900         1.06600
| 29>    C       -4.07300         1.47100         0.05600
| 30>    C       -4.10600        -2.75600        -0.02600
| 31>    C       -4.99500        -2.75700        -1.11100
| 32>    C       -6.13200        -3.54200        -1.07600
| 33>    C       -7.65100        -5.11300         0.04000
| 34>    C       -4.32400         0.14100         0.03700
| 35>    C       -3.02500        -0.52000        -0.04800
| 36>    C       -4.42200        -3.56600         1.07500
| 37>    N       -6.40700        -4.31300         0.00100
| 38>    C       -2.86700        -1.92200        -0.04000
| 39>    C       -1.65000        -2.62400        -0.02700
| 40>    C        3.56800        -6.14200        -1.04000
| 41>    C       -1.47600        -4.04900        -0.03400
| 42>    C        2.80300        -4.09900        -0.00800
| 43>    C        3.65700        -4.38400         1.06900
| 44>    C        4.42700        -5.53000         1.05900
| 45>    C        5.24500        -7.58800         0.01400
| 46>    C       -0.13400        -4.31500        -0.02200
| 47>    C        0.56800        -3.06400        -0.02700
| 48>    C        2.77500        -5.01200        -1.07400
| 49>    N        4.37600        -6.39100         0.01700
| 50>    C        1.95900        -2.86900        -0.00900
| 51>    C        2.62100        -1.62200         0.00900
| 52>    C        5.54300         4.33900        -1.13000
| 53>    C        4.07000        -1.47900        -0.09400
| 54>    C        4.10400         2.75100        -0.02100
| 55>    C        5.02700         2.72900         1.03600
| 56>    C        6.16600         3.50900         0.97800
| 57>    C        7.61900         5.15300        -0.11500
| 58>    C        4.32100        -0.14800        -0.09200
| 59>    C        3.02500         0.51400         0.01500
| 60>    C        4.38700         3.58200        -1.11500
| 61>    C        2.86600         1.91600         0.01300
| 62>    N        6.41300         4.29600        -0.09500
| 63>    H       -4.33800         6.37900        -1.96700
| 64>    H        2.27400         4.76600         0.08100
| 65>    H       -2.90300         4.23700         2.21300
| 66>    H       -4.29900         6.29700         2.18100
| 67>    H       -6.26100         7.28500         0.22100
| 68>    H       -4.94400         8.19800         1.01600
| 69>    H       -5.06100         8.17100        -0.76500
| 70>    H       -0.33200         5.28200         0.06900
| 71>    H       -2.94800         4.32100        -2.10600
| 72>    H        0.18200         1.07200         0.00500
| 73>    H       -0.18300        -1.08000        -0.02100
| 74>    H       -5.86400        -4.96200         1.89500
| 75>    H       -4.79400         2.27200         0.13900
| 76>    H       -4.80000        -2.16000        -1.99400
| 77>    H       -6.84100        -3.58200        -1.89300
| 78>    H       -8.42800        -4.53600         0.54600
| 79>    H       -7.95600        -5.33700        -0.98100
| 80>    H       -7.45600        -6.03700         0.58400
| 81>    H       -5.28700        -0.34400         0.10000
| 82>    H       -3.78000        -3.60100         1.94700
| 83>    H        3.58700        -6.86800        -1.84300
| 84>    H       -2.27600        -4.77400        -0.05000
| 85>    H        3.71400        -3.72400         1.92600
| 86>    H        5.09200        -5.79500         1.87100
| 87>    H        6.20500        -7.32900        -0.43900
| 88>    H        5.39300        -7.91700         1.04200
| 89>    H        4.75900        -8.37300        -0.56400
| 90>    H        0.32900        -5.29000        -0.00800
| 91>    H        2.14600        -4.84200        -1.94000
| 92>    H        5.80800         4.98600        -1.95600
| 93>    H        4.78800        -2.28100        -0.18500
| 94>    H        4.86000         2.11400         1.91200
| 95>    H        6.90100         3.53100         1.77200
| 96>    H        7.38300         6.10900         0.35600
| 97>    H        8.41400         4.65200         0.43500
| 98>    H        7.92100         5.31000        -1.15000
| 99>    H        5.28300         0.33600        -0.17900
|100>    H        3.72000         3.63200        -1.96700
|101> *
|102> 
|103>                          ****END OF INPUT****
================================================================================

                       ****************************
                       * Single Point Calculation *
                       ****************************

---------------------------------
CARTESIAN COORDINATES (ANGSTROEM)
---------------------------------
  C     -3.997000    5.860000   -1.079000
  C      1.474000    4.041000    0.057000
  C     -2.802000    4.093000    0.049000
  C     -3.192000    4.675000    1.265000
  C     -3.967000    5.818000    1.270000
  C     -5.217000    7.598000    0.148000
  C      0.132000    4.307000    0.061000
  C     -0.569000    3.056000    0.047000
  C      1.649000    2.618000    0.023000
  C     -3.228000    4.714000   -1.135000
  N     -4.356000    6.396000    0.109000
  N      0.388000    2.067000    0.025000
  N     -2.010000    0.395000   -0.075000
  N     -0.388000   -2.074000   -0.027000
  N      2.010000   -0.401000    0.065000
  C     -1.960000    2.861000    0.024000
  C     -2.623000    1.615000   -0.018000
  C     -5.573000   -4.329000    1.066000
  C     -4.073000    1.471000    0.056000
  C     -4.106000   -2.756000   -0.026000
  C     -4.995000   -2.757000   -1.111000
  C     -6.132000   -3.542000   -1.076000
  C     -7.651000   -5.113000    0.040000
  C     -4.324000    0.141000    0.037000
  C     -3.025000   -0.520000   -0.048000
  C     -4.422000   -3.566000    1.075000
  N     -6.407000   -4.313000    0.001000
  C     -2.867000   -1.922000   -0.040000
  C     -1.650000   -2.624000   -0.027000
  C      3.568000   -6.142000   -1.040000
  C     -1.476000   -4.049000   -0.034000
  C      2.803000   -4.099000   -0.008000
  C      3.657000   -4.384000    1.069000
  C      4.427000   -5.530000    1.059000
  C      5.245000   -7.588000    0.014000
  C     -0.134000   -4.315000   -0.022000
  C      0.568000   -3.064000   -0.027000
  C      2.775000   -5.012000   -1.074000
  N      4.376000   -6.391000    0.017000
  C      1.959000   -2.869000   -0.009000
  C      2.621000   -1.622000    0.009000
  C      5.543000    4.339000   -1.130000
  C      4.070000   -1.479000   -0.094000
  C      4.104000    2.751000   -0.021000
  C      5.027000    2.729000    1.036000
  C      6.166000    3.509000    0.978000
  C      7.619000    5.153000   -0.115000
  C      4.321000   -0.148000   -0.092000
  C      3.025000    0.514000    0.015000
  C      4.387000    3.582000   -1.115000
  C      2.866000    1.916000    0.013000
  N      6.413000    4.296000   -0.095000
  H     -4.338000    6.379000   -1.967000
  H      2.274000    4.766000    0.081000
  H     -2.903000    4.237000    2.213000
  H     -4.299000    6.297000    2.181000
  H     -6.261000    7.285000    0.221000
  H     -4.944000    8.198000    1.016000
  H     -5.061000    8.171000   -0.765000
  H     -0.332000    5.282000    0.069000
  H     -2.948000    4.321000   -2.106000
  H      0.182000    1.072000    0.005000
  H     -0.183000   -1.080000   -0.021000
  H     -5.864000   -4.962000    1.895000
  H     -4.794000    2.272000    0.139000
  H     -4.800000   -2.160000   -1.994000
  H     -6.841000   -3.582000   -1.893000
  H     -8.428000   -4.536000    0.546000
  H     -7.956000   -5.337000   -0.981000
  H     -7.456000   -6.037000    0.584000
  H     -5.287000   -0.344000    0.100000
  H     -3.780000   -3.601000    1.947000
  H      3.587000   -6.868000   -1.843000
  H     -2.276000   -4.774000   -0.050000
  H      3.714000   -3.724000    1.926000
  H      5.092000   -5.795000    1.871000
  H      6.205000   -7.329000   -0.439000
  H      5.393000   -7.917000    1.042000
  H      4.759000   -8.373000   -0.564000
  H      0.329000   -5.290000   -0.008000
  H      2.146000   -4.842000   -1.940000
  H      5.808000    4.986000   -1.956000
  H      4.788000   -2.281000   -0.185000
  H      4.860000    2.114000    1.912000
  H      6.901000    3.531000    1.772000
  H      7.383000    6.109000    0.356000
  H      8.414000    4.652000    0.435000
  H      7.921000    5.310000   -1.150000
  H      5.283000    0.336000   -0.179000
  H      3.720000    3.632000   -1.967000

----------------------------
CARTESIAN COORDINATES (A.U.)
----------------------------
  NO LB      ZA    FRAG     MASS         X           Y           Z
   0 C     6.0000    0    12.011   -7.553235   11.073795   -2.039014
   1 C     6.0000    0    12.011    2.785456    7.636383    0.107714
   2 C     6.0000    0    12.011   -5.295013    7.734649    0.092597
   3 C     6.0000    0    12.011   -6.032006    8.834470    2.390504
   4 C     6.0000    0    12.011   -7.496544   10.994427    2.399952
   5 C     6.0000    0    12.011   -9.858701   14.358139    0.279679
   6 C     6.0000    0    12.011    0.249444    8.139050    0.115273
   7 C     6.0000    0    12.011   -1.075254    5.775003    0.088817
   8 C     6.0000    0    12.011    3.116158    4.947303    0.043464
   9 C     6.0000    0    12.011   -6.100036    8.908169   -2.144839
  10 N     7.0000    0    14.007   -8.231647   12.086688    0.205980
  11 N     7.0000    0    14.007    0.733214    3.906064    0.047243
  12 N     7.0000    0    14.007   -3.798350    0.746442   -0.141729
  13 N     7.0000    0    14.007   -0.733214   -3.919292   -0.051023
  14 N     7.0000    0    14.007    3.798350   -0.757780    0.122832
  15 C     6.0000    0    12.011   -3.703863    5.406506    0.045353
  16 C     6.0000    0    12.011   -4.956752    3.051908   -0.034015
  17 C     6.0000    0    12.011  -10.531444   -8.180624    2.014448
  18 C     6.0000    0    12.011   -7.696855    2.779787    0.105825
  19 C     6.0000    0    12.011   -7.759216   -5.208085   -0.049133
  20 C     6.0000    0    12.011   -9.439182   -5.209975   -2.099486
  21 C     6.0000    0    12.011  -11.587801   -6.693410   -2.033345
  22 C     6.0000    0    12.011  -14.458295   -9.662170    0.075589
  23 C     6.0000    0    12.011   -8.171176    0.266451    0.069920
  24 C     6.0000    0    12.011   -5.716422   -0.982658   -0.090707
  25 C     6.0000    0    12.011   -8.356369   -6.738763    2.031456
  26 N     7.0000    0    14.007  -12.107475   -8.150389    0.001890
  27 C     6.0000    0    12.011   -5.417845   -3.632054   -0.075589
  28 C     6.0000    0    12.011   -3.118048   -4.958641   -0.051023
  29 C     6.0000    0    12.011    6.742543  -11.606698   -1.965315
  30 C     6.0000    0    12.011   -2.789236   -7.651501   -0.064251
  31 C     6.0000    0    12.011    5.296902   -7.745987   -0.015118
  32 C     6.0000    0    12.011    6.910728   -8.284559    2.020117
  33 C     6.0000    0    12.011    8.365818  -10.450186    2.001220
  34 C     6.0000    0    12.011    9.911614  -14.339242    0.026456
  35 C     6.0000    0    12.011   -0.253223   -8.154168   -0.041574
  36 C     6.0000    0    12.011    1.073364   -5.790121   -0.051023
  37 C     6.0000    0    12.011    5.243990   -9.471307   -2.029566
  38 N     7.0000    0    14.007    8.269442  -12.077240    0.032125
  39 C     6.0000    0    12.011    3.701973   -5.421624   -0.017008
  40 C     6.0000    0    12.011    4.952972   -3.065136    0.017008
  41 C     6.0000    0    12.011   10.474752    8.199522   -2.135391
  42 C     6.0000    0    12.011    7.691185   -2.794905   -0.177634
  43 C     6.0000    0    12.011    7.755436    5.198637   -0.039684
  44 C     6.0000    0    12.011    9.499653    5.157063    1.957756
  45 C     6.0000    0    12.011   11.652051    6.631049    1.848152
  46 C     6.0000    0    12.011   14.397823    9.737759   -0.217319
  47 C     6.0000    0    12.011    8.165507   -0.279679   -0.173855
  48 C     6.0000    0    12.011    5.716422    0.971319    0.028346
  49 C     6.0000    0    12.011    8.290229    6.768999   -2.107045
  50 C     6.0000    0    12.011    5.415955    3.620715    0.024566
  51 N     7.0000    0    14.007   12.118814    8.118263   -0.179524
  52 H     1.0000    0     1.008   -8.197632   12.054563   -3.717091
  53 H     1.0000    0     1.008    4.297237    9.006435    0.153068
  54 H     1.0000    0     1.008   -5.485875    8.006770    4.181964
  55 H     1.0000    0     1.008   -8.123933   11.899605    4.121493
  56 H     1.0000    0     1.008  -11.831575   13.766655    0.417629
  57 H     1.0000    0     1.008   -9.342806   15.491975    1.919962
  58 H     1.0000    0     1.008   -9.563904   15.440952   -1.445640
  59 H     1.0000    0     1.008   -0.627389    9.981533    0.130391
  60 H     1.0000    0     1.008   -5.570913    8.165507   -3.979763
  61 H     1.0000    0     1.008    0.343930    2.025786    0.009449
  62 H     1.0000    0     1.008   -0.345820   -2.040904   -0.039684
  63 H     1.0000    0     1.008  -11.081354   -9.376821    3.581031
  64 H     1.0000    0     1.008   -9.059347    4.293458    0.262672
  65 H     1.0000    0     1.008   -9.070685   -4.081808   -3.768114
  66 H     1.0000    0     1.008  -12.927616   -6.768999   -3.577252
  67 H     1.0000    0     1.008  -15.926612   -8.571798    1.031790
  68 H     1.0000    0     1.008  -15.034661  -10.085468   -1.853821
  69 H     1.0000    0     1.008  -14.089798  -11.408277    1.103600
  70 H     1.0000    0     1.008   -9.990982   -0.650066    0.188973
  71 H     1.0000    0     1.008   -7.143165   -6.804904    3.679297
  72 H     1.0000    0     1.008    6.778448  -12.978639   -3.482765
  73 H     1.0000    0     1.008   -4.301017   -9.021553   -0.094486
  74 H     1.0000    0     1.008    7.018443   -7.037340    3.639613
  75 H     1.0000    0     1.008    9.622485  -10.950963    3.535678
  76 H     1.0000    0     1.008   11.725751  -13.849803   -0.829590
  77 H     1.0000    0     1.008   10.191293  -14.960962    1.969095
  78 H     1.0000    0     1.008    8.993207  -15.822677   -1.065806
  79 H     1.0000    0     1.008    0.621720   -9.996651   -0.015118
  80 H     1.0000    0     1.008    4.055352   -9.150054   -3.666069
  81 H     1.0000    0     1.008   10.975529    9.422175   -3.696304
  82 H     1.0000    0     1.008    9.048009   -4.310465   -0.349599
  83 H     1.0000    0     1.008    9.184069    3.994881    3.613156
  84 H     1.0000    0     1.008   13.041000    6.672623    3.348595
  85 H     1.0000    0     1.008   13.951848   11.544337    0.672743
  86 H     1.0000    0     1.008   15.900156    8.791006    0.822031
  87 H     1.0000    0     1.008   14.968521   10.034446   -2.173185
  88 H     1.0000    0     1.008    9.983423    0.634948   -0.338261
  89 H     1.0000    0     1.008    7.029781    6.863485   -3.717091

--------------------------------
INTERNAL COORDINATES (ANGSTROEM)
--------------------------------
 C      0   0   0     0.000000000000     0.00000000     0.00000000
 C      1   0   0     5.876316703514     0.00000000     0.00000000
 C      1   2   0     2.413026730063    38.91180980     0.00000000
 C      3   1   2     1.403381630206    87.92191095   107.75164047
 C      4   3   1     1.380977552316   120.15499328     0.14593036
 C      5   4   3     2.447403522103   152.49091533     1.62736797
 C      2   1   3     1.368114030335    13.37573883   333.66093684
 C      7   2   3     1.434084376876   108.05010202     0.84668783
 C      2   1   3     1.434123425651   114.59318426    37.66523351
 C      1   2   3     1.381236040653    39.88459776   311.56872851
 N      1   2   3     1.351858350568   101.54222559    76.40678310
 N      9   2   1     1.376127174356   106.58526707   346.59263558
 N     12   9   2     2.925062050624   168.53581413   171.12065651
 N     13  12   9     2.954513327098    91.55032014    11.12112580
 N     14  13  12     2.925371258490    88.43092389   359.84326247
 C      8   7   2     1.404790019896   127.24786865   181.11170171
 C     13  12   9     1.366535034311    81.72106996   188.00453233
 C     14  13  12     5.758810554272    80.56209567   166.76250791
 C     17  13  12     1.459010623676   111.08861209   183.82872609
 C     18  14  13     2.412235892279    27.27532823    36.33507194
 C     20  18  14     1.402692767501    87.95206320   148.94598259
 C     21  20  18     1.382106725257   120.14573887   359.70382047
 C     18  14  13     2.446510985056   144.15733107    82.80075377
 C     19  17  13     1.353610726908   106.29293361   359.75308708
 C     13  12   9     1.366813447402   172.21332906    33.46711076
 C     18  14  13     1.380960173213    15.08449437   309.23336894
 N     22  21  20     1.352773077792   120.73759875     0.27865223
 C     25  13  17     1.410897586645   125.60330303   182.37774668
 C     14  13  12     1.376642291955    80.24689249   177.85461986
 C     14  13  12     5.764089607215   164.51507311   312.20821879
 C     29  14  13     1.435600919476   106.58649366   178.76395472
 C     30  14  13     2.413316804732    27.10625047    82.12560436
 C     32  30  14     1.403734305344    87.90059683   149.76154742
 C     33  32  30     1.380694028378   120.14881443   359.74174632
 C     34  33  32     2.448777858443   152.49203239     2.45173620
 C     31  29  14     1.368160809262   108.16950133     0.70383075
 C     14  13  12     1.376239804685   169.26375223   353.09862627
 C     30  14  13     1.380907310430    14.68948582   353.70041132
 N     34  33  32     1.352658863128   120.85575621     0.19603406
 C     37  14  29     1.404717053360   126.01551127   180.90772073
 C     15  14  13     1.366491126938    81.61824056   183.09049352
 C      2   1   3     4.249062720177   144.67220250   160.57161076
 C     41  15  14     1.459677704153   111.05201287   175.08990246
 C     42   2   1     2.412953791518    41.78584867   206.21914568
 C     44  42   2     1.403446472082    87.95153797   233.97558675
 C     45  44  42     1.381696421071   120.11137308     0.19721020
 C     42   2   1     2.450019795838   135.97209175   116.53399478
 C     43  41  15     1.354461516618   106.26758155     0.30894352
 C     15  14  13     1.367461151185   171.87382904   332.35056460
 C     42   2   1     1.381886391857    32.59078432   255.07442487
 C      9   2   1     1.404988612053   126.98745415   167.59697311
 N     42   2   1     1.352765315936   113.57249190   144.27058398
 H      1   2   3     1.083598634181   126.84626730   212.68811015
 H      2   1   3     1.079907866440   119.09031549   206.15885087
 H      4   3   1     1.083544646058   121.08625655   179.55321774
 H      5   4   3     1.081473994139   122.81440046   179.44282707
 H      6   5   4     1.092352507206   104.42433295   100.10699348
 H      6   5   4     1.089932566721    84.68388565   209.53956522
 H      6   5   4     1.089143700344   133.93019736   322.33356556
 H      7   2  54     1.079807853278   126.66122480     1.30600390
 H     10   1   2     1.084292395989   118.73754546   250.31065009
 H     12   9   2     1.016297692608   125.29023241   180.00180175
 H     14  13  12     1.014936943854    44.97226959   359.42596618
 H     18  14  13     1.082871645210   128.03556573   234.20482432
 H     19  17  13     1.080893611786   126.41830519   178.11313280
 H     21  20  18     1.083569563987   121.05669627   180.67006309
 H     22  21  20     1.082483256222   122.73097286   180.59748951
 H     23  18  14     1.092105306278   103.92715769   234.93429879
 H     23  18  14     1.088871893291   134.19244188    12.25587044
 H     23  18  14     1.089833473518    84.85857450   125.45241208
 H     24  19  17     1.080075460327   127.28078426   178.44613241
 H     26  18  14     1.083408048706   118.76995697   244.94906660
 H     30  14  13     1.082703098730   127.99711412   279.66882698
 H     31  29  14     1.079759695488   125.22293469   180.92530585
 H     33  32  30     1.083188810873   121.01964473   180.74284758
 H     34  33  32     1.082494341787   122.70821597   180.59516895
 H     35  34  33     1.092652735319   105.73575241    97.19771933
 H     35  34  33     1.089462711615    84.05943581   206.43036958
 H     35  34  33     1.089268102902   133.08365142   318.50306270
 H     36  31  29     1.079439669458   126.61599965   178.98859863
 H     38  30  73     1.083742127999   118.77264435   359.90091293
 H     42   2   1     1.082178358682   119.31790784     0.90211443
 H     43  41  15     1.080281907652   126.36969097   182.06329380
 H     45  44  42     1.083277434455   121.10105945   179.58025624
 H     46  45  44     1.082194529648   122.72144639   179.46906377
 H     47  42   2     1.091546151109   106.65128841   315.16475048
 H     47  42   2     1.088818625851   132.46019523    94.52397119
 H     47  42   2     1.089531091801    83.63838232   206.04504406
 H     48  43  41     1.080402239909   127.23657387   181.62955349
 H     50  42   2     1.083186502870   118.77001737    94.71359229

---------------------------
INTERNAL COORDINATES (A.U.)
---------------------------
 C      0   0   0     0.000000000000     0.00000000     0.00000000
 C      1   0   0    11.104629245829     0.00000000     0.00000000
 C      1   2   0     4.559959673651    38.91180980     0.00000000
 C      3   1   2     2.652006942466    87.92191095   107.75164047
 C      4   3   1     2.609669370970   120.15499328     0.14593036
 C      5   4   3     4.624922395968   152.49091533     1.62736797
 C      2   1   3     2.585360837309    13.37573883   333.66093684
 C      7   2   3     2.710026725231   108.05010202     0.84668783
 C      2   1   3     2.710100516721   114.59318426    37.66523351
 C      1   2   3     2.610157843137    39.88459776   311.56872851
 N      1   2   3     2.554642054428   101.54222559    76.40678310
 N      9   2   1     2.600503484979   106.58526707   346.59263558
 N     12   9   2     5.527566200405   168.53581413   171.12065651
 N     13  12   9     5.583221047236    91.55032014    11.12112580
 N     14  13  12     5.528150518591    88.43092389   359.84326247
 C      8   7   2     2.654668413270   127.24786865   181.11170171
 C     13  12   9     2.582376967257    81.72106996   188.00453233
 C     14  13  12    10.882574804710    80.56209567   166.76250791
 C     17  13  12     2.757130505230   111.08861209   183.82872609
 C     18  14  13     4.558465206823    27.27532823    36.33507194
 C     20  18  14     2.650705180609    87.95206320   148.94598259
 C     21  20  18     2.611803198586   120.14573887   359.70382047
 C     18  14  13     4.623235745386   144.15733107    82.80075377
 C     19  17  13     2.557953565794   106.29293361   359.75308708
 C     13  12   9     2.582903091751   172.21332906    33.46711076
 C     18  14  13     2.609636529225    15.08449437   309.23336894
 N     22  21  20     2.556370638369   120.73759875     0.27865223
 C     25  13  17     2.666210041769   125.60330303   182.37774668
 C     14  13  12     2.601476916169    80.24689249   177.85461986
 C     14  13  12    10.892550769017   164.51507311   312.20821879
 C     29  14  13     2.712892575415   106.58649366   178.76395472
 C     30  14  13     4.560507835333    27.10625047    82.12560436
 C     32  30  14     2.652673401891    87.90059683   149.76154742
 C     33  32  30     2.609133588376   120.14881443   359.74174632
 C     34  33  32     4.627519515267   152.49203239     2.45173620
 C     31  29  14     2.585449236669   108.16950133     0.70383075
 C     14  13  12     2.600716325456   169.26375223   353.09862627
 C     30  14  13     2.609536633043    14.68948582   353.70041132
 N     34  33  32     2.556154803934   120.85575621     0.19603406
 C     37  14  29     2.654530526499   126.01551127   180.90772073
 C     15  14  13     2.582293994346    81.61824056   183.09049352
 C      2   1   3     8.029564866989   144.67220250   160.57161076
 C     41  15  14     2.758391104639   111.05201287   175.08990246
 C     42   2   1     4.559821839776    41.78584867   206.21914568
 C     44  42   2     2.652129475853    87.95153797   233.97558675
 C     45  44  42     2.611027836043   120.11137308     0.19721020
 C     42   2   1     4.629866436820   135.97209175   116.53399478
 C     43  41  15     2.559561325344   106.26758155     0.30894352
 C     15  14  13     2.584127074516   171.87382904   332.35056460
 C     42   2   1     2.611386828803    32.59078432   255.07442487
 C      9   2   1     2.655043698059   126.98745415   167.59697311
 N     42   2   1     2.556355970587   113.57249190   144.27058398
 H      1   2   3     2.047704657694   126.84626730   212.68811015
 H      2   1   3     2.040730117440   119.09031549   206.15885087
 H      4   3   1     2.047602634925   121.08625655   179.55321774
 H      5   4   3     2.043689669882   122.81440046   179.44282707
 H      6   5   4     2.064247080322   104.42433295   100.10699348
 H      6   5   4     2.059674055545    84.68388565   209.53956522
 H      6   5   4     2.058183314137   133.93019736   322.33356556
 H      7   2  54     2.040541119952   126.66122480     1.30600390
 H     10   1   2     2.049015677513   118.73754546   250.31065009
 H     12   9   2     1.920524309565   125.29023241   180.00180175
 H     14  13  12     1.917952867083    44.97226959   359.42596618
 H     18  14  13     2.046330847636   128.03556573   234.20482432
 H     19  17  13     2.042592906181   126.41830519   178.11313280
 H     21  20  18     2.047649722989   121.05669627   180.67006309
 H     22  21  20     2.045596898814   122.73097286   180.59748951
 H     23  18  14     2.063779938267   103.92715769   234.93429879
 H     23  18  14     2.057669673245   134.19244188    12.25587044
 H     23  18  14     2.059486796529    84.85857450   125.45241208
 H     24  19  17     2.041046823986   127.28078426   178.44613241
 H     26  18  14     2.047344503340   118.76995697   244.94906660
 H     30  14  13     2.046012340948   127.99711412   279.66882698
 H     31  29  14     2.040450114918   125.22293469   180.92530585
 H     33  32  30     2.046930203877   121.01964473   180.74284758
 H     34  33  32     2.045617847496   122.70821597   180.59516895
 H     35  34  33     2.064814429233   105.73575241    97.19771933
 H     35  34  33     2.058786158072    84.05943581   206.43036958
 H     35  34  33     2.058418400901   133.08365142   318.50306270
 H     36  31  29     2.039845353366   126.61599965   178.98859863
 H     38  30  73     2.047975821711   118.77264435   359.90091293
 H     42   2   1     2.045020725966   119.31790784     0.90211443
 H     43  41  15     2.041436952892   126.36969097   182.06329380
 H     45  44  42     2.047097678177   121.10105945   179.58025624
 H     46  45  44     2.045051284662   122.72144639   179.46906377
 H     47  42   2     2.062723288131   106.65128841   315.16475048
 H     47  42   2     2.057569012371   132.46019523    94.52397119
 H     47  42   2     2.058915377895    83.63838232   206.04504406
 H     48  43  41     2.041664347903   127.23657387   181.62955349
 H     50  42   2     2.046925842384   118.77001737    94.71359229

---------------------
BASIS SET INFORMATION
---------------------
There are 3 groups of distinct atoms

 Group   1 Type C   : 17s4p1d contracted to 3s2p1d pattern {881/31/1}
 Group   2 Type N   : 17s4p1d contracted to 3s2p1d pattern {881/31/1}
 Group   3 Type H   : 4s1p contracted to 2s1p pattern {31/1}

Atom   0C    basis set group =>   1
Atom   1N    basis set group =>   2
Atom   2C    basis set group =>   1
Atom   3N    basis set group =>   2
Atom   4C    basis set group =>   1
Atom   5N    basis set group =>   2
Atom   6C    basis set group =>   1
Atom   7N    basis set group =>   2
Atom   8C    basis set group =>   1
Atom   9N    basis set group =>   2
Atom  10C    basis set group =>   1
Atom  11N    basis set group =>   2
Atom  12C    basis set group =>   1
Atom  13N    basis set group =>   2
Atom  14C    basis set group =>   1
Atom  15N    basis set group =>   2
Atom  16C    basis set group =>   1
Atom  17C    basis set group =>   1
Atom  18C    basis set group =>   1
Atom  19C    basis set group =>   1
Atom  20C    basis set group =>   1
Atom  21C    basis set group =>   1
Atom  22C    basis set group =>   1
Atom  23C    basis set group =>   1
Atom  24C    basis set group =>   1
Atom  25C    basis set group =>   1
Atom  26C    basis set group =>   1
Atom  27C    basis set group =>   1
Atom  28C    basis set group =>   1
Atom  29C    basis set group =>   1
Atom  30C    basis set group =>   1
Atom  31C    basis set group =>   1
Atom  32C    basis set group =>   1
Atom  33C    basis set group =>   1
Atom  34C    basis set group =>   1
Atom  35C    basis set group =>   1
Atom  36C    basis set group =>   1
Atom  37C    basis set group =>   1
Atom  38C    basis set group =>   1
Atom  39C    basis set group =>   1
Atom  40C    basis set group =>   1
Atom  41C    basis set group =>   1
Atom  42C    basis set group =>   1
Atom  43C    basis set group =>   1
Atom  44C    basis set group =>   1
Atom  45C    basis set group =>   1
Atom  46C    basis set group =>   1
Atom  47C    basis set group =>   1
Atom  48C    basis set group =>   1
Atom  49C    basis set group =>   1
Atom  50C    basis set group =>   1
Atom  51C    basis set group =>   1
Atom  52H    basis set group =>   3
Atom  53H    basis set group =>   3
Atom  54H    basis set group =>   3
Atom  55H    basis set group =>   3
Atom  56H    basis set group =>   3
Atom  57H    basis set group =>   3
Atom  58H    basis set group =>   3
Atom  59H    basis set group =>   3
Atom  60H    basis set group =>   3
Atom  61H    basis set group =>   3
Atom  62H    basis set group =>   3
Atom  63H    basis set group =>   3
Atom  64H    basis set group =>   3
Atom  65H    basis set group =>   3
Atom  66H    basis set group =>   3
Atom  67H    basis set group =>   3
Atom  68H    basis set group =>   3
Atom  69H    basis set group =>   3
Atom  70H    basis set group =>   3
Atom  71H    basis set group =>   3
Atom  72H    basis set group =>   3
Atom  73H    basis set group =>   3
Atom  74H    basis set group =>   3
Atom  75H    basis set group =>   3
Atom  76H    basis set group =>   3
Atom  77H    basis set group =>   3
Atom  78H    basis set group =>   3
Atom  79H    basis set group =>   3
Atom  80H    basis set group =>   3
Atom  81H    basis set group =>   3
Atom  82H    basis set group =>   3
Atom  83H    basis set group =>   3
Atom  84H    basis set group =>   3
Atom  85H    basis set group =>   3
Atom  86H    basis set group =>   3
Atom  87H    basis set group =>   3
Atom  88H    basis set group =>   3
Atom  89H    basis set group =>   3


           ************************************************************
           *        Program running with 16 parallel MPI-processes    *
           *              working on a common directory               *
           ************************************************************
------------------------------------------------------------------------------
                           ORCA GTO INTEGRAL CALCULATION
------------------------------------------------------------------------------
------------------------------------------------------------------------------
                   ___                                                        
                  /   \      - P O W E R E D   B Y -                         
                 /     \                                                     
                 |  |  |   _    _      __       _____    __    __             
                 |  |  |  | |  | |    /  \     |  _  \  |  |  /  |          
                  \  \/   | |  | |   /    \    | | | |  |  | /  /          
                 / \  \   | |__| |  /  /\  \   | |_| |  |  |/  /          
                |  |  |   |  __  | /  /__\  \  |    /   |      \           
                |  |  |   | |  | | |   __   |  |    \   |  |\   \          
                \     /   | |  | | |  |  |  |  | |\  \  |  | \   \       
                 \___/    |_|  |_| |__|  |__|  |_| \__\ |__|  \__/        
                                                                              
                      - O R C A' S   B I G   F R I E N D -                    
                                      &                                       
                       - I N T E G R A L  F E E D E R -                       
                                                                              
 v1 FN, 2020, v2 2021                                                         
------------------------------------------------------------------------------


Reading SHARK input file /scratch/allen/tmpyp4_amber_gaff2/conf1/conf1/Conf92.orca.SHARKINP.tmp ... ok
----------------------
SHARK INTEGRAL PACKAGE
----------------------

Number of atoms                             ...     90
Number of basis functions                   ...   1230
Number of shells                            ...    738
Maximum angular momentum                    ...      2
Integral batch strategy                     ... SHARK/LIBINT Hybrid
RI-J (if used) integral strategy            ... SPLIT-RIJ (Revised 2003 algorithm where possible)
Printlevel                                  ...      1
Contraction scheme used                     ... PARTIAL GENERAL contraction
Coulomb Range Separation                    ... NOT USED
Exchange Range Separation                   ... NOT USED
Finite Nucleus Model                        ... NOT USED
Auxiliary Coulomb fitting basis             ... NOT available
Auxiliary J/K fitting basis                 ... NOT available
Auxiliary Correlation fitting basis         ... NOT available
Auxiliary 'external' fitting basis          ... NOT available
Integral threshold                          ...     2.500000e-11
Primitive cut-off                           ...     2.500000e-12
Primitive pair pre-selection threshold      ...     2.500000e-12

Calculating pre-screening integrals         ... done (  0.1 sec) Dimension = 738
Calculating pre-screening integrals (ORCA)  ... done (  0.3 sec) Dimension = 426
Organizing shell pair data                  ... done (  0.5 sec)
Shell pair information
Total number of shell pairs                 ...    272691
Shell pairs after pre-screening             ...     71633
Total number of primitive shell pairs       ...    422091
Primitive shell pairs kept                  ...     92358
          la=0 lb=0:  29418 shell pairs
          la=1 lb=0:  25980 shell pairs
          la=1 lb=1:   4689 shell pairs
          la=2 lb=0:   7899 shell pairs
          la=2 lb=1:   3116 shell pairs
          la=2 lb=2:    531 shell pairs

Calculating one electron integrals          ... done (  0.2 sec)
Calculating Nuclear repulsion               ... done (  0.0 sec) ENN=   6221.860142890811 Eh

SHARK setup successfully completed in   1.7 seconds

Maximum memory used throughout the entire GTOINT-calculation: 98.9 MB


           ************************************************************
           *        Program running with 16 parallel MPI-processes    *
           *              working on a common directory               *
           ************************************************************
-------------------------------------------------------------------------------
                                 ORCA SCF
-------------------------------------------------------------------------------

------------
SCF SETTINGS
------------
Hamiltonian:
 Ab initio Hamiltonian  Method          .... Hartree-Fock(GTOs)


General Settings:
 Integral files         IntName         .... /scratch/allen/tmpyp4_amber_gaff2/conf1/conf1/Conf92.orca
 Hartree-Fock type      HFTyp           .... RHF
 Total Charge           Charge          ....    0
 Multiplicity           Mult            ....    1
 Number of Electrons    NEL             ....  358
 Basis Dimension        Dim             ....  918
 Nuclear Repulsion      ENuc            ....   6221.8601428908 Eh

Convergence Acceleration:
 DIIS                   CNVDIIS         .... on
   Start iteration      DIISMaxIt       ....    12
   Startup error        DIISStart       ....  0.200000
   # of expansion vecs  DIISMaxEq       ....     5
   Bias factor          DIISBfac        ....   1.050
   Max. coefficient     DIISMaxC        ....  10.000
 Trust-Rad. Augm. Hess. CNVTRAH         .... auto
   Auto Start mean grad. ratio tolernc. ....  1.125000
   Auto Start start iteration           ....    20
   Auto Start num. interpolation iter.  ....    10
   Max. Number of Micro iterations      ....    16
   Max. Number of Macro iterations      .... Maxiter - #DIIS iter
   Number of Davidson start vectors     ....     2
   Converg. threshold I  (grad. norm)   ....   1.000e-05
   Converg. threshold II (energy diff.) ....   1.000e-08
   Grad. Scal. Fac. for Micro threshold ....   0.100
   Minimum threshold for Micro iter.    ....   0.010
   NR start threshold (gradient norm)   ....   0.001
   Initial trust radius                 ....   0.400
   Minimum AH scaling param. (alpha)    ....   1.000
   Maximum AH scaling param. (alpha)    .... 1000.000
   Orbital update algorithm             .... Taylor
   White noise on init. David. guess    .... on
   Maximum white noise                  ....   0.010
   Quad. conv. algorithm                .... NR
 SOSCF                  CNVSOSCF        .... on
   Start iteration      SOSCFMaxIt      ....   150
   Startup grad/error   SOSCFStart      ....  0.003300
 Level Shifting         CNVShift        .... on
   Level shift para.    LevelShift      ....    0.2500
   Turn off err/grad.   ShiftErr        ....    0.0010
 Zerner damping         CNVZerner       .... off
 Static damping         CNVDamp         .... on
   Fraction old density DampFac         ....    0.7000
   Max. Damping (<1)    DampMax         ....    0.9800
   Min. Damping (>=0)   DampMin         ....    0.0000
   Turn off err/grad.   DampErr         ....    0.1000
 Fernandez-Rico         CNVRico         .... off

SCF Procedure:
 Maximum # iterations   MaxIter         ....   125
 SCF integral mode      SCFMode         .... Direct
   Integral package                     .... SHARK and LIBINT hybrid scheme
 Reset frequency        DirectResetFreq ....    20
 Integral Threshold     Thresh          ....  2.500e-11 Eh
 Primitive CutOff       TCut            ....  2.500e-12 Eh

Convergence Tolerance:
 Convergence Check Mode ConvCheckMode   .... Total+1el-Energy
 Convergence forced     ConvForced      .... 1
 Energy Change          TolE            ....  1.000e-08 Eh
 1-El. energy change                    ....  1.000e-05 Eh
 Orbital Gradient       TolG            ....  1.000e-05
 Orbital Rotation angle TolX            ....  1.000e-05
 DIIS Error             TolErr          ....  5.000e-07


Diagonalization of the overlap matrix:
Smallest eigenvalue                        ... 2.264e-04
Time for diagonalization                   ...    0.401 sec
Threshold for overlap eigenvalues          ... 1.000e-08
Number of eigenvalues below threshold      ... 0
Time for construction of square roots      ...    0.191 sec
Total time needed                          ...    0.598 sec

Time for model grid setup =    1.002 sec

------------------------------
INITIAL GUESS: MODEL POTENTIAL
------------------------------
Loading Hartree-Fock densities                     ... done
Calculating cut-offs                               ... done
Initializing the effective Hamiltonian             ... done
Setting up the integral package (SHARK)            ... done
Starting the Coulomb interaction                   ... done (   1.1 sec)
Reading the grid                                   ... done
Mapping shells                                     ... done
Starting the XC term evaluation                    ... done (   0.2 sec)
Transforming the Hamiltonian                       ... done (   0.2 sec)
Diagonalizing the Hamiltonian                      ... done (   0.3 sec)
Back transforming the eigenvectors                 ... done (   0.1 sec)
Now organizing SCF variables                       ... done
                      ------------------
                      INITIAL GUESS DONE (   2.9 sec)
                      ------------------
--------------
SCF ITERATIONS
--------------
ITER       Energy         Delta-E        Max-DP      RMS-DP      [F,P]     Damp
               ***  Starting incremental Fock matrix formation  ***
  0  -2121.6410020665   0.000000000000 0.06934285  0.00121195  0.2351459 0.7000
  1  -2122.3100415090  -0.669039442570 0.05271935  0.00098189  0.1454703 0.7000
                               ***Turning on DIIS***
  2  -2122.7262478496  -0.416206340553 0.11741674  0.00221898  0.0807666 0.0000
  3  -2117.7698224311   4.956425418524 0.03448910  0.00068534  0.0442595 0.0000
  4  -2123.4141181051  -5.644295674068 0.00934907  0.00023058  0.0074001 0.0000
  5  -2123.5810023806  -0.166884275506 0.00554756  0.00013884  0.0051666 0.0000
  6  -2123.5595711319   0.021431248771 0.00470504  0.00009529  0.0024827 0.0000
  7  -2123.6637736919  -0.104202560062 0.00422773  0.00008062  0.0019608 0.0000
  8  -2123.6917860586  -0.028012366673 0.00412649  0.00008241  0.0018479 0.0000
                      *** Initiating the SOSCF procedure ***
                           *** Shutting down DIIS ***
                      *** Re-Reading the Fockian *** 
                      *** Removing any level shift *** 
ITER      Energy       Delta-E        Grad      Rot      Max-DP    RMS-DP
  9  -2123.65046732   0.0413187344  0.003185  0.003185  0.002993  0.000061
               *** Restarting incremental Fock matrix formation ***
 10  -2123.60750907   0.0429582541  0.002276  0.022428  0.006263  0.000103
 11  -2123.60820669  -0.0006976225  0.001478  0.074805  0.018457  0.000350
 12  -2123.60947194  -0.0012652481  0.001122  0.018624  0.005796  0.000089
 13  -2123.60981854  -0.0003466040  0.000916  0.020494  0.006586  0.000106
 14  -2123.61006077  -0.0002422252  0.000561  0.010637  0.003776  0.000050
 15  -2123.61014669  -0.0000859250  0.000357  0.010994  0.003583  0.000052
 16  -2123.61020618  -0.0000594846  0.000270  0.006378  0.001634  0.000026
 17  -2123.61022548  -0.0000192994  0.000133  0.001629  0.000588  0.000009
 18  -2123.61023020  -0.0000047245  0.000114  0.001762  0.000267  0.000007
 19  -2123.61023232  -0.0000021209  0.000073  0.002071  0.000319  0.000007
 20  -2123.61023371  -0.0000013890  0.000067  0.003126  0.000463  0.000009
 21  -2123.61023488  -0.0000011655  0.000038  0.002952  0.000511  0.000009
 22  -2123.61023567  -0.0000007886  0.000034  0.001861  0.000361  0.000006
 23  -2123.61023606  -0.0000003886  0.000026  0.000814  0.000244  0.000003
 24  -2123.61023627  -0.0000002097  0.000022  0.000561  0.000159  0.000002
 25  -2123.61023638  -0.0000001162  0.000018  0.000484  0.000138  0.000002
 26  -2123.61023646  -0.0000000772  0.000012  0.000412  0.000121  0.000002
 27  -2123.61023651  -0.0000000496  0.000009  0.000277  0.000086  0.000001
 28  -2123.61023653  -0.0000000258  0.000004  0.000061  0.000022  0.000000
 29  -2123.61023654  -0.0000000067  0.000003  0.000014  0.000008  0.000000
               *** Restarting incremental Fock matrix formation ***
                  ***Gradient check signals convergence***
              ***Rediagonalizing the Fockian in SOSCF/NRSCF***

               *****************************************************
               *                     SUCCESS                       *
               *           SCF CONVERGED AFTER  30 CYCLES          *
               *****************************************************


----------------
TOTAL SCF ENERGY
----------------

Total Energy       :        -2123.61023650 Eh          -57786.37234 eV

Components:
Nuclear Repulsion  :         6221.86014289 Eh          169305.42181 eV
Electronic Energy  :        -8345.47037939 Eh         -227091.79415 eV
One Electron Energy:       -15285.20871006 Eh         -415931.67456 eV
Two Electron Energy:         6939.73833067 Eh          188839.88041 eV

Virial components:
Potential Energy   :        -4245.59506796 Eh         -115528.51516 eV
Kinetic Energy     :         2121.98483146 Eh           57742.14282 eV
Virial Ratio       :            2.00076598


---------------
SCF CONVERGENCE
---------------

  Last Energy change         ...    4.2506e-08  Tolerance :   1.0000e-08
  Last MAX-Density change    ...    6.4214e-06  Tolerance :   1.0000e-07
  Last RMS-Density change    ...    1.2871e-07  Tolerance :   5.0000e-09
  Last Orbital Gradient      ...    1.3862e-06  Tolerance :   1.0000e-05
  Last Orbital Rotation      ...    1.9129e-05  Tolerance :   1.0000e-05

             **** THE GBW FILE WAS UPDATED (/scratch/allen/tmpyp4_amber_gaff2/conf1/conf1/Conf92.orca.gbw) ****
             **** DENSITY /scratch/allen/tmpyp4_amber_gaff2/conf1/conf1/Conf92.orca.scfp WAS UPDATED ****
             **** ENERGY FILE WAS UPDATED (/scratch/allen/tmpyp4_amber_gaff2/conf1/conf1/Conf92.orca.en.tmp) ****
             **** THE GBW FILE WAS UPDATED (/scratch/allen/tmpyp4_amber_gaff2/conf1/conf1/Conf92.orca.gbw) ****
             **** DENSITY /scratch/allen/tmpyp4_amber_gaff2/conf1/conf1/Conf92.orca.scfp WAS UPDATED ****
----------------
ORBITAL ENERGIES
----------------

  NO   OCC          E(Eh)            E(eV) 
   0   2.0000     -15.720506      -427.7767 
   1   2.0000     -15.628366      -425.2695 
   2   2.0000     -15.618318      -424.9960 
   3   2.0000     -15.576137      -423.8482 
   4   2.0000     -15.520717      -422.3402 
   5   2.0000     -15.504082      -421.8875 
   6   2.0000     -15.451438      -420.4550 
   7   2.0000     -15.426634      -419.7801 
   8   2.0000     -11.358427      -309.0785 
   9   2.0000     -11.356325      -309.0213 
  10   2.0000     -11.350386      -308.8597 
  11   2.0000     -11.314083      -307.8718 
  12   2.0000     -11.296322      -307.3886 
  13   2.0000     -11.290621      -307.2334 
  14   2.0000     -11.289447      -307.2015 
  15   2.0000     -11.286850      -307.1308 
  16   2.0000     -11.286819      -307.1300 
  17   2.0000     -11.281296      -306.9797 
  18   2.0000     -11.280275      -306.9519 
  19   2.0000     -11.271020      -306.7000 
  20   2.0000     -11.262893      -306.4789 
  21   2.0000     -11.242770      -305.9313 
  22   2.0000     -11.239027      -305.8295 
  23   2.0000     -11.232130      -305.6418 
  24   2.0000     -11.226721      -305.4946 
  25   2.0000     -11.225817      -305.4700 
  26   2.0000     -11.222632      -305.3833 
  27   2.0000     -11.218729      -305.2771 
  28   2.0000     -11.218434      -305.2691 
  29   2.0000     -11.211369      -305.0769 
  30   2.0000     -11.209531      -305.0268 
  31   2.0000     -11.195674      -304.6498 
  32   2.0000     -11.194526      -304.6185 
  33   2.0000     -11.193337      -304.5862 
  34   2.0000     -11.187908      -304.4385 
  35   2.0000     -11.187154      -304.4179 
  36   2.0000     -11.182740      -304.2978 
  37   2.0000     -11.179799      -304.2178 
  38   2.0000     -11.179668      -304.2142 
  39   2.0000     -11.178072      -304.1708 
  40   2.0000     -11.170467      -303.9639 
  41   2.0000     -11.165323      -303.8239 
  42   2.0000     -11.164726      -303.8077 
  43   2.0000     -11.162078      -303.7356 
  44   2.0000     -11.160456      -303.6915 
  45   2.0000     -11.144279      -303.2512 
  46   2.0000     -11.143655      -303.2343 
  47   2.0000     -11.140660      -303.1528 
  48   2.0000     -11.137081      -303.0554 
  49   2.0000     -11.130694      -302.8816 
  50   2.0000     -11.116314      -302.4903 
  51   2.0000     -11.110604      -302.3349 
  52   2.0000      -1.392125       -37.8816 
  53   2.0000      -1.316635       -35.8274 
  54   2.0000      -1.307358       -35.5750 
  55   2.0000      -1.271479       -34.5987 
  56   2.0000      -1.224551       -33.3217 
  57   2.0000      -1.200145       -32.6576 
  58   2.0000      -1.178487       -32.0683 
  59   2.0000      -1.165417       -31.7126 
  60   2.0000      -1.136597       -30.9284 
  61   2.0000      -1.109735       -30.1974 
  62   2.0000      -1.105981       -30.0953 
  63   2.0000      -1.097138       -29.8547 
  64   2.0000      -1.065725       -28.9998 
  65   2.0000      -1.057856       -28.7857 
  66   2.0000      -1.041104       -28.3299 
  67   2.0000      -1.032313       -28.0907 
  68   2.0000      -1.015298       -27.6277 
  69   2.0000      -1.003899       -27.3175 
  70   2.0000      -0.998723       -27.1766 
  71   2.0000      -0.995157       -27.0796 
  72   2.0000      -0.985571       -26.8187 
  73   2.0000      -0.975949       -26.5569 
  74   2.0000      -0.964476       -26.2447 
  75   2.0000      -0.961351       -26.1597 
  76   2.0000      -0.950747       -25.8712 
  77   2.0000      -0.940347       -25.5881 
  78   2.0000      -0.935635       -25.4599 
  79   2.0000      -0.919517       -25.0213 
  80   2.0000      -0.912073       -24.8188 
  81   2.0000      -0.891296       -24.2534 
  82   2.0000      -0.886823       -24.1317 
  83   2.0000      -0.868224       -23.6256 
  84   2.0000      -0.859841       -23.3975 
  85   2.0000      -0.846283       -23.0285 
  86   2.0000      -0.828964       -22.5573 
  87   2.0000      -0.826220       -22.4826 
  88   2.0000      -0.820073       -22.3153 
  89   2.0000      -0.794280       -21.6135 
  90   2.0000      -0.785684       -21.3795 
  91   2.0000      -0.772517       -21.0212 
  92   2.0000      -0.740638       -20.1538 
  93   2.0000      -0.733556       -19.9611 
  94   2.0000      -0.728906       -19.8345 
  95   2.0000      -0.724238       -19.7075 
  96   2.0000      -0.716285       -19.4911 
  97   2.0000      -0.710030       -19.3209 
  98   2.0000      -0.707529       -19.2528 
  99   2.0000      -0.704702       -19.1759 
 100   2.0000      -0.695812       -18.9340 
 101   2.0000      -0.688190       -18.7266 
 102   2.0000      -0.684046       -18.6138 
 103   2.0000      -0.675608       -18.3842 
 104   2.0000      -0.672342       -18.2954 
 105   2.0000      -0.671488       -18.2721 
 106   2.0000      -0.666691       -18.1416 
 107   2.0000      -0.661563       -18.0020 
 108   2.0000      -0.652059       -17.7434 
 109   2.0000      -0.648858       -17.6563 
 110   2.0000      -0.648392       -17.6436 
 111   2.0000      -0.641857       -17.4658 
 112   2.0000      -0.640428       -17.4269 
 113   2.0000      -0.634976       -17.2786 
 114   2.0000      -0.633784       -17.2461 
 115   2.0000      -0.629148       -17.1200 
 116   2.0000      -0.627050       -17.0629 
 117   2.0000      -0.614627       -16.7249 
 118   2.0000      -0.610789       -16.6204 
 119   2.0000      -0.608827       -16.5670 
 120   2.0000      -0.608312       -16.5530 
 121   2.0000      -0.600501       -16.3405 
 122   2.0000      -0.592738       -16.1292 
 123   2.0000      -0.589177       -16.0323 
 124   2.0000      -0.584104       -15.8943 
 125   2.0000      -0.578137       -15.7319 
 126   2.0000      -0.574663       -15.6374 
 127   2.0000      -0.571226       -15.5438 
 128   2.0000      -0.570508       -15.5243 
 129   2.0000      -0.569500       -15.4969 
 130   2.0000      -0.556290       -15.1374 
 131   2.0000      -0.542802       -14.7704 
 132   2.0000      -0.542007       -14.7487 
 133   2.0000      -0.538284       -14.6474 
 134   2.0000      -0.533494       -14.5171 
 135   2.0000      -0.529134       -14.3985 
 136   2.0000      -0.519459       -14.1352 
 137   2.0000      -0.515590       -14.0299 
 138   2.0000      -0.513737       -13.9795 
 139   2.0000      -0.512015       -13.9326 
 140   2.0000      -0.509718       -13.8701 
 141   2.0000      -0.503308       -13.6957 
 142   2.0000      -0.501103       -13.6357 
 143   2.0000      -0.497409       -13.5352 
 144   2.0000      -0.495296       -13.4777 
 145   2.0000      -0.492643       -13.4055 
 146   2.0000      -0.488393       -13.2899 
 147   2.0000      -0.473128       -12.8745 
 148   2.0000      -0.469979       -12.7888 
 149   2.0000      -0.465825       -12.6757 
 150   2.0000      -0.462883       -12.5957 
 151   2.0000      -0.460007       -12.5174 
 152   2.0000      -0.451949       -12.2981 
 153   2.0000      -0.440833       -11.9957 
 154   2.0000      -0.432586       -11.7713 
 155   2.0000      -0.430854       -11.7241 
 156   2.0000      -0.418479       -11.3874 
 157   2.0000      -0.416596       -11.3361 
 158   2.0000      -0.410936       -11.1821 
 159   2.0000      -0.410247       -11.1634 
 160   2.0000      -0.381479       -10.3806 
 161   2.0000      -0.369263       -10.0482 
 162   2.0000      -0.353269        -9.6129 
 163   2.0000      -0.351626        -9.5682 
 164   2.0000      -0.345443        -9.4000 
 165   2.0000      -0.341750        -9.2995 
 166   2.0000      -0.337877        -9.1941 
 167   2.0000      -0.316668        -8.6170 
 168   2.0000      -0.311700        -8.4818 
 169   2.0000      -0.305049        -8.3008 
 170   2.0000      -0.298095        -8.1116 
 171   2.0000      -0.282385        -7.6841 
 172   2.0000      -0.275413        -7.4944 
 173   2.0000      -0.266624        -7.2552 
 174   2.0000      -0.228690        -6.2230 
 175   2.0000      -0.182924        -4.9776 
 176   2.0000      -0.173116        -4.7107 
 177   2.0000      -0.062671        -1.7054 
 178   2.0000      -0.050786        -1.3819 
 179   0.0000       0.036256         0.9866 
 180   0.0000       0.054155         1.4736 
 181   0.0000       0.073150         1.9905 
 182   0.0000       0.098694         2.6856 
 183   0.0000       0.102313         2.7841 
 184   0.0000       0.122952         3.3457 
 185   0.0000       0.141516         3.8508 
 186   0.0000       0.149289         4.0624 
 187   0.0000       0.160546         4.3687 
 188   0.0000       0.165186         4.4949 
 189   0.0000       0.166877         4.5410 
 190   0.0000       0.167373         4.5545 
 191   0.0000       0.173328         4.7165 
 192   0.0000       0.180653         4.9158 
 193   0.0000       0.196028         5.3342 
 194   0.0000       0.199792         5.4366 
 195   0.0000       0.206016         5.6060 
 196   0.0000       0.212296         5.7769 
 197   0.0000       0.212568         5.7843 
 198   0.0000       0.216930         5.9030 
 199   0.0000       0.218130         5.9356 
 200   0.0000       0.229422         6.2429 
 201   0.0000       0.237105         6.4520 
 202   0.0000       0.237452         6.4614 
 203   0.0000       0.240165         6.5352 
 204   0.0000       0.241469         6.5707 
 205   0.0000       0.245287         6.6746 
 206   0.0000       0.247486         6.7344 
 207   0.0000       0.248895         6.7728 
 208   0.0000       0.251092         6.8326 
 209   0.0000       0.258311         7.0290 
 210   0.0000       0.263636         7.1739 
 211   0.0000       0.267178         7.2703 
 212   0.0000       0.268551         7.3077 
 213   0.0000       0.274052         7.4573 
 214   0.0000       0.279076         7.5941 
 215   0.0000       0.280731         7.6391 
 216   0.0000       0.283540         7.7155 
 217   0.0000       0.285245         7.7619 
 218   0.0000       0.287463         7.8223 
 219   0.0000       0.289606         7.8806 
 220   0.0000       0.290369         7.9013 
 221   0.0000       0.294557         8.0153 
 222   0.0000       0.299276         8.1437 
 223   0.0000       0.299919         8.1612 
 224   0.0000       0.300444         8.1755 
 225   0.0000       0.305428         8.3111 
 226   0.0000       0.306919         8.3517 
 227   0.0000       0.307433         8.3657 
 228   0.0000       0.318016         8.6536 
 229   0.0000       0.320748         8.7280 
 230   0.0000       0.327549         8.9130 
 231   0.0000       0.330546         8.9946 
 232   0.0000       0.333413         9.0726 
 233   0.0000       0.336848         9.1661 
 234   0.0000       0.340493         9.2653 
 235   0.0000       0.356320         9.6959 
 236   0.0000       0.358354         9.7513 
 237   0.0000       0.361749         9.8437 
 238   0.0000       0.373538        10.1645 
 239   0.0000       0.387012        10.5311 
 240   0.0000       0.394258        10.7283 
 241   0.0000       0.398879        10.8540 
 242   0.0000       0.408376        11.1125 
 243   0.0000       0.416928        11.3452 
 244   0.0000       0.423776        11.5315 
 245   0.0000       0.430823        11.7233 
 246   0.0000       0.436434        11.8760 
 247   0.0000       0.438654        11.9364 
 248   0.0000       0.443581        12.0705 
 249   0.0000       0.444736        12.1019 
 250   0.0000       0.452001        12.2996 
 251   0.0000       0.455991        12.4081 
 252   0.0000       0.457379        12.4459 
 253   0.0000       0.468967        12.7612 
 254   0.0000       0.471575        12.8322 
 255   0.0000       0.476392        12.9633 
 256   0.0000       0.480027        13.0622 
 257   0.0000       0.483202        13.1486 
 258   0.0000       0.485130        13.2011 
 259   0.0000       0.493424        13.4268 
 260   0.0000       0.501545        13.6477 
 261   0.0000       0.503656        13.7052 
 262   0.0000       0.506654        13.7868 
 263   0.0000       0.509619        13.8674 
 264   0.0000       0.512295        13.9402 
 265   0.0000       0.517118        14.0715 
 266   0.0000       0.520590        14.1660 
 267   0.0000       0.525322        14.2947 
 268   0.0000       0.531968        14.4756 
 269   0.0000       0.538697        14.6587 
 270   0.0000       0.543293        14.7837 
 271   0.0000       0.544602        14.8194 
 272   0.0000       0.546415        14.8687 
 273   0.0000       0.548771        14.9328 
 274   0.0000       0.553223        15.0540 
 275   0.0000       0.560565        15.2537 
 276   0.0000       0.568478        15.4691 
 277   0.0000       0.571905        15.5623 
 278   0.0000       0.578214        15.7340 
 279   0.0000       0.586024        15.9465 
 280   0.0000       0.588553        16.0154 
 281   0.0000       0.593642        16.1538 
 282   0.0000       0.597231        16.2515 
 283   0.0000       0.598845        16.2954 
 284   0.0000       0.598937        16.2979 
 285   0.0000       0.602919        16.4062 
 286   0.0000       0.605062        16.4646 
 287   0.0000       0.609210        16.5775 
 288   0.0000       0.613388        16.6911 
 289   0.0000       0.618294        16.8246 
 290   0.0000       0.625525        17.0214 
 291   0.0000       0.630783        17.1645 
 292   0.0000       0.633114        17.2279 
 293   0.0000       0.638020        17.3614 
 294   0.0000       0.641480        17.4556 
 295   0.0000       0.647111        17.6088 
 296   0.0000       0.647730        17.6256 
 297   0.0000       0.654908        17.8210 
 298   0.0000       0.660694        17.9784 
 299   0.0000       0.662120        18.0172 
 300   0.0000       0.663640        18.0586 
 301   0.0000       0.667981        18.1767 
 302   0.0000       0.669367        18.2144 
 303   0.0000       0.674437        18.3524 
 304   0.0000       0.677934        18.4475 
 305   0.0000       0.679846        18.4995 
 306   0.0000       0.683345        18.5948 
 307   0.0000       0.686528        18.6814 
 308   0.0000       0.690783        18.7972 
 309   0.0000       0.693421        18.8690 
 310   0.0000       0.699124        19.0241 
 311   0.0000       0.702267        19.1097 
 312   0.0000       0.704410        19.1680 
 313   0.0000       0.707465        19.2511 
 314   0.0000       0.712367        19.3845 
 315   0.0000       0.715023        19.4568 
 316   0.0000       0.715753        19.4766 
 317   0.0000       0.717519        19.5247 
 318   0.0000       0.719644        19.5825 
 319   0.0000       0.722977        19.6732 
 320   0.0000       0.726103        19.7583 
 321   0.0000       0.728894        19.8342 
 322   0.0000       0.731893        19.9158 
 323   0.0000       0.738082        20.0842 
 324   0.0000       0.738690        20.1008 
 325   0.0000       0.742839        20.2137 
 326   0.0000       0.744654        20.2631 
 327   0.0000       0.749371        20.3914 
 328   0.0000       0.753480        20.5032 
 329   0.0000       0.755158        20.5489 
 330   0.0000       0.757808        20.6210 
 331   0.0000       0.762349        20.7446 
 332   0.0000       0.763046        20.7635 
 333   0.0000       0.765376        20.8269 
 334   0.0000       0.766908        20.8686 
 335   0.0000       0.768558        20.9135 
 336   0.0000       0.768875        20.9222 
 337   0.0000       0.774849        21.0847 
 338   0.0000       0.783292        21.3145 
 339   0.0000       0.785593        21.3771 
 340   0.0000       0.790213        21.5028 
 341   0.0000       0.790691        21.5158 
 342   0.0000       0.793473        21.5915 
 343   0.0000       0.794305        21.6141 
 344   0.0000       0.797222        21.6935 
 345   0.0000       0.798102        21.7175 
 346   0.0000       0.804894        21.9023 
 347   0.0000       0.806594        21.9485 
 348   0.0000       0.812430        22.1074 
 349   0.0000       0.814391        22.1607 
 350   0.0000       0.817398        22.2425 
 351   0.0000       0.819603        22.3025 
 352   0.0000       0.824352        22.4318 
 353   0.0000       0.826119        22.4798 
 354   0.0000       0.827773        22.5248 
 355   0.0000       0.830123        22.5888 
 356   0.0000       0.831737        22.6327 
 357   0.0000       0.837008        22.7762 
 358   0.0000       0.840199        22.8630 
 359   0.0000       0.840804        22.8794 
 360   0.0000       0.845373        23.0038 
 361   0.0000       0.845559        23.0088 
 362   0.0000       0.849115        23.1056 
 363   0.0000       0.850930        23.1550 
 364   0.0000       0.852372        23.1942 
 365   0.0000       0.857896        23.3445 
 366   0.0000       0.858647        23.3650 
 367   0.0000       0.859340        23.3838 
 368   0.0000       0.860892        23.4261 
 369   0.0000       0.864028        23.5114 
 370   0.0000       0.866667        23.5832 
 371   0.0000       0.869235        23.6531 
 372   0.0000       0.870324        23.6827 
 373   0.0000       0.871322        23.7099 
 374   0.0000       0.875686        23.8286 
 375   0.0000       0.878059        23.8932 
 376   0.0000       0.878731        23.9115 
 377   0.0000       0.879611        23.9354 
 378   0.0000       0.883720        24.0472 
 379   0.0000       0.887308        24.1449 
 380   0.0000       0.890752        24.2386 
 381   0.0000       0.891261        24.2525 
 382   0.0000       0.902102        24.5474 
 383   0.0000       0.903349        24.5814 
 384   0.0000       0.904259        24.6061 
 385   0.0000       0.908241        24.7145 
 386   0.0000       0.910054        24.7638 
 387   0.0000       0.916026        24.9263 
 388   0.0000       0.917902        24.9774 
 389   0.0000       0.918963        25.0063 
 390   0.0000       0.920879        25.0584 
 391   0.0000       0.925014        25.1709 
 392   0.0000       0.928453        25.2645 
 393   0.0000       0.933387        25.3987 
 394   0.0000       0.933657        25.4061 
 395   0.0000       0.935649        25.4603 
 396   0.0000       0.936585        25.4858 
 397   0.0000       0.940124        25.5821 
 398   0.0000       0.941367        25.6159 
 399   0.0000       0.942845        25.6561 
 400   0.0000       0.945311        25.7232 
 401   0.0000       0.948460        25.8089 
 402   0.0000       0.952334        25.9143 
 403   0.0000       0.956378        26.0244 
 404   0.0000       0.958166        26.0730 
 405   0.0000       0.960696        26.1419 
 406   0.0000       0.962718        26.1969 
 407   0.0000       0.967790        26.3349 
 408   0.0000       0.969461        26.3804 
 409   0.0000       0.975275        26.5386 
 410   0.0000       0.981002        26.6944 
 411   0.0000       0.984971        26.8024 
 412   0.0000       0.987805        26.8795 
 413   0.0000       0.995834        27.0980 
 414   0.0000       0.996907        27.1272 
 415   0.0000       1.000335        27.2205 
 416   0.0000       1.004508        27.3340 
 417   0.0000       1.006113        27.3777 
 418   0.0000       1.008820        27.4514 
 419   0.0000       1.016469        27.6595 
 420   0.0000       1.021167        27.7874 
 421   0.0000       1.025164        27.8961 
 422   0.0000       1.031883        28.0790 
 423   0.0000       1.037772        28.2392 
 424   0.0000       1.039106        28.2755 
 425   0.0000       1.045638        28.4533 
 426   0.0000       1.056576        28.7509 
 427   0.0000       1.062975        28.9250 
 428   0.0000       1.065931        29.0054 
 429   0.0000       1.070831        29.1388 
 430   0.0000       1.074288        29.2329 
 431   0.0000       1.083070        29.4718 
 432   0.0000       1.084966        29.5234 
 433   0.0000       1.088326        29.6149 
 434   0.0000       1.094202        29.7748 
 435   0.0000       1.097610        29.8675 
 436   0.0000       1.104480        30.0544 
 437   0.0000       1.106872        30.1195 
 438   0.0000       1.112455        30.2714 
 439   0.0000       1.115331        30.3497 
 440   0.0000       1.117423        30.4066 
 441   0.0000       1.118638        30.4397 
 442   0.0000       1.123922        30.5835 
 443   0.0000       1.129006        30.7218 
 444   0.0000       1.132758        30.8239 
 445   0.0000       1.134401        30.8686 
 446   0.0000       1.141874        31.0720 
 447   0.0000       1.143979        31.1293 
 448   0.0000       1.145440        31.1690 
 449   0.0000       1.148782        31.2599 
 450   0.0000       1.154960        31.4281 
 451   0.0000       1.156577        31.4721 
 452   0.0000       1.159051        31.5394 
 453   0.0000       1.160541        31.5799 
 454   0.0000       1.165870        31.7249 
 455   0.0000       1.168059        31.7845 
 456   0.0000       1.176100        32.0033 
 457   0.0000       1.177934        32.0532 
 458   0.0000       1.183357        32.2008 
 459   0.0000       1.186875        32.2965 
 460   0.0000       1.188679        32.3456 
 461   0.0000       1.191125        32.4122 
 462   0.0000       1.200064        32.6554 
 463   0.0000       1.202881        32.7321 
 464   0.0000       1.204959        32.7886 
 465   0.0000       1.207655        32.8620 
 466   0.0000       1.210534        32.9403 
 467   0.0000       1.212910        33.0049 
 468   0.0000       1.217356        33.1259 
 469   0.0000       1.218890        33.1677 
 470   0.0000       1.226457        33.3736 
 471   0.0000       1.228846        33.4386 
 472   0.0000       1.233283        33.5593 
 473   0.0000       1.237691        33.6793 
 474   0.0000       1.238916        33.7126 
 475   0.0000       1.242844        33.8195 
 476   0.0000       1.246672        33.9237 
 477   0.0000       1.250021        34.0148 
 478   0.0000       1.257665        34.2228 
 479   0.0000       1.257848        34.2278 
 480   0.0000       1.258159        34.2363 
 481   0.0000       1.264325        34.4040 
 482   0.0000       1.265964        34.4486 
 483   0.0000       1.270183        34.5634 
 484   0.0000       1.273700        34.6591 
 485   0.0000       1.282122        34.8883 
 486   0.0000       1.284798        34.9611 
 487   0.0000       1.287598        35.0373 
 488   0.0000       1.289344        35.0848 
 489   0.0000       1.291272        35.1373 
 490   0.0000       1.295241        35.2453 
 491   0.0000       1.300335        35.3839 
 492   0.0000       1.302728        35.4490 
 493   0.0000       1.306062        35.5398 
 494   0.0000       1.309353        35.6293 
 495   0.0000       1.314904        35.7804 
 496   0.0000       1.320171        35.9237 
 497   0.0000       1.323343        36.0100 
 498   0.0000       1.325182        36.0600 
 499   0.0000       1.331157        36.2226 
 500   0.0000       1.332332        36.2546 
 501   0.0000       1.336581        36.3702 
 502   0.0000       1.339980        36.4627 
 503   0.0000       1.342928        36.5429 
 504   0.0000       1.346304        36.6348 
[...]
      pz      :     0.021740  p :     0.079235
      px      :     0.042796
      py      :     0.014698
 77 H s       :     0.896375  s :     0.896375
      pz      :     0.047059  p :     0.078273
      px      :     0.015002
      py      :     0.016212
 78 H s       :     0.896774  s :     0.896774
      pz      :     0.025413  p :     0.078182
      px      :     0.020725
      py      :     0.032044
 79 H s       :     0.906951  s :     0.906951
      pz      :     0.022669  p :     0.087343
      px      :     0.021913
      py      :     0.042761
 80 H s       :     0.880867  s :     0.880867
      pz      :     0.038068  p :     0.083079
      px      :     0.029434
      py      :     0.015577
 81 H s       :     0.889034  s :     0.889034
      pz      :     0.037518  p :     0.083228
      px      :     0.016071
      py      :     0.029639
 82 H s       :     0.914166  s :     0.914166
      pz      :     0.022558  p :     0.087190
      px      :     0.030857
      py      :     0.033775
 83 H s       :     0.872356  s :     0.872356
      pz      :     0.039150  p :     0.083584
      px      :     0.015249
      py      :     0.029185
 84 H s       :     0.889105  s :     0.889105
      pz      :     0.035804  p :     0.084534
      px      :     0.031810
      py      :     0.016921
 85 H s       :     0.896510  s :     0.896510
      pz      :     0.022507  p :     0.079581
      px      :     0.014168
      py      :     0.042906
 86 H s       :     0.890858  s :     0.890858
      pz      :     0.024692  p :     0.078885
      px      :     0.032985
      py      :     0.021209
 87 H s       :     0.891551  s :     0.891551
      pz      :     0.047777  p :     0.078562
      px      :     0.015665
      py      :     0.015121
 88 H s       :     0.918837  s :     0.918837
      pz      :     0.022603  p :     0.086823
      px      :     0.041903
      py      :     0.022317
 89 H s       :     0.875878  s :     0.875878
      pz      :     0.037782  p :     0.084041
      px      :     0.030450
      py      :     0.015809


                      *****************************
                      * MAYER POPULATION ANALYSIS *
                      *****************************

  NA   - Mulliken gross atomic population
  ZA   - Total nuclear charge
  QA   - Mulliken gross atomic charge
  VA   - Mayer's total valence
  BVA  - Mayer's bonded valence
  FA   - Mayer's free valence

  ATOM       NA         ZA         QA         VA         BVA        FA
  0 C      5.7606     6.0000     0.2394     3.7985     3.7985     0.0000
  1 N      7.4096     7.0000    -0.4096     3.4873     3.4873     0.0000
  2 C      6.0664     6.0000    -0.0664     3.9208     3.9208    -0.0000
  3 N      7.3444     7.0000    -0.3444     3.4188     3.4188     0.0000
  4 C      6.0664     6.0000    -0.0664     3.9515     3.9515    -0.0000
  5 N      7.5662     7.0000    -0.5662     3.0652     3.0652    -0.0000
  6 C      6.0245     6.0000    -0.0245     3.9569     3.9569     0.0000
  7 N      7.3368     7.0000    -0.3368     3.4458     3.4458    -0.0000
  8 C      5.7656     6.0000     0.2344     3.7984     3.7984    -0.0000
  9 N      7.5665     7.0000    -0.5665     3.0928     3.0928    -0.0000
 10 C      5.8972     6.0000     0.1028     3.8570     3.8570    -0.0000
 11 N      7.4402     7.0000    -0.4402     3.3705     3.3705    -0.0000
 12 C      6.0579     6.0000    -0.0579     3.9084     3.9084    -0.0000
 13 N      7.4520     7.0000    -0.4520     3.3119     3.3119    -0.0000
 14 C      5.7813     6.0000     0.2187     3.8117     3.8117    -0.0000
 15 N      7.4419     7.0000    -0.4419     3.3616     3.3616     0.0000
 16 C      5.7416     6.0000     0.2584     3.8066     3.8066     0.0000
 17 C      6.0329     6.0000    -0.0329     3.9599     3.9599     0.0000
 18 C      6.1742     6.0000    -0.1742     3.6696     3.6696     0.0000
 19 C      5.7702     6.0000     0.2298     3.9043     3.9043     0.0000
 20 C      5.8144     6.0000     0.1856     3.8206     3.8206    -0.0000
 21 C      6.0668     6.0000    -0.0668     3.8893     3.8893     0.0000
 22 C      6.0924     6.0000    -0.0924     3.9850     3.9850    -0.0000
 23 C      6.0695     6.0000    -0.0695     3.9884     3.9884     0.0000
 24 C      5.7822     6.0000     0.2178     3.8312     3.8312     0.0000
 25 C      5.8848     6.0000     0.1152     3.8945     3.8945     0.0000
 26 C      6.0648     6.0000    -0.0648     3.9099     3.9099     0.0000
 27 C      5.7498     6.0000     0.2502     3.9038     3.9038    -0.0000
 28 C      6.0387     6.0000    -0.0387     3.9912     3.9912    -0.0000
 29 C      6.1977     6.0000    -0.1977     3.7283     3.7283    -0.0000
 30 C      5.7807     6.0000     0.2193     3.7768     3.7768    -0.0000
 31 C      5.8141     6.0000     0.1859     3.8341     3.8341    -0.0000
 32 C      6.0642     6.0000    -0.0642     3.9129     3.9129    -0.0000
 33 C      6.1045     6.0000    -0.1045     3.9837     3.9837    -0.0000
 34 C      6.0504     6.0000    -0.0504     4.0002     4.0002    -0.0000
 35 C      5.8240     6.0000     0.1760     3.8301     3.8301     0.0000
 36 C      5.8783     6.0000     0.1217     3.9122     3.9122    -0.0000
 37 C      6.0710     6.0000    -0.0710     3.9130     3.9130    -0.0000
 38 C      5.7546     6.0000     0.2454     3.7938     3.7938    -0.0000
 39 C      6.0658     6.0000    -0.0658     3.9996     3.9996     0.0000
 40 C      6.2059     6.0000    -0.2059     3.7537     3.7537    -0.0000
 41 C      5.7843     6.0000     0.2157     3.8730     3.8730     0.0000
 42 C      5.7873     6.0000     0.2127     3.8334     3.8334     0.0000
 43 C      6.0779     6.0000    -0.0779     3.9050     3.9050     0.0000
 44 C      6.0929     6.0000    -0.0929     3.9827     3.9827    -0.0000
 45 C      6.0369     6.0000    -0.0369     3.9967     3.9967     0.0000
 46 C      5.8182     6.0000     0.1818     3.8194     3.8194     0.0000
 47 C      5.8830     6.0000     0.1170     3.8977     3.8977     0.0000
 48 C      6.0828     6.0000    -0.0828     3.8969     3.8969     0.0000
 49 C      5.7942     6.0000     0.2058     3.8600     3.8600     0.0000
 50 C      6.0692     6.0000    -0.0692     3.9904     3.9904    -0.0000
 51 C      6.1887     6.0000    -0.1887     3.7434     3.7434     0.0000
 52 H      0.9154     1.0000     0.0846     0.9816     0.9816     0.0000
 53 H      1.0060     1.0000    -0.0060     1.0028     1.0028     0.0000
 54 H      0.9301     1.0000     0.0699     1.0045     1.0045    -0.0000
 55 H      0.9174     1.0000     0.0826     0.9827     0.9827     0.0000
 56 H      0.9126     1.0000     0.0874     0.9727     0.9727    -0.0000
 57 H      0.9219     1.0000     0.0781     0.9848     0.9848    -0.0000
 58 H      0.9240     1.0000     0.0760     0.9871     0.9871     0.0000
 59 H      1.0301     1.0000    -0.0301     0.9958     0.9958    -0.0000
 60 H      0.9312     1.0000     0.0688     1.0046     1.0046    -0.0000
 61 H      0.8224     1.0000     0.1776     1.0439     1.0439     0.0000
 62 H      0.8327     1.0000     0.1673     1.0433     1.0433     0.0000
 63 H      0.9482     1.0000     0.0518     0.9864     0.9864     0.0000
 64 H      1.0360     1.0000    -0.0360     0.9931     0.9931    -0.0000
 65 H      0.9605     1.0000     0.0395     1.0076     1.0076     0.0000
 66 H      0.9459     1.0000     0.0541     0.9847     0.9847     0.0000
 67 H      0.9428     1.0000     0.0572     0.9715     0.9715     0.0000
 68 H      0.9446     1.0000     0.0554     0.9863     0.9863     0.0000
 69 H      0.9414     1.0000     0.0586     0.9830     0.9830     0.0000
 70 H      1.0120     1.0000    -0.0120     0.9987     0.9987    -0.0000
 71 H      0.9540     1.0000     0.0460     1.0077     1.0077    -0.0000
 72 H      0.9644     1.0000     0.0356     0.9861     0.9861    -0.0000
 73 H      1.0195     1.0000    -0.0195     0.9960     0.9960    -0.0000
 74 H      0.9724     1.0000     0.0276     1.0090     1.0090    -0.0000
 75 H      0.9658     1.0000     0.0342     0.9868     0.9868     0.0000
 76 H      0.9554     1.0000     0.0446     0.9700     0.9700     0.0000
 77 H      0.9551     1.0000     0.0449     0.9841     0.9841    -0.0000
 78 H      0.9559     1.0000     0.0441     0.9834     0.9834    -0.0000
 79 H      1.0115     1.0000    -0.0115     1.0021     1.0021    -0.0000
 80 H      0.9726     1.0000     0.0274     1.0061     1.0061     0.0000
 81 H      0.9503     1.0000     0.0497     0.9852     0.9852    -0.0000
 82 H      1.0231     1.0000    -0.0231     0.9953     0.9953     0.0000
 83 H      0.9576     1.0000     0.0424     1.0109     1.0109     0.0000
 84 H      0.9514     1.0000     0.0486     0.9865     0.9865     0.0000
 85 H      0.9465     1.0000     0.0535     0.9713     0.9713    -0.0000
 86 H      0.9438     1.0000     0.0562     0.9841     0.9841     0.0000
 87 H      0.9460     1.0000     0.0540     0.9852     0.9852     0.0000
 88 H      1.0313     1.0000    -0.0313     0.9907     0.9907    -0.0000
 89 H      0.9620     1.0000     0.0380     1.0057     1.0057     0.0000

  Mayer bond orders larger than 0.100000
B(  0-C ,  1-N ) :   1.2170 B(  0-C , 17-C ) :   1.5062 B(  0-C , 52-H ) :   0.9665 
B(  1-N ,  8-C ) :   1.2070 B(  1-N , 10-C ) :   0.9235 B(  2-C , 12-C ) :   1.5838 
B(  2-C , 16-C ) :   1.2692 B(  2-C , 53-H ) :   0.9794 B(  3-N , 14-C ) :   1.1737 
B(  3-N , 16-C ) :   1.2021 B(  3-N , 61-H ) :   0.8951 B(  4-C ,  6-C ) :   1.3647 
B(  4-C , 17-C ) :   1.3650 B(  4-C , 18-C ) :   1.0442 B(  5-N , 19-C ) :   1.3628 
B(  5-N , 27-C ) :   1.4496 B(  6-C ,  8-C ) :   1.5085 B(  6-C , 54-H ) :   0.9704 
B(  7-N , 30-C ) :   1.1832 B(  7-N , 38-C ) :   1.2164 B(  7-N , 62-H ) :   0.9016 
B(  8-C , 55-H ) :   0.9675 B(  9-N , 41-C ) :   1.4360 B(  9-N , 49-C ) :   1.3919 
B( 10-C , 56-H ) :   0.9767 B( 10-C , 57-H ) :   0.9806 B( 10-C , 58-H ) :   0.9814 
B( 11-N , 20-C ) :   1.0948 B( 11-N , 24-C ) :   1.1345 B( 11-N , 25-C ) :   0.9628 
B( 12-C , 14-C ) :   1.2696 B( 12-C , 59-H ) :   0.9768 B( 13-N , 31-C ) :   1.0804 
B( 13-N , 35-C ) :   1.0697 B( 13-N , 36-C ) :   0.9835 B( 14-C , 18-C ) :   1.2660 
B( 15-N , 42-C ) :   1.1265 B( 15-N , 46-C ) :   1.0875 B( 15-N , 47-C ) :   0.9668 
B( 16-C , 51-C ) :   1.2515 B( 17-C , 60-H ) :   0.9708 B( 18-C , 19-C ) :   1.3160 
B( 19-C , 21-C ) :   1.1596 B( 20-C , 28-C ) :   1.6299 B( 20-C , 63-H ) :   0.9710 
B( 21-C , 26-C ) :   1.6852 B( 21-C , 64-H ) :   0.9715 B( 22-C , 23-C ) :   1.2536 
B( 22-C , 28-C ) :   1.2797 B( 22-C , 29-C ) :   1.2579 B( 23-C , 24-C ) :   1.6362 
B( 23-C , 65-H ) :   0.9723 B( 24-C , 66-H ) :   0.9691 B( 25-C , 67-H ) :   0.9762 
B( 25-C , 68-H ) :   0.9834 B( 25-C , 69-H ) :   0.9818 B( 26-C , 27-C ) :   1.1694 
B( 26-C , 70-H ) :   0.9758 B( 27-C , 29-C ) :   1.2442 B( 28-C , 71-H ) :   0.9709 
B( 29-C , 30-C ) :   1.1734 B( 30-C , 32-C ) :   1.3527 B( 31-C , 39-C ) :   1.6875 
B( 31-C , 72-H ) :   0.9709 B( 32-C , 37-C ) :   1.5075 B( 32-C , 73-H ) :   0.9771 
B( 33-C , 34-C ) :   1.2305 B( 33-C , 39-C ) :   1.2227 B( 33-C , 40-C ) :   1.3636 
B( 34-C , 35-C ) :   1.6861 B( 34-C , 74-H ) :   0.9709 B( 35-C , 75-H ) :   0.9709 
B( 36-C , 76-H ) :   0.9755 B( 36-C , 77-H ) :   0.9826 B( 36-C , 78-H ) :   0.9838 
B( 37-C , 38-C ) :   1.3458 B( 37-C , 79-H ) :   0.9794 B( 38-C , 40-C ) :   1.1772 
B( 39-C , 80-H ) :   0.9721 B( 40-C , 41-C ) :   1.1657 B( 41-C , 43-C ) :   1.2589 
B( 42-C , 50-C ) :   1.6429 B( 42-C , 81-H ) :   0.9696 B( 43-C , 48-C ) :   1.5922 
B( 43-C , 82-H ) :   0.9757 B( 44-C , 45-C ) :   1.2812 B( 44-C , 50-C ) :   1.2477 
B( 44-C , 51-C ) :   1.2468 B( 45-C , 46-C ) :   1.6334 B( 45-C , 83-H ) :   0.9702 
B( 46-C , 84-H ) :   0.9710 B( 47-C , 85-H ) :   0.9759 B( 47-C , 86-H ) :   0.9825 
B( 47-C , 87-H ) :   0.9830 B( 48-C , 49-C ) :   1.2530 B( 48-C , 88-H ) :   0.9725 
B( 49-C , 51-C ) :   1.1872 B( 50-C , 89-H ) :   0.9723 

-------
TIMINGS
-------

Total SCF time: 0 days 0 hours 24 min 45 sec 

Total time                  ....    1485.987 sec
Sum of individual times     ....    1482.175 sec  ( 99.7%)

Fock matrix formation       ....    1461.433 sec  ( 98.3%)
Diagonalization             ....       5.588 sec  (  0.4%)
Density matrix formation    ....       0.396 sec  (  0.0%)
Population analysis         ....       0.426 sec  (  0.0%)
Initial guess               ....       1.916 sec  (  0.1%)
Orbital Transformation      ....       0.000 sec  (  0.0%)
Orbital Orthonormalization  ....       0.000 sec  (  0.0%)
DIIS solution               ....       2.411 sec  (  0.2%)
SOSCF solution              ....       9.003 sec  (  0.6%)

Maximum memory used throughout the entire SCF-calculation: 302.6 MB


           ************************************************************
           *        Program running with 16 parallel MPI-processes    *
           *              working on a common directory               *
           ************************************************************

------------------------------------------------------------------------------
                                ORCA  MP2 
------------------------------------------------------------------------------

Freezing NCore=104 chemical core electrons

----------
MP2 ENERGY (disk based algorithm)
----------

Dimension of the basis                    ...  918
Memory devoted to MP2                     ... 2000 MB   
Data format for buffers                   ... DOUBLE
Compression type for matrix containers    ... UNCOMPRESSED

-------------------------------
PARTIAL EXCHANGE TRANSFORMATION
-------------------------------

Transformation type                        ... one-operator
Generation of integrals (i,mue|j,nue)      ... ON
Generation of integrals (mue,kappa|nue,tau)... OFF
Generation of integrals (i,mue|a,nue)      ... OFF
Dimension of the basis                     ...  918
Number of internal MOs                     ...  127 (  52- 178)
Pair cutoff                                ... 2.500e-12 Eh
Number of AO pairs in the trafo            ... 421821
Total Number of distinct AO pairs          ... 421821
Memory devoted for trafo                   ... 2000.0 MB 
Max. Number of MO pairs treated together   ...  311      
Number Format for Storage                  ... Double (8 Byte)
Integral package used                      ... LIBINT

Starting integral evaluation:
    ... done with AO integral generation
Closing buffer AOK     (37.65 GB; CompressionRatio= 1.35)
Collecting buffer AOK 
Number of MO pairs included in the trafo   ... 8128
------------------------
SORTING OF (i,mue|j,nue)
------------------------

IBATCH = 1 of  2
IBATCH = 2 of  2
Closing buffer KAO     (51.03 GB; CompressionRatio= 1.00)
Collecting buffer KAO 
N(AO-Batches) Done                         ...  85533360 
N(AO-Batches) Skipped                      ...  81990042 
N(IJ)-pairs Skipped                        ...         0 
TOTAL TIME for half transformation         ...  2762.194 sec
AO-integral generation                     ...   177.375 sec
Half transformation                        ...   316.728 sec
K-integral sorting                         ...  2129.839 sec
Process 10:   Internal MO 132
Process 13:   Internal MO 156

Finished integral transformation - now doing MP2 part

OPERATOR COMBINATION   0   0: ij=( 52..178, 52..178)
Process  1:   Internal MO  60
Process  4:   Internal MO  84
Process  7:   Internal MO 108
Process  0:   Internal MO  54
Process  2:   Internal MO  69
Process  1:   Internal MO  63
Process  0:   Internal MO  57
Process  5:   Internal MO  93
Process  3:   Internal MO  78
Process  1:   Internal MO  66
Process  8:   Internal MO 117
Process  2:   Internal MO  72
Process 14:   Internal MO 165
Process 11:   Internal MO 141
Process  3:   Internal MO  81
Process  9:   Internal MO 126
Process  4:   Internal MO  87
Process  6:   Internal MO 102
Process  2:   Internal MO  75
Process  5:   Internal MO  96
Process 12:   Internal MO 150
Process  7:   Internal MO 111
Process 10:   Internal MO 135
Process  4:   Internal MO  90
Process 15:   Internal MO 174
Process  8:   Internal MO 120
Process  6:   Internal MO 105
Process  9:   Internal MO 129
Process  5:   Internal MO  99
Process  7:   Internal MO 114
Process 13:   Internal MO 159
Process 11:   Internal MO 144
Process 12:   Internal MO 153
Process 14:   Internal MO 168
Process  8:   Internal MO 123
Process 10:   Internal MO 138
Process 15:   Internal MO 177
Process 11:   Internal MO 147
Process 13:   Internal MO 162
Process 14:   Internal MO 171
-----------------------------------------------
 MP2 CORRELATION ENERGY   :     -7.259067736 Eh
-----------------------------------------------


-------
TIMINGS
-------
Total time                : 3054.207 sec
Integral trafo            : 2764.144 sec ( 90.5%)
K(i,j)                    :    5.456 sec (  0.2%)
T(i,j)                    :    0.123 sec (  0.0%)

---------------------------------------
MP2 TOTAL ENERGY:    -2130.869304235 Eh
---------------------------------------

Maximum memory used throughout the entire MP2-calculation: 2275.2 MB

-------------------------   --------------------
FINAL SINGLE POINT ENERGY     -2130.869304234721
-------------------------   --------------------


                            ***************************************
                            *     ORCA property calculations      *
                            ***************************************


  WARNING: The energy has been calculated at the MP2 level but the densities
           used in the property calculations are still SCF densities
           MP2 response densities have not been calculated 
           use %mp2 Density relaxed end
           or  %mp2 Density unrelaxed end

                                    ---------------------
                                    Active property flags
                                    ---------------------
   (+) Dipole Moment


------------------------------------------------------------------------------
                       ORCA ELECTRIC PROPERTIES CALCULATION
------------------------------------------------------------------------------

Dipole Moment Calculation                       ... on
Quadrupole Moment Calculation                   ... off
Polarizability Calculation                      ... off
GBWName                                         ... /scratch/allen/tmpyp4_amber_gaff2/conf1/conf1/Conf92.orca.gbw
Electron density                                ... /scratch/allen/tmpyp4_amber_gaff2/conf1/conf1/Conf92.orca.scfp
The origin for moment calculation is the CENTER OF MASS  = ( 0.001805, -0.002951  0.003971)

-------------
DIPOLE MOMENT
-------------
                                X             Y             Z
Electronic contribution:     -4.71958       5.58187      -0.15292
Nuclear contribution   :     -0.02645       0.16630       0.20938
                        -----------------------------------------
Total Dipole Moment    :     -4.74603       5.74818       0.05646
                        -----------------------------------------
Magnitude (a.u.)       :      7.45450
Magnitude (Debye)      :     18.94782



--------------------
Rotational spectrum 
--------------------
 
Rotational constants in cm-1:     0.001498     0.001472     0.000763 
Rotational constants in MHz :    44.900317    44.138333    22.869048 

 Dipole components along the rotational axes: 
x,y,z [a.u.] :     6.602173     3.460998     0.048117 
x,y,z [Debye]:    16.781390     8.797157     0.122303 

 

Timings for individual modules:

Sum of individual times         ...     4562.985 sec (=  76.050 min)
GTO integral calculation        ...        2.655 sec (=   0.044 min)   0.1 %
SCF iterations                  ...     1486.931 sec (=  24.782 min)  32.6 %
MP2 module                      ...     3073.399 sec (=  51.223 min)  67.4 %
                             ****ORCA TERMINATED NORMALLY****
TOTAL RUN TIME: 0 days 1 hours 16 minutes 6 seconds 347 msec
# of primitive gaussian functions

