
                                 *****************
                                 * O   R   C   A *
                                 *****************

                                            #,                                       
                                            ###                                      
                                            ####                                     
                                            #####                                    
                                            ######                                   
                                           ########,                                 
                                     ,,################,,,,,                         
                               ,,#################################,,                 
                          ,,##########################################,,             
                       ,#########################################, ''#####,          
                    ,#############################################,,   '####,        
                  ,##################################################,,,,####,       
                ,###########''''           ''''###############################       
              ,#####''   ,,,,##########,,,,          '''####'''          '####       
            ,##' ,,,,###########################,,,                        '##       
           ' ,,###''''                  '''############,,,                           
         ,,##''                                '''############,,,,        ,,,,,,###''
      ,#''                                            '''#######################'''  
     '                                                          ''''####''''         
             ,#######,   #######,   ,#######,      ##                                
            ,#'     '#,  ##    ##  ,#'     '#,    #''#        ######   ,####,        
            ##       ##  ##   ,#'  ##            #'  '#       #        #'  '#        
            ##       ##  #######   ##           ,######,      #####,   #    #        
            '#,     ,#'  ##    ##  '#,     ,#' ,#      #,         ##   #,  ,#        
             '#######'   ##     ##  '#######'  #'      '#     #####' # '####'        



                  #######################################################
                  #                        -***-                        #
                  #          Department of theory and spectroscopy      #
                  #    Directorship and core code : Frank Neese         #
                  #        Max Planck Institute fuer Kohlenforschung    #
                  #                Kaiser Wilhelm Platz 1               #
                  #                 D-45470 Muelheim/Ruhr               #
                  #                      Germany                        #
                  #                                                     #
                  #                  All rights reserved                #
                  #                        -***-                        #
                  #######################################################


                         Program Version 5.0.4 -  RELEASE  -


 With contributions from (in alphabetic order):
   Daniel Aravena         : Magnetic Suceptibility
   Michael Atanasov       : Ab Initio Ligand Field Theory (pilot matlab implementation)
   Alexander A. Auer      : GIAO ZORA, VPT2 properties, NMR spectrum
   Ute Becker             : Parallelization
   Giovanni Bistoni       : ED, misc. LED, open-shell LED, HFLD
   Martin Brehm           : Molecular dynamics
   Dmytro Bykov           : SCF Hessian
   Vijay G. Chilkuri      : MRCI spin determinant printing, contributions to CSF-ICE
   Dipayan Datta          : RHF DLPNO-CCSD density
   Achintya Kumar Dutta   : EOM-CC, STEOM-CC
   Dmitry Ganyushin       : Spin-Orbit,Spin-Spin,Magnetic field MRCI
   Miquel Garcia          : C-PCM and meta-GGA Hessian, CC/C-PCM, Gaussian charge scheme
   Yang Guo               : DLPNO-NEVPT2, F12-NEVPT2, CIM, IAO-localization
   Andreas Hansen         : Spin unrestricted coupled pair/coupled cluster methods
   Benjamin Helmich-Paris : MC-RPA, TRAH-SCF, COSX integrals
   Lee Huntington         : MR-EOM, pCC
   Robert Izsak           : Overlap fitted RIJCOSX, COSX-SCS-MP3, EOM
   Marcus Kettner         : VPT2
   Christian Kollmar      : KDIIS, OOCD, Brueckner-CCSD(T), CCSD density, CASPT2, CASPT2-K
   Simone Kossmann        : Meta GGA functionals, TD-DFT gradient, OOMP2, MP2 Hessian
   Martin Krupicka        : Initial AUTO-CI
   Lucas Lang             : DCDCAS
   Marvin Lechner         : AUTO-CI (C++ implementation), FIC-MRCC
   Dagmar Lenk            : GEPOL surface, SMD
   Dimitrios Liakos       : Extrapolation schemes; Compound Job, initial MDCI parallelization
   Dimitrios Manganas     : Further ROCIS development; embedding schemes
   Dimitrios Pantazis     : SARC Basis sets
   Anastasios Papadopoulos: AUTO-CI, single reference methods and gradients
   Taras Petrenko         : DFT Hessian,TD-DFT gradient, ASA, ECA, R-Raman, ABS, FL, XAS/XES, NRVS
   Peter Pinski           : DLPNO-MP2, DLPNO-MP2 Gradient
   Christoph Reimann      : Effective Core Potentials
   Marius Retegan         : Local ZFS, SOC
   Christoph Riplinger    : Optimizer, TS searches, QM/MM, DLPNO-CCSD(T), (RO)-DLPNO pert. Triples
   Tobias Risthaus        : Range-separated hybrids, TD-DFT gradient, RPA, STAB
   Michael Roemelt        : Original ROCIS implementation
   Masaaki Saitow         : Open-shell DLPNO-CCSD energy and density
   Barbara Sandhoefer     : DKH picture change effects
   Avijit Sen             : IP-ROCIS
   Kantharuban Sivalingam : CASSCF convergence, NEVPT2, FIC-MRCI
   Bernardo de Souza      : ESD, SOC TD-DFT
   Georgi Stoychev        : AutoAux, RI-MP2 NMR, DLPNO-MP2 response
   Willem Van den Heuvel  : Paramagnetic NMR
   Boris Wezisla          : Elementary symmetry handling
   Frank Wennmohs         : Technical directorship


 We gratefully acknowledge several colleagues who have allowed us to
 interface, adapt or use parts of their codes:
   Stefan Grimme, W. Hujo, H. Kruse, P. Pracht,  : VdW corrections, initial TS optimization,
                  C. Bannwarth, S. Ehlert          DFT functionals, gCP, sTDA/sTD-DF
   Ed Valeev, F. Pavosevic, A. Kumar             : LibInt (2-el integral package), F12 methods
   Garnet Chan, S. Sharma, J. Yang, R. Olivares  : DMRG
   Ulf Ekstrom                                   : XCFun DFT Library
   Mihaly Kallay                                 : mrcc  (arbitrary order and MRCC methods)
   Jiri Pittner, Ondrej Demel                    : Mk-CCSD
   Frank Weinhold                                : gennbo (NPA and NBO analysis)
   Christopher J. Cramer and Donald G. Truhlar   : smd solvation model
   Lars Goerigk                                  : TD-DFT with DH, B97 family of functionals
   V. Asgeirsson, H. Jonsson                     : NEB implementation
   FAccTs GmbH                                   : IRC, NEB, NEB-TS, DLPNO-Multilevel, CI-OPT
                                                   MM, QMMM, 2- and 3-layer-ONIOM, Crystal-QMMM,
                                                   LR-CPCM, SF, NACMEs, symmetry and pop. for TD-DFT,
                                                   nearIR, NL-DFT gradient (VV10), updates on ESD,
                                                   ML-optimized integration grids
   S Lehtola, MJT Oliveira, MAL Marques          : LibXC Library
   Liviu Ungur et al                             : ANISO software


 Your calculation uses the libint2 library for the computation of 2-el integrals
 For citations please refer to: http://libint.valeyev.net

 Your ORCA version has been built with support for libXC version: 5.1.0
 For citations please refer to: https://tddft.org/programs/libxc/

 This ORCA versions uses:
   CBLAS   interface :  Fast vector & matrix operations
   LAPACKE interface :  Fast linear algebra routines
   SCALAPACK package :  Parallel linear algebra routines
   Shared memory     :  Shared parallel matrices
   BLAS/LAPACK       :  OpenBLAS 0.3.15  USE64BITINT DYNAMIC_ARCH NO_AFFINITY Sandybridge SINGLE_THREADED
        Core in use  :  Sandybridge
   Copyright (c) 2011-2014, The OpenBLAS Project


================================================================================

----- Orbital basis set information -----
Your calculation utilizes the basis: cc-pVDZ 
       H, B-Ne : Obtained from the ccRepo (grant-hill.group.shef.ac.uk/ccrepo) Feb. 2017
                 T. H. Dunning, Jr., J. Chem. Phys. 90, 1007 (1989)
            He : Obtained from the ccRepo (grant-hill.group.shef.ac.uk/ccrepo) Feb. 2017
                 D. E. Woon, T. H. Dunning, Jr., J. Chem. Phys. 100, 2975 (1994)
  Li-Be, Na-Mg : Obtained from the ccRepo (grant-hill.group.shef.ac.uk/ccrepo) Feb. 2017
                 B. P. Prascher, D. E. Woon, K. A. Peterson, T. H. Dunning, Jr., A. K. Wilson, Theor. Chem. Acc. 128, 69 (2011)
         Al-Ar : Obtained from the ccRepo (grant-hill.group.shef.ac.uk/ccrepo) Feb. 2017
                 D. E. Woon, T. H. Dunning, Jr., J. Chem. Phys. 98, 1358 (1993)
            Ca : Obtained from the Peterson Research Group Website (tyr0.chem.wsu.edu/~kipeters) Feb. 2017
                 J. Koput, K. A. Peterson, J. Phys. Chem. 106, 9595 (2002)
         Sc-Zn : Obtained from the ccRepo (grant-hill.group.shef.ac.uk/ccrepo) Feb. 2017
                 N. B. Balabanov, K. A. Peterson, J. Chem. Phys. 123, 064107 (2005)
                 N. B. Balabanov, K. A. Peterson, J. Chem. Phys. 125, 074110 (2006)
         Ga-Kr : Obtained from the ccRepo (grant-hill.group.shef.ac.uk/ccrepo) Feb. 2017
                 A. K. Wilson, D. E. Woon, K. A. Peterson, T. H. Dunning, Jr., J. Chem. Phys. 110, 7667 (1999)

================================================================================
                                        WARNINGS
                       Please study these warnings very carefully!
================================================================================


WARNING: No MP2 level density has been requested!
         To caclulate MP2 level properties use
         %mp2 Density relaxed end
         or
         %mp2 Density unrelaxed end

WARNING: Post HF methods need fully converged wavefunctions
  ===> : Setting SCFConvForced true
         You can overwrite this default with %scf ConvForced false 


INFO   : the flag for use of the SHARK integral package has been found!

================================================================================
                                       INPUT FILE
================================================================================
NAME = /scratch/allen/tmpyp4_amber_gaff2/2.Mdgx/conf11/conf11/Conf27.orca
|  1> ! PAL2
|  2> ! mp2 cc-pvdz TightSCF  NoKeepInts
|  3> 
|  4> %scf
|  5>   MaxCore 2000
|  6> end
|  7> %mp2
|  8>   MaxCore 2000
|  9> end
| 10> * xyz 0 1
| 11>    C       -3.12000         6.44600        -0.38500
| 12>    C        1.47400         4.04100         0.05700
| 13>    C       -2.80200         4.09300         0.04900
| 14>    C       -4.10800         4.06400         0.56200
| 15>    C       -4.87100         5.21400         0.58200
| 16>    C       -5.23100         7.59000         0.11700
| 17>    C        0.13200         4.30700         0.06100
| 18>    C       -0.56900         3.05600         0.04700
| 19>    C        1.64900         2.61800         0.02300
| 20>    C       -2.32000         5.32000        -0.43200
| 21>    N       -4.37400         6.38300         0.11600
| 22>    N        0.38800         2.06700         0.02500
| 23>    N       -2.01000         0.39500        -0.07500
| 24>    N       -0.38800        -2.07400        -0.02700
| 25>    N        2.01000        -0.40100         0.06500
| 26>    C       -1.96000         2.86100         0.02400
| 27>    C       -2.62300         1.61500        -0.01800
| 28>    C       -5.57300        -4.32900         1.06600
| 29>    C       -4.07300         1.47100         0.05600
| 30>    C       -4.10600        -2.75600        -0.02600
| 31>    C       -4.99500        -2.75700        -1.11100
| 32>    C       -6.13200        -3.54200        -1.07600
| 33>    C       -7.65100        -5.11300         0.04000
| 34>    C       -4.32400         0.14100         0.03700
| 35>    C       -3.02500        -0.52000        -0.04800
| 36>    C       -4.42200        -3.56600         1.07500
| 37>    N       -6.40700        -4.31300         0.00100
| 38>    C       -2.86700        -1.92200        -0.04000
| 39>    C       -1.65000        -2.62400        -0.02700
| 40>    C        3.56800        -6.14200        -1.04000
| 41>    C       -1.47600        -4.04900        -0.03400
| 42>    C        2.80300        -4.09900        -0.00800
| 43>    C        3.65700        -4.38400         1.06900
| 44>    C        4.42700        -5.53000         1.05900
| 45>    C        5.24500        -7.58800         0.01400
| 46>    C       -0.13400        -4.31500        -0.02200
| 47>    C        0.56800        -3.06400        -0.02700
| 48>    C        2.77500        -5.01200        -1.07400
| 49>    N        4.37600        -6.39100         0.01700
| 50>    C        1.95900        -2.86900        -0.00900
| 51>    C        2.62100        -1.62200         0.00900
| 52>    C        5.54300         4.33900        -1.13000
| 53>    C        4.07000        -1.47900        -0.09400
| 54>    C        4.10400         2.75100        -0.02100
| 55>    C        5.02700         2.72900         1.03600
| 56>    C        6.16600         3.50900         0.97800
| 57>    C        7.61900         5.15300        -0.11500
| 58>    C        4.32100        -0.14800        -0.09200
| 59>    C        3.02500         0.51400         0.01500
| 60>    C        4.38700         3.58200        -1.11500
| 61>    C        2.86600         1.91600         0.01300
| 62>    N        6.41300         4.29600        -0.09500
| 63>    H       -2.78500         7.41500        -0.73300
| 64>    H        2.27400         4.76600         0.08100
| 65>    H       -4.54000         3.14400         0.93900
| 66>    H       -5.88500         5.23800         0.95900
| 67>    H       -5.83000         7.60100        -0.79600
| 68>    H       -5.88100         7.55800         0.99100
| 69>    H       -4.59300         8.47200         0.15700
| 70>    H       -0.33200         5.28200         0.06900
| 71>    H       -1.31500         5.41100        -0.82700
| 72>    H        0.18200         1.07200         0.00500
| 73>    H       -0.18300        -1.08000        -0.02100
| 74>    H       -5.86400        -4.96200         1.89500
| 75>    H       -4.79400         2.27200         0.13900
| 76>    H       -4.80000        -2.16000        -1.99400
| 77>    H       -6.84100        -3.58200        -1.89300
| 78>    H       -8.42800        -4.53600         0.54600
| 79>    H       -7.95600        -5.33700        -0.98100
| 80>    H       -7.45600        -6.03700         0.58400
| 81>    H       -5.28700        -0.34400         0.10000
| 82>    H       -3.78000        -3.60100         1.94700
| 83>    H        3.58700        -6.86800        -1.84300
| 84>    H       -2.27600        -4.77400        -0.05000
| 85>    H        3.71400        -3.72400         1.92600
| 86>    H        5.09200        -5.79500         1.87100
| 87>    H        6.20500        -7.32900        -0.43900
| 88>    H        5.39300        -7.91700         1.04200
| 89>    H        4.75900        -8.37300        -0.56400
| 90>    H        0.32900        -5.29000        -0.00800
| 91>    H        2.14600        -4.84200        -1.94000
| 92>    H        5.80800         4.98600        -1.95600
| 93>    H        4.78800        -2.28100        -0.18500
| 94>    H        4.86000         2.11400         1.91200
| 95>    H        6.90100         3.53100         1.77200
| 96>    H        7.38300         6.10900         0.35600
| 97>    H        8.41400         4.65200         0.43500
| 98>    H        7.92100         5.31000        -1.15000
| 99>    H        5.28300         0.33600        -0.17900
|100>    H        3.72000         3.63200        -1.96700
|101> *
|102> 
|103>                          ****END OF INPUT****
================================================================================

                       ****************************
                       * Single Point Calculation *
                       ****************************

---------------------------------
CARTESIAN COORDINATES (ANGSTROEM)
---------------------------------
  C     -3.120000    6.446000   -0.385000
  C      1.474000    4.041000    0.057000
  C     -2.802000    4.093000    0.049000
  C     -4.108000    4.064000    0.562000
  C     -4.871000    5.214000    0.582000
  C     -5.231000    7.590000    0.117000
  C      0.132000    4.307000    0.061000
  C     -0.569000    3.056000    0.047000
  C      1.649000    2.618000    0.023000
  C     -2.320000    5.320000   -0.432000
  N     -4.374000    6.383000    0.116000
  N      0.388000    2.067000    0.025000
  N     -2.010000    0.395000   -0.075000
  N     -0.388000   -2.074000   -0.027000
  N      2.010000   -0.401000    0.065000
  C     -1.960000    2.861000    0.024000
  C     -2.623000    1.615000   -0.018000
  C     -5.573000   -4.329000    1.066000
  C     -4.073000    1.471000    0.056000
  C     -4.106000   -2.756000   -0.026000
  C     -4.995000   -2.757000   -1.111000
  C     -6.132000   -3.542000   -1.076000
  C     -7.651000   -5.113000    0.040000
  C     -4.324000    0.141000    0.037000
  C     -3.025000   -0.520000   -0.048000
  C     -4.422000   -3.566000    1.075000
  N     -6.407000   -4.313000    0.001000
  C     -2.867000   -1.922000   -0.040000
  C     -1.650000   -2.624000   -0.027000
  C      3.568000   -6.142000   -1.040000
  C     -1.476000   -4.049000   -0.034000
  C      2.803000   -4.099000   -0.008000
  C      3.657000   -4.384000    1.069000
  C      4.427000   -5.530000    1.059000
  C      5.245000   -7.588000    0.014000
  C     -0.134000   -4.315000   -0.022000
  C      0.568000   -3.064000   -0.027000
  C      2.775000   -5.012000   -1.074000
  N      4.376000   -6.391000    0.017000
  C      1.959000   -2.869000   -0.009000
  C      2.621000   -1.622000    0.009000
  C      5.543000    4.339000   -1.130000
  C      4.070000   -1.479000   -0.094000
  C      4.104000    2.751000   -0.021000
  C      5.027000    2.729000    1.036000
  C      6.166000    3.509000    0.978000
  C      7.619000    5.153000   -0.115000
  C      4.321000   -0.148000   -0.092000
  C      3.025000    0.514000    0.015000
  C      4.387000    3.582000   -1.115000
  C      2.866000    1.916000    0.013000
  N      6.413000    4.296000   -0.095000
  H     -2.785000    7.415000   -0.733000
  H      2.274000    4.766000    0.081000
  H     -4.540000    3.144000    0.939000
  H     -5.885000    5.238000    0.959000
  H     -5.830000    7.601000   -0.796000
  H     -5.881000    7.558000    0.991000
  H     -4.593000    8.472000    0.157000
  H     -0.332000    5.282000    0.069000
  H     -1.315000    5.411000   -0.827000
  H      0.182000    1.072000    0.005000
  H     -0.183000   -1.080000   -0.021000
  H     -5.864000   -4.962000    1.895000
  H     -4.794000    2.272000    0.139000
  H     -4.800000   -2.160000   -1.994000
  H     -6.841000   -3.582000   -1.893000
  H     -8.428000   -4.536000    0.546000
  H     -7.956000   -5.337000   -0.981000
  H     -7.456000   -6.037000    0.584000
  H     -5.287000   -0.344000    0.100000
  H     -3.780000   -3.601000    1.947000
  H      3.587000   -6.868000   -1.843000
  H     -2.276000   -4.774000   -0.050000
  H      3.714000   -3.724000    1.926000
  H      5.092000   -5.795000    1.871000
  H      6.205000   -7.329000   -0.439000
  H      5.393000   -7.917000    1.042000
  H      4.759000   -8.373000   -0.564000
  H      0.329000   -5.290000   -0.008000
  H      2.146000   -4.842000   -1.940000
  H      5.808000    4.986000   -1.956000
  H      4.788000   -2.281000   -0.185000
  H      4.860000    2.114000    1.912000
  H      6.901000    3.531000    1.772000
  H      7.383000    6.109000    0.356000
  H      8.414000    4.652000    0.435000
  H      7.921000    5.310000   -1.150000
  H      5.283000    0.336000   -0.179000
  H      3.720000    3.632000   -1.967000

----------------------------
CARTESIAN COORDINATES (A.U.)
----------------------------
  NO LB      ZA    FRAG     MASS         X           Y           Z
   0 C     6.0000    0    12.011   -5.895946   12.181175   -0.727545
   1 C     6.0000    0    12.011    2.785456    7.636383    0.107714
   2 C     6.0000    0    12.011   -5.295013    7.734649    0.092597
   3 C     6.0000    0    12.011   -7.762995    7.679847    1.062026
   4 C     6.0000    0    12.011   -9.204856    9.853032    1.099821
   5 C     6.0000    0    12.011   -9.885157   14.343021    0.221098
   6 C     6.0000    0    12.011    0.249444    8.139050    0.115273
   7 C     6.0000    0    12.011   -1.075254    5.775003    0.088817
   8 C     6.0000    0    12.011    3.116158    4.947303    0.043464
   9 C     6.0000    0    12.011   -4.384165   10.053343   -0.816362
  10 N     7.0000    0    14.007   -8.265662   12.062122    0.219208
  11 N     7.0000    0    14.007    0.733214    3.906064    0.047243
  12 N     7.0000    0    14.007   -3.798350    0.746442   -0.141729
  13 N     7.0000    0    14.007   -0.733214   -3.919292   -0.051023
  14 N     7.0000    0    14.007    3.798350   -0.757780    0.122832
  15 C     6.0000    0    12.011   -3.703863    5.406506    0.045353
  16 C     6.0000    0    12.011   -4.956752    3.051908   -0.034015
  17 C     6.0000    0    12.011  -10.531444   -8.180624    2.014448
  18 C     6.0000    0    12.011   -7.696855    2.779787    0.105825
  19 C     6.0000    0    12.011   -7.759216   -5.208085   -0.049133
  20 C     6.0000    0    12.011   -9.439182   -5.209975   -2.099486
  21 C     6.0000    0    12.011  -11.587801   -6.693410   -2.033345
  22 C     6.0000    0    12.011  -14.458295   -9.662170    0.075589
  23 C     6.0000    0    12.011   -8.171176    0.266451    0.069920
  24 C     6.0000    0    12.011   -5.716422   -0.982658   -0.090707
  25 C     6.0000    0    12.011   -8.356369   -6.738763    2.031456
  26 N     7.0000    0    14.007  -12.107475   -8.150389    0.001890
  27 C     6.0000    0    12.011   -5.417845   -3.632054   -0.075589
  28 C     6.0000    0    12.011   -3.118048   -4.958641   -0.051023
  29 C     6.0000    0    12.011    6.742543  -11.606698   -1.965315
  30 C     6.0000    0    12.011   -2.789236   -7.651501   -0.064251
  31 C     6.0000    0    12.011    5.296902   -7.745987   -0.015118
  32 C     6.0000    0    12.011    6.910728   -8.284559    2.020117
  33 C     6.0000    0    12.011    8.365818  -10.450186    2.001220
  34 C     6.0000    0    12.011    9.911614  -14.339242    0.026456
  35 C     6.0000    0    12.011   -0.253223   -8.154168   -0.041574
  36 C     6.0000    0    12.011    1.073364   -5.790121   -0.051023
  37 C     6.0000    0    12.011    5.243990   -9.471307   -2.029566
  38 N     7.0000    0    14.007    8.269442  -12.077240    0.032125
  39 C     6.0000    0    12.011    3.701973   -5.421624   -0.017008
  40 C     6.0000    0    12.011    4.952972   -3.065136    0.017008
  41 C     6.0000    0    12.011   10.474752    8.199522   -2.135391
  42 C     6.0000    0    12.011    7.691185   -2.794905   -0.177634
  43 C     6.0000    0    12.011    7.755436    5.198637   -0.039684
  44 C     6.0000    0    12.011    9.499653    5.157063    1.957756
  45 C     6.0000    0    12.011   11.652051    6.631049    1.848152
  46 C     6.0000    0    12.011   14.397823    9.737759   -0.217319
  47 C     6.0000    0    12.011    8.165507   -0.279679   -0.173855
  48 C     6.0000    0    12.011    5.716422    0.971319    0.028346
  49 C     6.0000    0    12.011    8.290229    6.768999   -2.107045
  50 C     6.0000    0    12.011    5.415955    3.620715    0.024566
  51 N     7.0000    0    14.007   12.118814    8.118263   -0.179524
  52 H     1.0000    0     1.008   -5.262887   14.012319   -1.385169
  53 H     1.0000    0     1.008    4.297237    9.006435    0.153068
  54 H     1.0000    0     1.008   -8.579357    5.941299    1.774453
  55 H     1.0000    0     1.008  -11.121038    9.898385    1.812247
  56 H     1.0000    0     1.008  -11.017103   14.363808   -1.504222
  57 H     1.0000    0     1.008  -11.113479   14.282550    1.872719
  58 H     1.0000    0     1.008   -8.679512   16.009760    0.296687
  59 H     1.0000    0     1.008   -0.627389    9.981533    0.130391
  60 H     1.0000    0     1.008   -2.484990   10.225308   -1.562804
  61 H     1.0000    0     1.008    0.343930    2.025786    0.009449
  62 H     1.0000    0     1.008   -0.345820   -2.040904   -0.039684
  63 H     1.0000    0     1.008  -11.081354   -9.376821    3.581031
  64 H     1.0000    0     1.008   -9.059347    4.293458    0.262672
  65 H     1.0000    0     1.008   -9.070685   -4.081808   -3.768114
  66 H     1.0000    0     1.008  -12.927616   -6.768999   -3.577252
  67 H     1.0000    0     1.008  -15.926612   -8.571798    1.031790
  68 H     1.0000    0     1.008  -15.034661  -10.085468   -1.853821
  69 H     1.0000    0     1.008  -14.089798  -11.408277    1.103600
  70 H     1.0000    0     1.008   -9.990982   -0.650066    0.188973
  71 H     1.0000    0     1.008   -7.143165   -6.804904    3.679297
  72 H     1.0000    0     1.008    6.778448  -12.978639   -3.482765
  73 H     1.0000    0     1.008   -4.301017   -9.021553   -0.094486
  74 H     1.0000    0     1.008    7.018443   -7.037340    3.639613
  75 H     1.0000    0     1.008    9.622485  -10.950963    3.535678
  76 H     1.0000    0     1.008   11.725751  -13.849803   -0.829590
  77 H     1.0000    0     1.008   10.191293  -14.960962    1.969095
  78 H     1.0000    0     1.008    8.993207  -15.822677   -1.065806
  79 H     1.0000    0     1.008    0.621720   -9.996651   -0.015118
  80 H     1.0000    0     1.008    4.055352   -9.150054   -3.666069
  81 H     1.0000    0     1.008   10.975529    9.422175   -3.696304
  82 H     1.0000    0     1.008    9.048009   -4.310465   -0.349599
  83 H     1.0000    0     1.008    9.184069    3.994881    3.613156
  84 H     1.0000    0     1.008   13.041000    6.672623    3.348595
  85 H     1.0000    0     1.008   13.951848   11.544337    0.672743
  86 H     1.0000    0     1.008   15.900156    8.791006    0.822031
  87 H     1.0000    0     1.008   14.968521   10.034446   -2.173185
  88 H     1.0000    0     1.008    9.983423    0.634948   -0.338261
  89 H     1.0000    0     1.008    7.029781    6.863485   -3.717091

--------------------------------
INTERNAL COORDINATES (ANGSTROEM)
--------------------------------
 C      0   0   0     0.000000000000     0.00000000     0.00000000
 C      1   0   0     5.204250666523     0.00000000     0.00000000
 C      1   2   0     2.413729272309    54.40415814     0.00000000
 C      3   1   2     1.403440771818    87.89496508   159.16895852
 C      4   3   1     1.380242370021   120.16557358     0.14654507
 C      5   4   3     2.447692995455   152.54021200     1.61615569
 C      2   1   3     1.368114030335    17.15858543   352.64023455
 C      7   2   1     1.434084376876   108.05010202   162.05836747
 C      2   1   3     1.434123425651   124.34962921    14.25497857
 C      1   2   3     1.382058247687    27.79933847   337.15715541
 N      1   2   3     1.351845405363   139.98143074    33.57942707
 N      9   2   1     1.376127174356   106.58526707   352.66788951
 N     12   9   2     2.925062050624   168.53581413   171.12065651
 N     13  12   9     2.954513327098    91.55032014    11.12112580
 N     14  13  12     2.925371258490    88.43092389   359.84326247
 C      8   7   2     1.404790019896   127.24786865   181.11170171
 C     13  12   9     1.366535034311    81.72106996   188.00453233
 C     14  13  12     5.758810554272    80.56209567   166.76250791
 C     17  13  12     1.459010623676   111.08861209   183.82872609
 C     18  14  13     2.412235892279    27.27532823    36.33507194
 C     20  18  14     1.402692767501    87.95206320   148.94598259
 C     21  20  18     1.382106725257   120.14573887   359.70382047
 C     18  14  13     2.446510985056   144.15733107    82.80075377
 C     19  17  13     1.353610726908   106.29293361   359.75308708
 C     13  12   9     1.366813447402   172.21332906    33.46711076
 C     18  14  13     1.380960173213    15.08449437   309.23336894
 N     22  21  20     1.352773077792   120.73759875     0.27865223
 C     25  13  17     1.410897586645   125.60330303   182.37774668
 C     14  13  12     1.376642291955    80.24689249   177.85461986
 C     14  13  12     5.764089607215   164.51507311   312.20821879
 C     29  14  13     1.435600919476   106.58649366   178.76395472
 C     30  14  13     2.413316804732    27.10625047    82.12560436
 C     32  30  14     1.403734305344    87.90059683   149.76154742
 C     33  32  30     1.380694028378   120.14881443   359.74174632
 C     34  33  32     2.448777858443   152.49203239     2.45173620
 C     31  29  14     1.368160809262   108.16950133     0.70383075
 C     14  13  12     1.376239804685   169.26375223   353.09862627
 C     30  14  13     1.380907310430    14.68948582   353.70041132
 N     34  33  32     1.352658863128   120.85575621     0.19603406
 C     37  14  29     1.404717053360   126.01551127   180.90772073
 C     15  14  13     1.366491126938    81.61824056   183.09049352
 C      2   1   3     4.249062720177   142.11045197   154.78400218
 C     41  15  14     1.459677704153   111.05201287   175.08990246
 C     42   2   1     2.412953791518    41.78584867   188.06391088
 C     44  42   2     1.403446472082    87.95153797   233.97558675
 C     45  44  42     1.381696421071   120.11137308     0.19721020
 C     42   2   1     2.450019795838   135.97209175    98.37875998
 C     43  41  15     1.354461516618   106.26758155     0.30894352
 C     15  14  13     1.367461151185   171.87382904   332.35056460
 C     42   2   1     1.381886391857    32.59078432   236.91919007
 C      9   2   1     1.404988612053   126.98745415   173.67222704
 N     42   2   1     1.352765315936   113.57249190   126.11534917
 H      1   2   3     1.082723418053    99.65743063   188.96289813
 H      2   1   3     1.079907866440   110.21704174   188.82301841
 H      4   3   1     1.084044740774   121.03066711   179.53421028
 H      5   4   3     1.082081789885   122.78912745   179.41811121
 H      6   5   4     1.092012362567   104.43530313   100.09889336
 H      6   5   4     1.089678851772    84.65531385   209.51068856
 H      6   5   4     1.089297021019   133.85704591   322.39283651
 H      7   2   1     1.079807853278   126.66122480   342.29678125
 H     10   1   2     1.083665538808   118.73810843   322.30572801
 H     12   9   2     1.016297692608   125.29023241   180.00180175
 H     14  13  12     1.014936943854    44.97226959   359.42596618
 H     18  14  13     1.082871645210   128.03556573   234.20482432
 H     19  17  13     1.080893611786   126.41830519   178.11313280
 H     21  20  18     1.083569563987   121.05669627   180.67006309
 H     22  21  20     1.082483256222   122.73097286   180.59748951
 H     23  18  14     1.092105306278   103.92715769   234.93429879
 H     23  18  14     1.088871893291   134.19244188    12.25587044
 H     23  18  14     1.089833473518    84.85857450   125.45241208
 H     24  19  17     1.080075460327   127.28078426   178.44613241
 H     26  18  14     1.083408048706   118.76995697   244.94906660
 H     30  14  13     1.082703098730   127.99711412   279.66882698
 H     31  29  14     1.079759695488   125.22293469   180.92530585
 H     33  32  30     1.083188810873   121.01964473   180.74284758
 H     34  33  32     1.082494341787   122.70821597   180.59516895
 H     35  34  33     1.092652735319   105.73575241    97.19771933
 H     35  34  33     1.089462711615    84.05943581   206.43036958
 H     35  34  33     1.089268102902   133.08365142   318.50306270
 H     36  31  29     1.079439669458   126.61599965   178.98859863
 H     38  30  73     1.083742127999   118.77264435   359.90091293
 H     42   2   1     1.082178358682   119.31790784   342.74687963
 H     43  41  15     1.080281907652   126.36969097   182.06329380
 H     45  44  42     1.083277434455   121.10105945   179.58025624
 H     46  45  44     1.082194529648   122.72144639   179.46906377
 H     47  42   2     1.091546151109   106.65128841   315.16475048
 H     47  42   2     1.088818625851   132.46019523    94.52397119
 H     47  42   2     1.089531091801    83.63838232   206.04504406
 H     48  43  41     1.080402239909   127.23657387   181.62955349
 H     50  42   2     1.083186502870   118.77001737    94.71359229

---------------------------
INTERNAL COORDINATES (A.U.)
---------------------------
 C      0   0   0     0.000000000000     0.00000000     0.00000000
 C      1   0   0     9.834608492005     0.00000000     0.00000000
 C      1   2   0     4.561287286093    54.40415814     0.00000000
 C      3   1   2     2.652118703914    87.89496508   159.16895852
 C      4   3   1     2.608280077773   120.16557358     0.14654507
 C      5   4   3     4.625469421328   152.54021200     1.61615569
 C      2   1   3     2.585360837309    17.15858543   352.64023455
 C      7   2   1     2.710026725231   108.05010202   162.05836747
 C      2   1   3     2.710100516721   124.34962921    14.25497857
 C      1   2   3     2.611711589256    27.79933847   337.15715541
 N      1   2   3     2.554617591535   139.98143074    33.57942707
 N      9   2   1     2.600503484979   106.58526707   352.66788951
 N     12   9   2     5.527566200405   168.53581413   171.12065651
 N     13  12   9     5.583221047236    91.55032014    11.12112580
 N     14  13  12     5.528150518591    88.43092389   359.84326247
 C      8   7   2     2.654668413270   127.24786865   181.11170171
 C     13  12   9     2.582376967257    81.72106996   188.00453233
 C     14  13  12    10.882574804710    80.56209567   166.76250791
 C     17  13  12     2.757130505230   111.08861209   183.82872609
 C     18  14  13     4.558465206823    27.27532823    36.33507194
 C     20  18  14     2.650705180609    87.95206320   148.94598259
 C     21  20  18     2.611803198586   120.14573887   359.70382047
 C     18  14  13     4.623235745386   144.15733107    82.80075377
 C     19  17  13     2.557953565794   106.29293361   359.75308708
 C     13  12   9     2.582903091751   172.21332906    33.46711076
 C     18  14  13     2.609636529225    15.08449437   309.23336894
 N     22  21  20     2.556370638369   120.73759875     0.27865223
 C     25  13  17     2.666210041769   125.60330303   182.37774668
 C     14  13  12     2.601476916169    80.24689249   177.85461986
 C     14  13  12    10.892550769017   164.51507311   312.20821879
 C     29  14  13     2.712892575415   106.58649366   178.76395472
 C     30  14  13     4.560507835333    27.10625047    82.12560436
 C     32  30  14     2.652673401891    87.90059683   149.76154742
 C     33  32  30     2.609133588376   120.14881443   359.74174632
 C     34  33  32     4.627519515267   152.49203239     2.45173620
 C     31  29  14     2.585449236669   108.16950133     0.70383075
 C     14  13  12     2.600716325456   169.26375223   353.09862627
 C     30  14  13     2.609536633043    14.68948582   353.70041132
 N     34  33  32     2.556154803934   120.85575621     0.19603406
 C     37  14  29     2.654530526499   126.01551127   180.90772073
 C     15  14  13     2.582293994346    81.61824056   183.09049352
 C      2   1   3     8.029564866989   142.11045197   154.78400218
 C     41  15  14     2.758391104639   111.05201287   175.08990246
 C     42   2   1     4.559821839776    41.78584867   188.06391088
 C     44  42   2     2.652129475853    87.95153797   233.97558675
 C     45  44  42     2.611027836043   120.11137308     0.19721020
 C     42   2   1     4.629866436820   135.97209175    98.37875998
 C     43  41  15     2.559561325344   106.26758155     0.30894352
 C     15  14  13     2.584127074516   171.87382904   332.35056460
 C     42   2   1     2.611386828803    32.59078432   236.91919007
 C      9   2   1     2.655043698059   126.98745415   173.67222704
 N     42   2   1     2.556355970587   113.57249190   126.11534917
 H      1   2   3     2.046050738903    99.65743063   188.96289813
 H      2   1   3     2.040730117440   110.21704174   188.82301841
 H      4   3   1     2.048547676981   121.03066711   179.53421028
 H      5   4   3     2.044838237385   122.78912745   179.41811121
 H      6   5   4     2.063604300109   104.43530313   100.09889336
 H      6   5   4     2.059194603776    84.65531385   209.51068856
 H      6   5   4     2.058473048221   133.85704591   322.39283651
 H      7   2   1     2.040541119952   126.66122480   342.29678125
 H     10   1   2     2.047831089115   118.73810843   322.30572801
 H     12   9   2     1.920524309565   125.29023241   180.00180175
 H     14  13  12     1.917952867083    44.97226959   359.42596618
 H     18  14  13     2.046330847636   128.03556573   234.20482432
 H     19  17  13     2.042592906181   126.41830519   178.11313280
 H     21  20  18     2.047649722989   121.05669627   180.67006309
 H     22  21  20     2.045596898814   122.73097286   180.59748951
 H     23  18  14     2.063779938267   103.92715769   234.93429879
 H     23  18  14     2.057669673245   134.19244188    12.25587044
 H     23  18  14     2.059486796529    84.85857450   125.45241208
 H     24  19  17     2.041046823986   127.28078426   178.44613241
 H     26  18  14     2.047344503340   118.76995697   244.94906660
 H     30  14  13     2.046012340948   127.99711412   279.66882698
 H     31  29  14     2.040450114918   125.22293469   180.92530585
 H     33  32  30     2.046930203877   121.01964473   180.74284758
 H     34  33  32     2.045617847496   122.70821597   180.59516895
 H     35  34  33     2.064814429233   105.73575241    97.19771933
 H     35  34  33     2.058786158072    84.05943581   206.43036958
 H     35  34  33     2.058418400901   133.08365142   318.50306270
 H     36  31  29     2.039845353366   126.61599965   178.98859863
 H     38  30  73     2.047975821711   118.77264435   359.90091293
 H     42   2   1     2.045020725966   119.31790784   342.74687963
 H     43  41  15     2.041436952892   126.36969097   182.06329380
 H     45  44  42     2.047097678177   121.10105945   179.58025624
 H     46  45  44     2.045051284662   122.72144639   179.46906377
 H     47  42   2     2.062723288131   106.65128841   315.16475048
 H     47  42   2     2.057569012371   132.46019523    94.52397119
 H     47  42   2     2.058915377895    83.63838232   206.04504406
 H     48  43  41     2.041664347903   127.23657387   181.62955349
 H     50  42   2     2.046925842384   118.77001737    94.71359229

---------------------
BASIS SET INFORMATION
---------------------
There are 3 groups of distinct atoms

 Group   1 Type C   : 17s4p1d contracted to 3s2p1d pattern {881/31/1}
 Group   2 Type N   : 17s4p1d contracted to 3s2p1d pattern {881/31/1}
 Group   3 Type H   : 4s1p contracted to 2s1p pattern {31/1}

Atom   0C    basis set group =>   1
Atom   1N    basis set group =>   2
Atom   2C    basis set group =>   1
Atom   3N    basis set group =>   2
Atom   4C    basis set group =>   1
Atom   5N    basis set group =>   2
Atom   6C    basis set group =>   1
Atom   7N    basis set group =>   2
Atom   8C    basis set group =>   1
Atom   9N    basis set group =>   2
Atom  10C    basis set group =>   1
Atom  11N    basis set group =>   2
Atom  12C    basis set group =>   1
Atom  13N    basis set group =>   2
Atom  14C    basis set group =>   1
Atom  15N    basis set group =>   2
Atom  16C    basis set group =>   1
Atom  17C    basis set group =>   1
Atom  18C    basis set group =>   1
Atom  19C    basis set group =>   1
Atom  20C    basis set group =>   1
Atom  21C    basis set group =>   1
Atom  22C    basis set group =>   1
Atom  23C    basis set group =>   1
Atom  24C    basis set group =>   1
Atom  25C    basis set group =>   1
Atom  26C    basis set group =>   1
Atom  27C    basis set group =>   1
Atom  28C    basis set group =>   1
Atom  29C    basis set group =>   1
Atom  30C    basis set group =>   1
Atom  31C    basis set group =>   1
Atom  32C    basis set group =>   1
Atom  33C    basis set group =>   1
Atom  34C    basis set group =>   1
Atom  35C    basis set group =>   1
Atom  36C    basis set group =>   1
Atom  37C    basis set group =>   1
Atom  38C    basis set group =>   1
Atom  39C    basis set group =>   1
Atom  40C    basis set group =>   1
Atom  41C    basis set group =>   1
Atom  42C    basis set group =>   1
Atom  43C    basis set group =>   1
Atom  44C    basis set group =>   1
Atom  45C    basis set group =>   1
Atom  46C    basis set group =>   1
Atom  47C    basis set group =>   1
Atom  48C    basis set group =>   1
Atom  49C    basis set group =>   1
Atom  50C    basis set group =>   1
Atom  51C    basis set group =>   1
Atom  52H    basis set group =>   3
Atom  53H    basis set group =>   3
Atom  54H    basis set group =>   3
Atom  55H    basis set group =>   3
Atom  56H    basis set group =>   3
Atom  57H    basis set group =>   3
Atom  58H    basis set group =>   3
Atom  59H    basis set group =>   3
Atom  60H    basis set group =>   3
Atom  61H    basis set group =>   3
Atom  62H    basis set group =>   3
Atom  63H    basis set group =>   3
Atom  64H    basis set group =>   3
Atom  65H    basis set group =>   3
Atom  66H    basis set group =>   3
Atom  67H    basis set group =>   3
Atom  68H    basis set group =>   3
Atom  69H    basis set group =>   3
Atom  70H    basis set group =>   3
Atom  71H    basis set group =>   3
Atom  72H    basis set group =>   3
Atom  73H    basis set group =>   3
Atom  74H    basis set group =>   3
Atom  75H    basis set group =>   3
Atom  76H    basis set group =>   3
Atom  77H    basis set group =>   3
Atom  78H    basis set group =>   3
Atom  79H    basis set group =>   3
Atom  80H    basis set group =>   3
Atom  81H    basis set group =>   3
Atom  82H    basis set group =>   3
Atom  83H    basis set group =>   3
Atom  84H    basis set group =>   3
Atom  85H    basis set group =>   3
Atom  86H    basis set group =>   3
Atom  87H    basis set group =>   3
Atom  88H    basis set group =>   3
Atom  89H    basis set group =>   3


           ************************************************************
           *        Program running with 16 parallel MPI-processes    *
           *              working on a common directory               *
           ************************************************************
------------------------------------------------------------------------------
                           ORCA GTO INTEGRAL CALCULATION
------------------------------------------------------------------------------
------------------------------------------------------------------------------
                   ___                                                        
                  /   \      - P O W E R E D   B Y -                         
                 /     \                                                     
                 |  |  |   _    _      __       _____    __    __             
                 |  |  |  | |  | |    /  \     |  _  \  |  |  /  |          
                  \  \/   | |  | |   /    \    | | | |  |  | /  /          
                 / \  \   | |__| |  /  /\  \   | |_| |  |  |/  /          
                |  |  |   |  __  | /  /__\  \  |    /   |      \           
                |  |  |   | |  | | |   __   |  |    \   |  |\   \          
                \     /   | |  | | |  |  |  |  | |\  \  |  | \   \       
                 \___/    |_|  |_| |__|  |__|  |_| \__\ |__|  \__/        
                                                                              
                      - O R C A' S   B I G   F R I E N D -                    
                                      &                                       
                       - I N T E G R A L  F E E D E R -                       
                                                                              
 v1 FN, 2020, v2 2021                                                         
------------------------------------------------------------------------------


Reading SHARK input file /scratch/allen/tmpyp4_amber_gaff2/conf1/conf1/Conf27.orca.SHARKINP.tmp ... ok
----------------------
SHARK INTEGRAL PACKAGE
----------------------

Number of atoms                             ...     90
Number of basis functions                   ...   1230
Number of shells                            ...    738
Maximum angular momentum                    ...      2
Integral batch strategy                     ... SHARK/LIBINT Hybrid
RI-J (if used) integral strategy            ... SPLIT-RIJ (Revised 2003 algorithm where possible)
Printlevel                                  ...      1
Contraction scheme used                     ... PARTIAL GENERAL contraction
Coulomb Range Separation                    ... NOT USED
Exchange Range Separation                   ... NOT USED
Finite Nucleus Model                        ... NOT USED
Auxiliary Coulomb fitting basis             ... NOT available
Auxiliary J/K fitting basis                 ... NOT available
Auxiliary Correlation fitting basis         ... NOT available
Auxiliary 'external' fitting basis          ... NOT available
Integral threshold                          ...     2.500000e-11
Primitive cut-off                           ...     2.500000e-12
Primitive pair pre-selection threshold      ...     2.500000e-12

Calculating pre-screening integrals         ... done (  0.1 sec) Dimension = 738
Calculating pre-screening integrals (ORCA)  ... done (  0.3 sec) Dimension = 426
Organizing shell pair data                  ... done (  0.8 sec)
Shell pair information
Total number of shell pairs                 ...    272691
Shell pairs after pre-screening             ...     71695
Total number of primitive shell pairs       ...    422091
Primitive shell pairs kept                  ...     92562
          la=0 lb=0:  29434 shell pairs
          la=1 lb=0:  26015 shell pairs
          la=1 lb=1:   4703 shell pairs
          la=2 lb=0:   7890 shell pairs
          la=2 lb=1:   3124 shell pairs
          la=2 lb=2:    529 shell pairs

Calculating one electron integrals          ... done (  0.3 sec)
Calculating Nuclear repulsion               ... done (  0.0 sec) ENN=   6232.758295758225 Eh

SHARK setup successfully completed in   2.2 seconds

Maximum memory used throughout the entire GTOINT-calculation: 99.1 MB


           ************************************************************
           *        Program running with 16 parallel MPI-processes    *
           *              working on a common directory               *
           ************************************************************
-------------------------------------------------------------------------------
                                 ORCA SCF
-------------------------------------------------------------------------------

------------
SCF SETTINGS
------------
Hamiltonian:
 Ab initio Hamiltonian  Method          .... Hartree-Fock(GTOs)


General Settings:
 Integral files         IntName         .... /scratch/allen/tmpyp4_amber_gaff2/conf1/conf1/Conf27.orca
 Hartree-Fock type      HFTyp           .... RHF
 Total Charge           Charge          ....    0
 Multiplicity           Mult            ....    1
 Number of Electrons    NEL             ....  358
 Basis Dimension        Dim             ....  918
 Nuclear Repulsion      ENuc            ....   6232.7582957582 Eh

Convergence Acceleration:
 DIIS                   CNVDIIS         .... on
   Start iteration      DIISMaxIt       ....    12
   Startup error        DIISStart       ....  0.200000
   # of expansion vecs  DIISMaxEq       ....     5
   Bias factor          DIISBfac        ....   1.050
   Max. coefficient     DIISMaxC        ....  10.000
 Trust-Rad. Augm. Hess. CNVTRAH         .... auto
   Auto Start mean grad. ratio tolernc. ....  1.125000
   Auto Start start iteration           ....    20
   Auto Start num. interpolation iter.  ....    10
   Max. Number of Micro iterations      ....    16
   Max. Number of Macro iterations      .... Maxiter - #DIIS iter
   Number of Davidson start vectors     ....     2
   Converg. threshold I  (grad. norm)   ....   1.000e-05
   Converg. threshold II (energy diff.) ....   1.000e-08
   Grad. Scal. Fac. for Micro threshold ....   0.100
   Minimum threshold for Micro iter.    ....   0.010
   NR start threshold (gradient norm)   ....   0.001
   Initial trust radius                 ....   0.400
   Minimum AH scaling param. (alpha)    ....   1.000
   Maximum AH scaling param. (alpha)    .... 1000.000
   Orbital update algorithm             .... Taylor
   White noise on init. David. guess    .... on
   Maximum white noise                  ....   0.010
   Quad. conv. algorithm                .... NR
 SOSCF                  CNVSOSCF        .... on
   Start iteration      SOSCFMaxIt      ....   150
   Startup grad/error   SOSCFStart      ....  0.003300
 Level Shifting         CNVShift        .... on
   Level shift para.    LevelShift      ....    0.2500
   Turn off err/grad.   ShiftErr        ....    0.0010
 Zerner damping         CNVZerner       .... off
 Static damping         CNVDamp         .... on
   Fraction old density DampFac         ....    0.7000
   Max. Damping (<1)    DampMax         ....    0.9800
   Min. Damping (>=0)   DampMin         ....    0.0000
   Turn off err/grad.   DampErr         ....    0.1000
 Fernandez-Rico         CNVRico         .... off

SCF Procedure:
 Maximum # iterations   MaxIter         ....   125
 SCF integral mode      SCFMode         .... Direct
   Integral package                     .... SHARK and LIBINT hybrid scheme
 Reset frequency        DirectResetFreq ....    20
 Integral Threshold     Thresh          ....  2.500e-11 Eh
 Primitive CutOff       TCut            ....  2.500e-12 Eh

Convergence Tolerance:
 Convergence Check Mode ConvCheckMode   .... Total+1el-Energy
 Convergence forced     ConvForced      .... 1
 Energy Change          TolE            ....  1.000e-08 Eh
 1-El. energy change                    ....  1.000e-05 Eh
 Orbital Gradient       TolG            ....  1.000e-05
 Orbital Rotation angle TolX            ....  1.000e-05
 DIIS Error             TolErr          ....  5.000e-07


Diagonalization of the overlap matrix:
Smallest eigenvalue                        ... 2.134e-04
Time for diagonalization                   ...    0.354 sec
Threshold for overlap eigenvalues          ... 1.000e-08
Number of eigenvalues below threshold      ... 0
Time for construction of square roots      ...    0.244 sec
Total time needed                          ...    0.607 sec

Time for model grid setup =    1.052 sec

------------------------------
INITIAL GUESS: MODEL POTENTIAL
------------------------------
Loading Hartree-Fock densities                     ... done
Calculating cut-offs                               ... done
Initializing the effective Hamiltonian             ... done
Setting up the integral package (SHARK)            ... done
Starting the Coulomb interaction                   ... done (   1.2 sec)
Reading the grid                                   ... done
Mapping shells                                     ... done
Starting the XC term evaluation                    ... done (   0.2 sec)
Transforming the Hamiltonian                       ... done (   0.2 sec)
Diagonalizing the Hamiltonian                      ... done (   0.3 sec)
Back transforming the eigenvectors                 ... done (   0.1 sec)
Now organizing SCF variables                       ... done
                      ------------------
                      INITIAL GUESS DONE (   3.1 sec)
                      ------------------
--------------
SCF ITERATIONS
--------------
ITER       Energy         Delta-E        Max-DP      RMS-DP      [F,P]     Damp
               ***  Starting incremental Fock matrix formation  ***
  0  -2121.6637846460   0.000000000000 0.07471843  0.00123226  0.2317647 0.7000
  1  -2122.3137990100  -0.650014364011 0.05655135  0.00100348  0.1436701 0.7000
                               ***Turning on DIIS***
  2  -2122.7184060576  -0.404607047605 0.13215983  0.00227599  0.0802598 0.0000
  3  -2117.9731190255   4.745287032127 0.04899317  0.00068343  0.0437055 0.0000
  4  -2123.4002793255  -5.427160299969 0.01448335  0.00022724  0.0086983 0.0000
  5  -2123.5495630709  -0.149283745486 0.00688912  0.00013287  0.0049143 0.0000
  6  -2123.5338453377   0.015717733220 0.00404499  0.00008528  0.0021088 0.0000
  7  -2123.6291822223  -0.095336884557 0.00306053  0.00006729  0.0015887 0.0000
  8  -2123.6386357257  -0.009453503410 0.00325596  0.00006397  0.0014845 0.0000
  9  -2123.6096732657   0.028962459966 0.00260318  0.00004506  0.0011903 0.0000
 10  -2123.6184348396  -0.008761573916 0.00521951  0.00009400  0.0009252 0.0000
                      *** Initiating the SOSCF procedure ***
                           *** Shutting down DIIS ***
                      *** Re-Reading the Fockian *** 
                      *** Removing any level shift *** 
ITER      Energy       Delta-E        Grad      Rot      Max-DP    RMS-DP
 11  -2123.51033777   0.1080970738  0.000182  0.000182  0.000239  0.000005
               *** Restarting incremental Fock matrix formation ***
 12  -2123.57664287  -0.0663051053  0.000886  0.006138  0.001401  0.000035
 13  -2123.57675024  -0.0001073738  0.001101  0.030613  0.006436  0.000135
 14  -2123.57693377  -0.0001835298  0.000355  0.001616  0.000650  0.000012
 15  -2123.57694936  -0.0000155868  0.000184  0.002617  0.000649  0.000016
 16  -2123.57695805  -0.0000086862  0.000150  0.002574  0.000449  0.000010
 17  -2123.57696100  -0.0000029501  0.000139  0.001852  0.000322  0.000007
 18  -2123.57696257  -0.0000015762  0.000068  0.001031  0.000271  0.000004
 19  -2123.57696338  -0.0000008086  0.000045  0.001121  0.000210  0.000004
 20  -2123.57696376  -0.0000003735  0.000027  0.000772  0.000121  0.000003
 21  -2123.57696396  -0.0000002042  0.000024  0.000949  0.000152  0.000003
 22  -2123.57696414  -0.0000001799  0.000022  0.000831  0.000136  0.000003
 23  -2123.57696425  -0.0000001082  0.000015  0.000488  0.000080  0.000002
 24  -2123.57696430  -0.0000000547  0.000009  0.000355  0.000054  0.000001
 25  -2123.57696434  -0.0000000349  0.000009  0.000176  0.000039  0.000001
 26  -2123.57696435  -0.0000000167  0.000006  0.000128  0.000033  0.000001
 27  -2123.57696436  -0.0000000048  0.000003  0.000095  0.000023  0.000000
                  ***Gradient check signals convergence***
              ***Rediagonalizing the Fockian in SOSCF/NRSCF***

               *****************************************************
               *                     SUCCESS                       *
               *           SCF CONVERGED AFTER  28 CYCLES          *
               *****************************************************


----------------
TOTAL SCF ENERGY
----------------

Total Energy       :        -2123.57696436 Eh          -57785.46696 eV

Components:
Nuclear Repulsion  :         6232.75829576 Eh          169601.97563 eV
Electronic Energy  :        -8356.33526012 Eh         -227387.44258 eV
One Electron Energy:       -15306.20629505 Eh         -416503.04789 eV
Two Electron Energy:         6949.87103494 Eh          189115.60531 eV

Virial components:
Potential Energy   :        -4245.87791453 Eh         -115536.21180 eV
Kinetic Energy     :         2122.30095017 Eh           57750.74485 eV
Virial Ratio       :            2.00060124


---------------
SCF CONVERGENCE
---------------

  Last Energy change         ...    1.9518e-09  Tolerance :   1.0000e-08
  Last MAX-Density change    ...    1.1435e-05  Tolerance :   1.0000e-07
  Last RMS-Density change    ...    2.3103e-07  Tolerance :   5.0000e-09
  Last Orbital Gradient      ...    2.2389e-06  Tolerance :   1.0000e-05
  Last Orbital Rotation      ...    5.5554e-05  Tolerance :   1.0000e-05

             **** THE GBW FILE WAS UPDATED (/scratch/allen/tmpyp4_amber_gaff2/conf1/conf1/Conf27.orca.gbw) ****
             **** DENSITY /scratch/allen/tmpyp4_amber_gaff2/conf1/conf1/Conf27.orca.scfp WAS UPDATED ****
             **** ENERGY FILE WAS UPDATED (/scratch/allen/tmpyp4_amber_gaff2/conf1/conf1/Conf27.orca.en.tmp) ****
             **** THE GBW FILE WAS UPDATED (/scratch/allen/tmpyp4_amber_gaff2/conf1/conf1/Conf27.orca.gbw) ****
             **** DENSITY /scratch/allen/tmpyp4_amber_gaff2/conf1/conf1/Conf27.orca.scfp WAS UPDATED ****
----------------
ORBITAL ENERGIES
----------------

  NO   OCC          E(Eh)            E(eV) 
   0   2.0000     -15.675900      -426.5629 
   1   2.0000     -15.633790      -425.4171 
   2   2.0000     -15.631667      -425.3593 
   3   2.0000     -15.590225      -424.2316 
   4   2.0000     -15.524727      -422.4493 
   5   2.0000     -15.516027      -422.2126 
   6   2.0000     -15.453172      -420.5022 
   7   2.0000     -15.440601      -420.1601 
   8   2.0000     -11.326230      -308.2024 
   9   2.0000     -11.325533      -308.1834 
  10   2.0000     -11.325062      -308.1706 
  11   2.0000     -11.299213      -307.4672 
  12   2.0000     -11.298243      -307.4408 
  13   2.0000     -11.292663      -307.2890 
  14   2.0000     -11.290828      -307.2390 
  15   2.0000     -11.286625      -307.1247 
  16   2.0000     -11.286598      -307.1239 
  17   2.0000     -11.278404      -306.9010 
  18   2.0000     -11.272155      -306.7309 
  19   2.0000     -11.260665      -306.4183 
  20   2.0000     -11.259689      -306.3917 
  21   2.0000     -11.255203      -306.2696 
  22   2.0000     -11.252443      -306.1945 
  23   2.0000     -11.237509      -305.7882 
  24   2.0000     -11.236428      -305.7588 
  25   2.0000     -11.231047      -305.6123 
  26   2.0000     -11.230240      -305.5904 
  27   2.0000     -11.229634      -305.5739 
  28   2.0000     -11.229521      -305.5708 
  29   2.0000     -11.210072      -305.0416 
  30   2.0000     -11.208811      -305.0073 
  31   2.0000     -11.197992      -304.7128 
  32   2.0000     -11.190519      -304.5095 
  33   2.0000     -11.189884      -304.4922 
  34   2.0000     -11.188925      -304.4661 
  35   2.0000     -11.188494      -304.4544 
  36   2.0000     -11.187099      -304.4164 
  37   2.0000     -11.185853      -304.3825 
  38   2.0000     -11.185065      -304.3611 
  39   2.0000     -11.173257      -304.0398 
  40   2.0000     -11.172056      -304.0071 
  41   2.0000     -11.170697      -303.9701 
  42   2.0000     -11.167449      -303.8817 
  43   2.0000     -11.160577      -303.6947 
  44   2.0000     -11.160384      -303.6895 
  45   2.0000     -11.157863      -303.6209 
  46   2.0000     -11.155967      -303.5693 
  47   2.0000     -11.155535      -303.5575 
  48   2.0000     -11.147843      -303.3482 
  49   2.0000     -11.138109      -303.0833 
  50   2.0000     -11.130920      -302.8877 
  51   2.0000     -11.119914      -302.5882 
  52   2.0000      -1.357078       -36.9280 
  53   2.0000      -1.321067       -35.9481 
  54   2.0000      -1.319468       -35.9045 
  55   2.0000      -1.283828       -34.9347 
  56   2.0000      -1.225472       -33.3468 
  57   2.0000      -1.210509       -32.9396 
  58   2.0000      -1.172425       -31.9033 
  59   2.0000      -1.151336       -31.3295 
  60   2.0000      -1.140909       -31.0457 
  61   2.0000      -1.110185       -30.2097 
  62   2.0000      -1.108759       -30.1709 
  63   2.0000      -1.079653       -29.3789 
  64   2.0000      -1.079016       -29.3615 
  65   2.0000      -1.045259       -28.4430 
  66   2.0000      -1.044148       -28.4127 
  67   2.0000      -1.039273       -28.2801 
  68   2.0000      -1.014589       -27.6084 
  69   2.0000      -1.013454       -27.5775 
  70   2.0000      -1.009524       -27.4705 
  71   2.0000      -0.992864       -27.0172 
  72   2.0000      -0.986548       -26.8453 
  73   2.0000      -0.980446       -26.6793 
  74   2.0000      -0.972386       -26.4600 
  75   2.0000      -0.961377       -26.1604 
  76   2.0000      -0.953784       -25.9538 
  77   2.0000      -0.946131       -25.7455 
  78   2.0000      -0.935332       -25.4517 
  79   2.0000      -0.918636       -24.9974 
  80   2.0000      -0.907749       -24.7011 
  81   2.0000      -0.894644       -24.3445 
  82   2.0000      -0.875057       -23.8115 
  83   2.0000      -0.871778       -23.7223 
  84   2.0000      -0.869674       -23.6650 
  85   2.0000      -0.857567       -23.3356 
  86   2.0000      -0.841595       -22.9010 
  87   2.0000      -0.835624       -22.7385 
  88   2.0000      -0.824953       -22.4481 
  89   2.0000      -0.797482       -21.7006 
  90   2.0000      -0.790901       -21.5215 
  91   2.0000      -0.751912       -20.4606 
  92   2.0000      -0.746156       -20.3039 
  93   2.0000      -0.732960       -19.9448 
  94   2.0000      -0.724899       -19.7255 
  95   2.0000      -0.722090       -19.6491 
  96   2.0000      -0.716616       -19.5001 
  97   2.0000      -0.712917       -19.3994 
  98   2.0000      -0.708667       -19.2838 
  99   2.0000      -0.697108       -18.9693 
 100   2.0000      -0.696297       -18.9472 
 101   2.0000      -0.685991       -18.6668 
 102   2.0000      -0.682257       -18.5652 
 103   2.0000      -0.681737       -18.5510 
 104   2.0000      -0.678246       -18.4560 
 105   2.0000      -0.673791       -18.3348 
 106   2.0000      -0.670482       -18.2447 
 107   2.0000      -0.660465       -17.9722 
 108   2.0000      -0.657031       -17.8787 
 109   2.0000      -0.652964       -17.7680 
 110   2.0000      -0.651400       -17.7255 
 111   2.0000      -0.643849       -17.5200 
 112   2.0000      -0.643295       -17.5049 
 113   2.0000      -0.638961       -17.3870 
 114   2.0000      -0.637514       -17.3476 
 115   2.0000      -0.627991       -17.0885 
 116   2.0000      -0.623749       -16.9731 
 117   2.0000      -0.620207       -16.8767 
 118   2.0000      -0.612614       -16.6701 
 119   2.0000      -0.612161       -16.6577 
 120   2.0000      -0.611346       -16.6356 
 121   2.0000      -0.608859       -16.5679 
 122   2.0000      -0.600741       -16.3470 
 123   2.0000      -0.586704       -15.9650 
 124   2.0000      -0.581582       -15.8256 
 125   2.0000      -0.580637       -15.7999 
 126   2.0000      -0.579574       -15.7710 
 127   2.0000      -0.573366       -15.6021 
 128   2.0000      -0.568316       -15.4647 
 129   2.0000      -0.559428       -15.2228 
 130   2.0000      -0.551657       -15.0114 
 131   2.0000      -0.547562       -14.8999 
 132   2.0000      -0.542148       -14.7526 
 133   2.0000      -0.541587       -14.7373 
 134   2.0000      -0.538161       -14.6441 
 135   2.0000      -0.535888       -14.5823 
 136   2.0000      -0.529203       -14.4004 
 137   2.0000      -0.521508       -14.1910 
 138   2.0000      -0.516686       -14.0597 
 139   2.0000      -0.514214       -13.9925 
 140   2.0000      -0.512534       -13.9467 
 141   2.0000      -0.511303       -13.9133 
 142   2.0000      -0.508976       -13.8499 
 143   2.0000      -0.504281       -13.7222 
 144   2.0000      -0.501987       -13.6598 
 145   2.0000      -0.496681       -13.5154 
 146   2.0000      -0.491656       -13.3786 
 147   2.0000      -0.483036       -13.1441 
 148   2.0000      -0.479207       -13.0399 
 149   2.0000      -0.466711       -12.6998 
 150   2.0000      -0.466413       -12.6917 
 151   2.0000      -0.457190       -12.4408 
 152   2.0000      -0.450996       -12.2722 
 153   2.0000      -0.444969       -12.1082 
 154   2.0000      -0.440653       -11.9908 
 155   2.0000      -0.428409       -11.6576 
 156   2.0000      -0.424191       -11.5428 
 157   2.0000      -0.408631       -11.1194 
 158   2.0000      -0.403037       -10.9672 
 159   2.0000      -0.388427       -10.5696 
 160   2.0000      -0.385125       -10.4798 
 161   2.0000      -0.378462       -10.2985 
 162   2.0000      -0.370082       -10.0704 
 163   2.0000      -0.356538        -9.7019 
 164   2.0000      -0.355730        -9.6799 
 165   2.0000      -0.341145        -9.2830 
 166   2.0000      -0.337560        -9.1855 
 167   2.0000      -0.325446        -8.8558 
 168   2.0000      -0.323359        -8.7990 
 169   2.0000      -0.304433        -8.2841 
 170   2.0000      -0.299644        -8.1537 
 171   2.0000      -0.285676        -7.7736 
 172   2.0000      -0.280880        -7.6431 
 173   2.0000      -0.263274        -7.1640 
 174   2.0000      -0.242082        -6.5874 
 175   2.0000      -0.189893        -5.1672 
 176   2.0000      -0.180416        -4.9094 
 177   2.0000      -0.076934        -2.0935 
 178   2.0000      -0.058831        -1.6009 
 179   0.0000       0.028422         0.7734 
 180   0.0000       0.065963         1.7950 
 181   0.0000       0.090914         2.4739 
 182   0.0000       0.108748         2.9592 
 183   0.0000       0.111762         3.0412 
 184   0.0000       0.137084         3.7303 
 185   0.0000       0.139524         3.7966 
 186   0.0000       0.142957         3.8901 
 187   0.0000       0.163583         4.4513 
 188   0.0000       0.165183         4.4949 
 189   0.0000       0.165764         4.5107 
 190   0.0000       0.170558         4.6411 
 191   0.0000       0.182413         4.9637 
 192   0.0000       0.185812         5.0562 
 193   0.0000       0.187531         5.1030 
 194   0.0000       0.204965         5.5774 
 195   0.0000       0.205690         5.5971 
 196   0.0000       0.208334         5.6691 
 197   0.0000       0.208703         5.6791 
 198   0.0000       0.218423         5.9436 
 199   0.0000       0.227386         6.1875 
 200   0.0000       0.231944         6.3115 
 201   0.0000       0.235638         6.4120 
 202   0.0000       0.239170         6.5081 
 203   0.0000       0.239875         6.5273 
 204   0.0000       0.247512         6.7352 
 205   0.0000       0.256284         6.9738 
 206   0.0000       0.256869         6.9898 
 207   0.0000       0.257182         6.9983 
 208   0.0000       0.258732         7.0405 
 209   0.0000       0.261453         7.1145 
 210   0.0000       0.262933         7.1548 
 211   0.0000       0.267245         7.2721 
 212   0.0000       0.270301         7.3553 
 213   0.0000       0.271846         7.3973 
 214   0.0000       0.272764         7.4223 
 215   0.0000       0.275860         7.5065 
 216   0.0000       0.278017         7.5652 
 217   0.0000       0.282318         7.6823 
 218   0.0000       0.286403         7.7934 
 219   0.0000       0.287813         7.8318 
 220   0.0000       0.289888         7.8883 
 221   0.0000       0.292158         7.9500 
 222   0.0000       0.295223         8.0334 
 223   0.0000       0.296371         8.0647 
 224   0.0000       0.297364         8.0917 
 225   0.0000       0.299188         8.1413 
 226   0.0000       0.305344         8.3088 
 227   0.0000       0.308592         8.3972 
 228   0.0000       0.309952         8.4342 
 229   0.0000       0.324758         8.8371 
 230   0.0000       0.327246         8.9048 
 231   0.0000       0.332099         9.0369 
 232   0.0000       0.339313         9.2332 
 233   0.0000       0.345664         9.4060 
 234   0.0000       0.354076         9.6349 
 235   0.0000       0.358563         9.7570 
 236   0.0000       0.376416        10.2428 
 237   0.0000       0.385288        10.4842 
 238   0.0000       0.393630        10.7112 
 239   0.0000       0.396714        10.7951 
 240   0.0000       0.401023        10.9124 
 241   0.0000       0.410029        11.1574 
 242   0.0000       0.413574        11.2539 
 243   0.0000       0.419543        11.4163 
 244   0.0000       0.429302        11.6819 
 245   0.0000       0.433981        11.8092 
 246   0.0000       0.436476        11.8771 
 247   0.0000       0.441081        12.0024 
 248   0.0000       0.441864        12.0237 
 249   0.0000       0.448549        12.2056 
 250   0.0000       0.457523        12.4498 
 251   0.0000       0.463221        12.6049 
 252   0.0000       0.469259        12.7692 
 253   0.0000       0.470574        12.8050 
 254   0.0000       0.472218        12.8497 
 255   0.0000       0.473982        12.8977 
 256   0.0000       0.476889        12.9768 
 257   0.0000       0.480499        13.0750 
 258   0.0000       0.487184        13.2569 
 259   0.0000       0.497107        13.5270 
 260   0.0000       0.503897        13.7117 
 261   0.0000       0.505332        13.7508 
 262   0.0000       0.506622        13.7859 
 263   0.0000       0.509768        13.8715 
 264   0.0000       0.514813        14.0088 
 265   0.0000       0.519528        14.1371 
 266   0.0000       0.524486        14.2720 
 267   0.0000       0.529922        14.4199 
 268   0.0000       0.532865        14.5000 
 269   0.0000       0.536839        14.6081 
 270   0.0000       0.541418        14.7327 
 271   0.0000       0.545417        14.8415 
 272   0.0000       0.556088        15.1319 
 273   0.0000       0.559276        15.2187 
 274   0.0000       0.561655        15.2834 
 275   0.0000       0.565351        15.3840 
 276   0.0000       0.570162        15.5149 
 277   0.0000       0.573121        15.5954 
 278   0.0000       0.577814        15.7231 
 279   0.0000       0.586702        15.9650 
 280   0.0000       0.590062        16.0564 
 281   0.0000       0.593024        16.1370 
 282   0.0000       0.594590        16.1796 
 283   0.0000       0.595103        16.1936 
 284   0.0000       0.597934        16.2706 
 285   0.0000       0.600046        16.3281 
 286   0.0000       0.606995        16.5172 
 287   0.0000       0.611968        16.6525 
 288   0.0000       0.616701        16.7813 
 289   0.0000       0.623015        16.9531 
 290   0.0000       0.626621        17.0512 
 291   0.0000       0.628927        17.1140 
 292   0.0000       0.634663        17.2701 
 293   0.0000       0.639288        17.3959 
 294   0.0000       0.644797        17.5458 
 295   0.0000       0.647731        17.6257 
 296   0.0000       0.652987        17.7687 
 297   0.0000       0.655763        17.8442 
 298   0.0000       0.662236        18.0204 
 299   0.0000       0.667236        18.1564 
 300   0.0000       0.672323        18.2948 
 301   0.0000       0.675088        18.3701 
 302   0.0000       0.676879        18.4188 
 303   0.0000       0.679388        18.4871 
 304   0.0000       0.680898        18.5282 
 305   0.0000       0.684957        18.6386 
 306   0.0000       0.688189        18.7266 
 307   0.0000       0.690828        18.7984 
 308   0.0000       0.695562        18.9272 
 309   0.0000       0.698122        18.9969 
 310   0.0000       0.702554        19.1175 
 311   0.0000       0.703796        19.1513 
 312   0.0000       0.707065        19.2402 
 313   0.0000       0.711457        19.3597 
 314   0.0000       0.712181        19.3794 
 315   0.0000       0.715791        19.4777 
 316   0.0000       0.717265        19.5178 
 317   0.0000       0.718168        19.5424 
 318   0.0000       0.721798        19.6411 
 319   0.0000       0.723228        19.6800 
 320   0.0000       0.726529        19.7699 
 321   0.0000       0.730364        19.8742 
 322   0.0000       0.732220        19.9247 
 323   0.0000       0.733409        19.9571 
 324   0.0000       0.734519        19.9873 
 325   0.0000       0.740080        20.1386 
 326   0.0000       0.743824        20.2405 
 327   0.0000       0.749423        20.3928 
 328   0.0000       0.752277        20.4705 
 329   0.0000       0.752984        20.4897 
 330   0.0000       0.754718        20.5369 
 331   0.0000       0.759082        20.6557 
 332   0.0000       0.760465        20.6933 
 333   0.0000       0.766845        20.8669 
 334   0.0000       0.767648        20.8888 
 335   0.0000       0.772224        21.0133 
 336   0.0000       0.774895        21.0860 
 337   0.0000       0.781422        21.2636 
 338   0.0000       0.782016        21.2797 
 339   0.0000       0.788825        21.4650 
 340   0.0000       0.793208        21.5843 
 341   0.0000       0.794518        21.6199 
 342   0.0000       0.796463        21.6729 
 343   0.0000       0.803043        21.8519 
 344   0.0000       0.805235        21.9116 
 345   0.0000       0.807766        21.9804 
 346   0.0000       0.808620        22.0037 
 347   0.0000       0.813759        22.1435 
 348   0.0000       0.815527        22.1916 
 349   0.0000       0.817937        22.2572 
 350   0.0000       0.819595        22.3023 
 351   0.0000       0.821843        22.3635 
 352   0.0000       0.823988        22.4218 
 353   0.0000       0.826420        22.4880 
 354   0.0000       0.827532        22.5183 
 355   0.0000       0.832413        22.6511 
 356   0.0000       0.833136        22.6708 
 357   0.0000       0.836310        22.7572 
 358   0.0000       0.837556        22.7910 
 359   0.0000       0.839544        22.8451 
 360   0.0000       0.839792        22.8519 
 361   0.0000       0.842821        22.9343 
 362   0.0000       0.844355        22.9761 
 363   0.0000       0.848543        23.0900 
 364   0.0000       0.849171        23.1071 
 365   0.0000       0.854789        23.2600 
 366   0.0000       0.857262        23.3273 
 367   0.0000       0.860802        23.4236 
 368   0.0000       0.864712        23.5300 
 369   0.0000       0.867578        23.6080 
 370   0.0000       0.871471        23.7139 
 371   0.0000       0.872152        23.7325 
 372   0.0000       0.874170        23.7874 
 373   0.0000       0.875676        23.8284 
 374   0.0000       0.878853        23.9148 
 375   0.0000       0.884015        24.0553 
 376   0.0000       0.885860        24.1055 
 377   0.0000       0.889680        24.2094 
 378   0.0000       0.890768        24.2390 
 379   0.0000       0.892081        24.2748 
 380   0.0000       0.897058        24.4102 
 381   0.0000       0.898963        24.4620 
 382   0.0000       0.899870        24.4867 
 383   0.0000       0.901028        24.5182 
 384   0.0000       0.904996        24.6262 
 385   0.0000       0.905560        24.6415 
 386   0.0000       0.908017        24.7084 
 387   0.0000       0.909224        24.7412 
 388   0.0000       0.912280        24.8244 
 389   0.0000       0.916388        24.9362 
 390   0.0000       0.920870        25.0581 
 391   0.0000       0.924554        25.1584 
 392   0.0000       0.926179        25.2026 
 393   0.0000       0.927462        25.2375 
 394   0.0000       0.928466        25.2648 
 395   0.0000       0.930116        25.3097 
 396   0.0000       0.934640        25.4328 
 397   0.0000       0.939700        25.5705 
 398   0.0000       0.941923        25.6310 
 399   0.0000       0.943903        25.6849 
 400   0.0000       0.946241        25.7485 
 401   0.0000       0.951680        25.8965 
 402   0.0000       0.953385        25.9429 
 403   0.0000       0.956208        26.0197 
 404   0.0000       0.959931        26.1211 
 405   0.0000       0.963258        26.2116 
 406   0.0000       0.968281        26.3483 
 407   0.0000       0.971884        26.4463 
 408   0.0000       0.978317        26.6214 
 409   0.0000       0.980367        26.6771 
 410   0.0000       0.983982        26.7755 
 411   0.0000       0.986800        26.8522 
 412   0.0000       0.992241        27.0002 
 413   0.0000       0.998973        27.1834 
 414   0.0000       1.001798        27.2603 
 415   0.0000       1.004779        27.3414 
 416   0.0000       1.011184        27.5157 
 417   0.0000       1.012591        27.5540 
 418   0.0000       1.023211        27.8430 
 419   0.0000       1.029277        28.0080 
 420   0.0000       1.032282        28.0898 
 421   0.0000       1.033546        28.1242 
 422   0.0000       1.039328        28.2815 
 423   0.0000       1.047649        28.5080 
 424   0.0000       1.054941        28.7064 
 425   0.0000       1.057050        28.7638 
 426   0.0000       1.061776        28.8924 
 427   0.0000       1.067064        29.0363 
 428   0.0000       1.077267        29.3139 
 429   0.0000       1.083790        29.4914 
 430   0.0000       1.085166        29.5289 
 431   0.0000       1.089360        29.6430 
 432   0.0000       1.090824        29.6828 
 433   0.0000       1.095986        29.8233 
 434   0.0000       1.101516        29.9738 
 435   0.0000       1.103141        30.0180 
 436   0.0000       1.107475        30.1359 
 437   0.0000       1.111016        30.2323 
 438   0.0000       1.115519        30.3548 
 439   0.0000       1.119995        30.4766 
 440   0.0000       1.120916        30.5017 
 441   0.0000       1.123286        30.5662 
 442   0.0000       1.124952        30.6115 
 443   0.0000       1.128127        30.6979 
 444   0.0000       1.134658        30.8756 
 445   0.0000       1.136477        30.9251 
 446   0.0000       1.140161        31.0254 
 447   0.0000       1.145888        31.1812 
 448   0.0000       1.148498        31.2522 
 449   0.0000       1.149809        31.2879 
 450   0.0000       1.153485        31.3879 
 451   0.0000       1.159390        31.5486 
 452   0.0000       1.164266        31.6813 
 453   0.0000       1.166667        31.7466 
 454   0.0000       1.169447        31.8223 
 455   0.0000       1.171418        31.8759 
 456   0.0000       1.175693        31.9922 
 457   0.0000       1.179742        32.1024 
 458   0.0000       1.184534        32.2328 
 459   0.0000       1.191428        32.4204 
 460   0.0000       1.197079        32.5742 
 461   0.0000       1.199141        32.6303 
 462   0.0000       1.199818        32.6487 
 463   0.0000       1.205609        32.8063 
 464   0.0000       1.208645        32.8889 
 465   0.0000       1.212534        32.9947 
 466   0.0000       1.217190        33.1214 
 467   0.0000       1.219368        33.1807 
 468   0.0000       1.224310        33.3152 
 469   0.0000       1.226004        33.3613 
 470   0.0000       1.229100        33.4455 
 471   0.0000       1.232773        33.5455 
 472   0.0000       1.235516        33.6201 
 473   0.0000       1.237671        33.6787 
 474   0.0000       1.243051        33.8251 
 475   0.0000       1.243413        33.8350 
 476   0.0000       1.249574        34.0026 
 477   0.0000       1.250563        34.0295 
 478   0.0000       1.251952        34.0673 
 479   0.0000       1.255757        34.1709 
 480   0.0000       1.259271        34.2665 
 481   0.0000       1.263711        34.3873 
 482   0.0000       1.264467        34.4079 
 483   0.0000       1.271474        34.5986 
 484   0.0000       1.275648        34.7122 
 485   0.0000       1.279879        34.8273 
 486   0.0000       1.282474        34.8979 
 487   0.0000       1.285825        34.9891 
 488   0.0000       1.288709        35.0676 
 489   0.0000       1.292288        35.1649 
 490   0.0000       1.294961        35.2377 
 491   0.0000       1.298590        35.3364 
 492   0.0000       1.300550        35.3898 
 493   0.0000       1.310654        35.6647 
 494   0.0000       1.311184        35.6791 
 495   0.0000       1.318257        35.8716 
 496   0.0000       1.320458        35.9315 
 497   0.0000       1.320580        35.9348 
 498   0.0000       1.326661        36.1003 
 499   0.0000       1.328818        36.1590 
 500   0.0000       1.332742        36.2658 
 501   0.0000       1.339846        36.4591 
 502   0.0000       1.340853        36.4865 
 503   0.0000       1.344929        36.5974 
 504   0.0000       1.346935        36.6520 
 505   0.0000       1.350995        36.7624 
 506   0.0000       1.351719        36.7821 
 507   0.0000       1.355313        36.8799 
 508   0.0000       1.358514        36.9671 
 509   0.0000       1.360687        37.0262 
[...]
      pz      :     0.022107  p :     0.079762
      px      :     0.043584
      py      :     0.014071
 77 H s       :     0.884920  s :     0.884920
      pz      :     0.047947  p :     0.079256
      px      :     0.015023
      py      :     0.016287
 78 H s       :     0.885262  s :     0.885262
      pz      :     0.025868  p :     0.079224
      px      :     0.020464
      py      :     0.032892
 79 H s       :     0.910609  s :     0.910609
      pz      :     0.021821  p :     0.086337
      px      :     0.021669
      py      :     0.042847
 80 H s       :     0.864956  s :     0.864956
      pz      :     0.039345  p :     0.084763
      px      :     0.030249
      py      :     0.015169
 81 H s       :     0.886840  s :     0.886840
      pz      :     0.037817  p :     0.084109
      px      :     0.016178
      py      :     0.030113
 82 H s       :     0.915888  s :     0.915888
      pz      :     0.021959  p :     0.086739
      px      :     0.031631
      py      :     0.033149
 83 H s       :     0.873275  s :     0.873275
      pz      :     0.039283  p :     0.084092
      px      :     0.015271
      py      :     0.029538
 84 H s       :     0.886642  s :     0.886642
      pz      :     0.035777  p :     0.083460
      px      :     0.031701
      py      :     0.015982
 85 H s       :     0.892829  s :     0.892829
      pz      :     0.022493  p :     0.079788
      px      :     0.014068
      py      :     0.043227
 86 H s       :     0.890932  s :     0.890932
      pz      :     0.024732  p :     0.078835
      px      :     0.032984
      py      :     0.021119
 87 H s       :     0.889870  s :     0.889870
      pz      :     0.048011  p :     0.078739
      px      :     0.015588
      py      :     0.015139
 88 H s       :     0.910779  s :     0.910779
      pz      :     0.021642  p :     0.087007
      px      :     0.042914
      py      :     0.022451
 89 H s       :     0.871401  s :     0.871401
      pz      :     0.037943  p :     0.083838
      px      :     0.030481
      py      :     0.015414


                      *****************************
                      * MAYER POPULATION ANALYSIS *
                      *****************************

  NA   - Mulliken gross atomic population
  ZA   - Total nuclear charge
  QA   - Mulliken gross atomic charge
  VA   - Mayer's total valence
  BVA  - Mayer's bonded valence
  FA   - Mayer's free valence

  ATOM       NA         ZA         QA         VA         BVA        FA
  0 C      5.7886     6.0000     0.2114     3.8438     3.8438     0.0000
  1 N      7.4552     7.0000    -0.4552     3.3355     3.3355     0.0000
  2 C      6.0681     6.0000    -0.0681     3.9214     3.9214    -0.0000
  3 N      7.3383     7.0000    -0.3383     3.4569     3.4569     0.0000
  4 C      6.0486     6.0000    -0.0486     4.0454     4.0454    -0.0000
  5 N      7.5655     7.0000    -0.5655     3.0946     3.0946    -0.0000
  6 C      6.1108     6.0000    -0.1108     3.9739     3.9739     0.0000
  7 N      7.3404     7.0000    -0.3404     3.4337     3.4337    -0.0000
  8 C      5.7923     6.0000     0.2077     3.8436     3.8436    -0.0000
  9 N      7.5622     7.0000    -0.5622     3.0775     3.0775    -0.0000
 10 C      5.8808     6.0000     0.1192     3.9088     3.9088     0.0000
 11 N      7.4385     7.0000    -0.4385     3.3779     3.3779    -0.0000
 12 C      6.0782     6.0000    -0.0782     3.8884     3.8884    -0.0000
 13 N      7.4303     7.0000    -0.4303     3.4241     3.4241    -0.0000
 14 C      5.7698     6.0000     0.2302     3.7870     3.7870    -0.0000
 15 N      7.4409     7.0000    -0.4409     3.3724     3.3724     0.0000
 16 C      5.7714     6.0000     0.2286     3.7777     3.7777    -0.0000
 17 C      6.1221     6.0000    -0.1221     3.9852     3.9852    -0.0000
 18 C      6.1912     6.0000    -0.1912     3.7659     3.7659     0.0000
 19 C      5.7775     6.0000     0.2225     3.8641     3.8641    -0.0000
 20 C      5.7871     6.0000     0.2129     3.8290     3.8290    -0.0000
 21 C      6.0870     6.0000    -0.0870     3.8691     3.8691    -0.0000
 22 C      6.0912     6.0000    -0.0912     3.9829     3.9829     0.0000
 23 C      6.0401     6.0000    -0.0401     3.9926     3.9926    -0.0000
 24 C      5.8058     6.0000     0.1942     3.8214     3.8214    -0.0000
 25 C      5.8854     6.0000     0.1146     3.8916     3.8916     0.0000
 26 C      6.0851     6.0000    -0.0851     3.9106     3.9106    -0.0000
 27 C      5.7865     6.0000     0.2135     3.8629     3.8629     0.0000
 28 C      6.0612     6.0000    -0.0612     3.9887     3.9887    -0.0000
 29 C      6.1808     6.0000    -0.1808     3.7450     3.7450     0.0000
 30 C      5.7545     6.0000     0.2455     3.8003     3.8003    -0.0000
 31 C      5.7715     6.0000     0.2285     3.8181     3.8181    -0.0000
 32 C      6.0621     6.0000    -0.0621     3.9227     3.9227    -0.0000
 33 C      6.0621     6.0000    -0.0621     3.9728     3.9728     0.0000
 34 C      6.0511     6.0000    -0.0511     3.9843     3.9843     0.0000
 35 C      5.7735     6.0000     0.2265     3.8174     3.8174    -0.0000
 36 C      5.8913     6.0000     0.1087     3.8762     3.8762     0.0000
 37 C      6.0644     6.0000    -0.0644     3.9177     3.9177    -0.0000
 38 C      5.7685     6.0000     0.2315     3.8002     3.8002    -0.0000
 39 C      6.0579     6.0000    -0.0579     3.9838     3.9838    -0.0000
 40 C      6.1819     6.0000    -0.1819     3.7284     3.7284    -0.0000
 41 C      5.7743     6.0000     0.2257     3.8866     3.8866    -0.0000
 42 C      5.8022     6.0000     0.1978     3.8259     3.8259    -0.0000
 43 C      6.0723     6.0000    -0.0723     3.9001     3.9001     0.0000
 44 C      6.0894     6.0000    -0.0894     3.9849     3.9849    -0.0000
 45 C      6.0608     6.0000    -0.0608     3.9922     3.9922    -0.0000
 46 C      5.7889     6.0000     0.2111     3.8283     3.8283    -0.0000
 47 C      5.8846     6.0000     0.1154     3.8929     3.8929     0.0000
 48 C      6.0674     6.0000    -0.0674     3.9093     3.9093    -0.0000
 49 C      5.7619     6.0000     0.2381     3.8931     3.8931     0.0000
 50 C      6.0469     6.0000    -0.0469     3.9904     3.9904    -0.0000
 51 C      6.1920     6.0000    -0.1920     3.7363     3.7363    -0.0000
 52 H      0.9616     1.0000     0.0384     0.9859     0.9859    -0.0000
 53 H      1.0171     1.0000    -0.0171     0.9984     0.9984    -0.0000
 54 H      0.9480     1.0000     0.0520     1.0182     1.0182     0.0000
 55 H      0.9626     1.0000     0.0374     0.9867     0.9867    -0.0000
 56 H      0.9504     1.0000     0.0496     0.9696     0.9696    -0.0000
 57 H      0.9519     1.0000     0.0481     0.9829     0.9829    -0.0000
 58 H      0.9526     1.0000     0.0474     0.9848     0.9848    -0.0000
 59 H      0.9999     1.0000     0.0001     1.0019     1.0019    -0.0000
 60 H      0.9527     1.0000     0.0473     1.0162     1.0162    -0.0000
 61 H      0.8288     1.0000     0.1712     1.0421     1.0421    -0.0000
 62 H      0.8247     1.0000     0.1753     1.0436     1.0436     0.0000
 63 H      0.9449     1.0000     0.0551     0.9853     0.9853    -0.0000
 64 H      1.0115     1.0000    -0.0115     0.9950     0.9950    -0.0000
 65 H      0.9528     1.0000     0.0472     1.0096     1.0096    -0.0000
 66 H      0.9443     1.0000     0.0557     0.9855     0.9855     0.0000
 67 H      0.9378     1.0000     0.0622     0.9719     0.9719     0.0000
 68 H      0.9428     1.0000     0.0572     0.9868     0.9868    -0.0000
 69 H      0.9436     1.0000     0.0564     0.9828     0.9828    -0.0000
 70 H      1.0298     1.0000    -0.0298     0.9937     0.9937    -0.0000
 71 H      0.9553     1.0000     0.0447     1.0060     1.0060    -0.0000
 72 H      0.9298     1.0000     0.0702     0.9837     0.9837     0.0000
 73 H      1.0083     1.0000    -0.0083     1.0008     1.0008    -0.0000
 74 H      0.9407     1.0000     0.0593     1.0100     1.0100     0.0000
 75 H      0.9304     1.0000     0.0696     0.9840     0.9840    -0.0000
 76 H      0.9261     1.0000     0.0739     0.9721     0.9721    -0.0000
 77 H      0.9328     1.0000     0.0672     0.9854     0.9854    -0.0000
 78 H      0.9335     1.0000     0.0665     0.9853     0.9853    -0.0000
 79 H      1.0164     1.0000    -0.0164     0.9976     0.9976    -0.0000
 80 H      0.9398     1.0000     0.0602     1.0072     1.0072     0.0000
 81 H      0.9457     1.0000     0.0543     0.9856     0.9856    -0.0000
 82 H      1.0247     1.0000    -0.0247     0.9935     0.9935     0.0000
 83 H      0.9579     1.0000     0.0421     1.0083     1.0083    -0.0000
 84 H      0.9457     1.0000     0.0543     0.9852     0.9852    -0.0000
 85 H      0.9391     1.0000     0.0609     0.9716     0.9716    -0.0000
 86 H      0.9443     1.0000     0.0557     0.9839     0.9839    -0.0000
 87 H      0.9428     1.0000     0.0572     0.9856     0.9856    -0.0000
 88 H      1.0148     1.0000    -0.0148     0.9966     0.9966     0.0000
 89 H      0.9537     1.0000     0.0463     1.0075     1.0075     0.0000

  Mayer bond orders larger than 0.100000
B(  0-C ,  1-N ) :   1.0968 B(  0-C , 17-C ) :   1.7030 B(  0-C , 52-H ) :   0.9662 
B(  1-N ,  8-C ) :   1.0876 B(  1-N , 10-C ) :   0.9770 B(  2-C , 12-C ) :   1.5032 
B(  2-C , 16-C ) :   1.3596 B(  2-C , 53-H ) :   0.9746 B(  3-N , 14-C ) :   1.2196 
B(  3-N , 16-C ) :   1.1874 B(  3-N , 61-H ) :   0.8990 B(  4-C ,  6-C ) :   1.2118 
B(  4-C , 17-C ) :   1.2138 B(  4-C , 18-C ) :   1.4457 B(  5-N , 19-C ) :   1.4532 
B(  5-N , 27-C ) :   1.3772 B(  6-C ,  8-C ) :   1.7118 B(  6-C , 54-H ) :   0.9381 
B(  7-N , 30-C ) :   1.1959 B(  7-N , 38-C ) :   1.1904 B(  7-N , 62-H ) :   0.8969 
B(  8-C , 55-H ) :   0.9660 B(  9-N , 41-C ) :   1.3952 B(  9-N , 49-C ) :   1.4246 
B( 10-C , 56-H ) :   0.9773 B( 10-C , 57-H ) :   0.9822 B( 10-C , 58-H ) :   0.9843 
B( 11-N , 20-C ) :   1.1301 B( 11-N , 24-C ) :   1.1074 B( 11-N , 25-C ) :   0.9603 
B( 12-C , 14-C ) :   1.3560 B( 12-C , 59-H ) :   0.9683 B( 13-N , 31-C ) :   1.1581 
B( 13-N , 35-C ) :   1.1566 B( 13-N , 36-C ) :   0.9429 B( 14-C , 18-C ) :   1.1278 
B( 15-N , 42-C ) :   1.1083 B( 15-N , 46-C ) :   1.1236 B( 15-N , 47-C ) :   0.9613 
B( 16-C , 51-C ) :   1.1710 B( 17-C , 60-H ) :   0.9477 B( 18-C , 19-C ) :   1.1305 
B( 19-C , 21-C ) :   1.2482 B( 20-C , 28-C ) :   1.6289 B( 20-C , 63-H ) :   0.9703 
B( 21-C , 26-C ) :   1.5977 B( 21-C , 64-H ) :   0.9585 B( 22-C , 23-C ) :   1.2886 
B( 22-C , 28-C ) :   1.2640 B( 22-C , 29-C ) :   1.2254 B( 23-C , 24-C ) :   1.6207 
B( 23-C , 65-H ) :   0.9703 B( 24-C , 66-H ) :   0.9695 B( 25-C , 67-H ) :   0.9760 
B( 25-C , 68-H ) :   0.9828 B( 25-C , 69-H ) :   0.9823 B( 26-C , 27-C ) :   1.2483 
B( 26-C , 70-H ) :   0.9699 B( 27-C , 29-C ) :   1.2100 B( 28-C , 71-H ) :   0.9720 
B( 29-C , 30-C ) :   1.2425 B( 30-C , 32-C ) :   1.2824 B( 31-C , 39-C ) :   1.5914 
B( 31-C , 72-H ) :   0.9682 B( 32-C , 37-C ) :   1.5763 B( 32-C , 73-H ) :   0.9786 
B( 33-C , 34-C ) :   1.3044 B( 33-C , 39-C ) :   1.3011 B( 33-C , 40-C ) :   1.1820 
B( 34-C , 35-C ) :   1.5889 B( 34-C , 74-H ) :   0.9697 B( 35-C , 75-H ) :   0.9682 
B( 36-C , 76-H ) :   0.9767 B( 36-C , 77-H ) :   0.9816 B( 36-C , 78-H ) :   0.9824 
B( 37-C , 38-C ) :   1.2878 B( 37-C , 79-H ) :   0.9766 B( 38-C , 40-C ) :   1.2313 
B( 39-C , 80-H ) :   0.9706 B( 40-C , 41-C ) :   1.2485 B( 41-C , 43-C ) :   1.1862 
B( 42-C , 50-C ) :   1.6330 B( 42-C , 81-H ) :   0.9697 B( 43-C , 48-C ) :   1.6664 
B( 43-C , 82-H ) :   0.9723 B( 44-C , 45-C ) :   1.2642 B( 44-C , 50-C ) :   1.2722 
B( 44-C , 51-C ) :   1.2597 B( 45-C , 46-C ) :   1.6344 B( 45-C , 83-H ) :   0.9718 
B( 46-C , 84-H ) :   0.9700 B( 47-C , 85-H ) :   0.9762 B( 47-C , 86-H ) :   0.9829 
B( 47-C , 87-H ) :   0.9824 B( 48-C , 49-C ) :   1.1897 B( 48-C , 88-H ) :   0.9748 
B( 49-C , 51-C ) :   1.2422 B( 50-C , 89-H ) :   0.9709 

-------
TIMINGS
-------

Total SCF time: 0 days 0 hours 30 min 24 sec 

Total time                  ....    1824.507 sec
Sum of individual times     ....    1819.926 sec  ( 99.7%)

Fock matrix formation       ....    1796.735 sec  ( 98.5%)
Diagonalization             ....       6.885 sec  (  0.4%)
Density matrix formation    ....       0.680 sec  (  0.0%)
Population analysis         ....       0.527 sec  (  0.0%)
Initial guess               ....       2.073 sec  (  0.1%)
Orbital Transformation      ....       0.000 sec  (  0.0%)
Orbital Orthonormalization  ....       0.000 sec  (  0.0%)
DIIS solution               ....       3.518 sec  (  0.2%)
SOSCF solution              ....       8.456 sec  (  0.5%)

Maximum memory used throughout the entire SCF-calculation: 302.6 MB


           ************************************************************
           *        Program running with 16 parallel MPI-processes    *
           *              working on a common directory               *
           ************************************************************

------------------------------------------------------------------------------
                                ORCA  MP2 
------------------------------------------------------------------------------

Freezing NCore=104 chemical core electrons

----------
MP2 ENERGY (disk based algorithm)
----------

Dimension of the basis                    ...  918
Memory devoted to MP2                     ... 2000 MB   
Data format for buffers                   ... DOUBLE
Compression type for matrix containers    ... UNCOMPRESSED

-------------------------------
PARTIAL EXCHANGE TRANSFORMATION
-------------------------------

Transformation type                        ... one-operator
Generation of integrals (i,mue|j,nue)      ... ON
Generation of integrals (mue,kappa|nue,tau)... OFF
Generation of integrals (i,mue|a,nue)      ... OFF
Dimension of the basis                     ...  918
Number of internal MOs                     ...  127 (  52- 178)
Pair cutoff                                ... 2.500e-12 Eh
Number of AO pairs in the trafo            ... 421821
Total Number of distinct AO pairs          ... 421821
Memory devoted for trafo                   ... 2000.0 MB 
Max. Number of MO pairs treated together   ...  311      
Number Format for Storage                  ... Double (8 Byte)
Integral package used                      ... LIBINT

Starting integral evaluation:
    ... done with AO integral generation
Closing buffer AOK     (38.33 GB; CompressionRatio= 1.32)
Collecting buffer AOK 
Number of MO pairs included in the trafo   ... 8128
------------------------
SORTING OF (i,mue|j,nue)
------------------------

IBATCH = 1 of  2
IBATCH = 2 of  2
Closing buffer KAO     (51.03 GB; CompressionRatio= 1.00)
Collecting buffer KAO 
N(AO-Batches) Done                         ...  85906513 
N(AO-Batches) Skipped                      ...  82476970 
N(IJ)-pairs Skipped                        ...         0 
TOTAL TIME for half transformation         ...  3032.443 sec
AO-integral generation                     ...   212.616 sec
Half transformation                        ...   374.797 sec
K-integral sorting                         ...  2262.307 sec
Process 10:   Internal MO 132
Process 13:   Internal MO 156

Finished integral transformation - now doing MP2 part

Process  4:   Internal MO  84
OPERATOR COMBINATION   0   0: ij=( 52..178, 52..178)
Process  7:   Internal MO 108
Process  1:   Internal MO  60
Process  0:   Internal MO  54
Process  0:   Internal MO  57
Process  2:   Internal MO  69
Process  1:   Internal MO  63
Process  5:   Internal MO  93
Process  3:   Internal MO  78
Process  8:   Internal MO 117
Process  1:   Internal MO  66
Process  2:   Internal MO  72
Process 11:   Internal MO 141
Process  6:   Internal MO 102
Process  4:   Internal MO  87
Process 14:   Internal MO 165
Process  3:   Internal MO  81
Process  2:   Internal MO  75
Process  9:   Internal MO 126
Process  5:   Internal MO  96
Process  7:   Internal MO 111
Process 12:   Internal MO 150
Process  4:   Internal MO  90
Process 15:   Internal MO 174
Process 10:   Internal MO 135
Process  6:   Internal MO 105
Process  8:   Internal MO 120
Process  5:   Internal MO  99
Process 13:   Internal MO 159
Process  7:   Internal MO 114
Process  9:   Internal MO 129
Process 11:   Internal MO 144
Process 12:   Internal MO 153
Process 14:   Internal MO 168
Process  8:   Internal MO 123
Process 10:   Internal MO 138
Process 15:   Internal MO 177
Process 11:   Internal MO 147
Process 13:   Internal MO 162
Process 14:   Internal MO 171
-----------------------------------------------
 MP2 CORRELATION ENERGY   :     -7.284583338 Eh
-----------------------------------------------


-------
TIMINGS
-------
Total time                : 3572.988 sec
Integral trafo            : 3034.630 sec ( 84.9%)
K(i,j)                    :    6.001 sec (  0.2%)
T(i,j)                    :    0.081 sec (  0.0%)

---------------------------------------
MP2 TOTAL ENERGY:    -2130.861547695 Eh
---------------------------------------

Maximum memory used throughout the entire MP2-calculation: 2275.3 MB

-------------------------   --------------------
FINAL SINGLE POINT ENERGY     -2130.861547695272
-------------------------   --------------------


                            ***************************************
                            *     ORCA property calculations      *
                            ***************************************


  WARNING: The energy has been calculated at the MP2 level but the densities
           used in the property calculations are still SCF densities
           MP2 response densities have not been calculated 
           use %mp2 Density relaxed end
           or  %mp2 Density unrelaxed end

                                    ---------------------
                                    Active property flags
                                    ---------------------
   (+) Dipole Moment


------------------------------------------------------------------------------
                       ORCA ELECTRIC PROPERTIES CALCULATION
------------------------------------------------------------------------------

Dipole Moment Calculation                       ... on
Quadrupole Moment Calculation                   ... off
Polarizability Calculation                      ... off
GBWName                                         ... /scratch/allen/tmpyp4_amber_gaff2/conf1/conf1/Conf27.orca.gbw
Electron density                                ... /scratch/allen/tmpyp4_amber_gaff2/conf1/conf1/Conf27.orca.scfp
The origin for moment calculation is the CENTER OF MASS  = (-0.000745, -0.004632  0.003119)

-------------
DIPOLE MOMENT
-------------
                                X             Y             Z
Electronic contribution:      2.63624      -3.96346      -0.10969
Nuclear contribution   :     -0.04873       0.15201       0.12888
                        -----------------------------------------
Total Dipole Moment    :      2.58751      -3.81145       0.01919
                        -----------------------------------------
Magnitude (a.u.)       :      4.60681
Magnitude (Debye)      :     11.70959



--------------------
Rotational spectrum 
--------------------
 
Rotational constants in cm-1:     0.001502     0.001477     0.000760 
Rotational constants in MHz :    45.038618    44.280108    22.795119 

 Dipole components along the rotational axes: 
x,y,z [a.u.] :     3.321206     3.192455     0.023228 
x,y,z [Debye]:     8.441836     8.114575     0.059042 

 

Timings for individual modules:

Sum of individual times         ...     5425.034 sec (=  90.417 min)
GTO integral calculation        ...        3.286 sec (=   0.055 min)   0.1 %
SCF iterations                  ...     1825.587 sec (=  30.426 min)  33.7 %
MP2 module                      ...     3596.161 sec (=  59.936 min)  66.3 %
                             ****ORCA TERMINATED NORMALLY****
TOTAL RUN TIME: 0 days 1 hours 30 minutes 28 seconds 571 msec
# of primitive gaussian functions

