
                                 *****************
                                 * O   R   C   A *
                                 *****************

                                            #,                                       
                                            ###                                      
                                            ####                                     
                                            #####                                    
                                            ######                                   
                                           ########,                                 
                                     ,,################,,,,,                         
                               ,,#################################,,                 
                          ,,##########################################,,             
                       ,#########################################, ''#####,          
                    ,#############################################,,   '####,        
                  ,##################################################,,,,####,       
                ,###########''''           ''''###############################       
              ,#####''   ,,,,##########,,,,          '''####'''          '####       
            ,##' ,,,,###########################,,,                        '##       
           ' ,,###''''                  '''############,,,                           
         ,,##''                                '''############,,,,        ,,,,,,###''
      ,#''                                            '''#######################'''  
     '                                                          ''''####''''         
             ,#######,   #######,   ,#######,      ##                                
            ,#'     '#,  ##    ##  ,#'     '#,    #''#        ######   ,####,        
            ##       ##  ##   ,#'  ##            #'  '#       #        #'  '#        
            ##       ##  #######   ##           ,######,      #####,   #    #        
            '#,     ,#'  ##    ##  '#,     ,#' ,#      #,         ##   #,  ,#        
             '#######'   ##     ##  '#######'  #'      '#     #####' # '####'        



                  #######################################################
                  #                        -***-                        #
                  #          Department of theory and spectroscopy      #
                  #    Directorship and core code : Frank Neese         #
                  #        Max Planck Institute fuer Kohlenforschung    #
                  #                Kaiser Wilhelm Platz 1               #
                  #                 D-45470 Muelheim/Ruhr               #
                  #                      Germany                        #
                  #                                                     #
                  #                  All rights reserved                #
                  #                        -***-                        #
                  #######################################################


                         Program Version 5.0.4 -  RELEASE  -


 With contributions from (in alphabetic order):
   Daniel Aravena         : Magnetic Suceptibility
   Michael Atanasov       : Ab Initio Ligand Field Theory (pilot matlab implementation)
   Alexander A. Auer      : GIAO ZORA, VPT2 properties, NMR spectrum
   Ute Becker             : Parallelization
   Giovanni Bistoni       : ED, misc. LED, open-shell LED, HFLD
   Martin Brehm           : Molecular dynamics
   Dmytro Bykov           : SCF Hessian
   Vijay G. Chilkuri      : MRCI spin determinant printing, contributions to CSF-ICE
   Dipayan Datta          : RHF DLPNO-CCSD density
   Achintya Kumar Dutta   : EOM-CC, STEOM-CC
   Dmitry Ganyushin       : Spin-Orbit,Spin-Spin,Magnetic field MRCI
   Miquel Garcia          : C-PCM and meta-GGA Hessian, CC/C-PCM, Gaussian charge scheme
   Yang Guo               : DLPNO-NEVPT2, F12-NEVPT2, CIM, IAO-localization
   Andreas Hansen         : Spin unrestricted coupled pair/coupled cluster methods
   Benjamin Helmich-Paris : MC-RPA, TRAH-SCF, COSX integrals
   Lee Huntington         : MR-EOM, pCC
   Robert Izsak           : Overlap fitted RIJCOSX, COSX-SCS-MP3, EOM
   Marcus Kettner         : VPT2
   Christian Kollmar      : KDIIS, OOCD, Brueckner-CCSD(T), CCSD density, CASPT2, CASPT2-K
   Simone Kossmann        : Meta GGA functionals, TD-DFT gradient, OOMP2, MP2 Hessian
   Martin Krupicka        : Initial AUTO-CI
   Lucas Lang             : DCDCAS
   Marvin Lechner         : AUTO-CI (C++ implementation), FIC-MRCC
   Dagmar Lenk            : GEPOL surface, SMD
   Dimitrios Liakos       : Extrapolation schemes; Compound Job, initial MDCI parallelization
   Dimitrios Manganas     : Further ROCIS development; embedding schemes
   Dimitrios Pantazis     : SARC Basis sets
   Anastasios Papadopoulos: AUTO-CI, single reference methods and gradients
   Taras Petrenko         : DFT Hessian,TD-DFT gradient, ASA, ECA, R-Raman, ABS, FL, XAS/XES, NRVS
   Peter Pinski           : DLPNO-MP2, DLPNO-MP2 Gradient
   Christoph Reimann      : Effective Core Potentials
   Marius Retegan         : Local ZFS, SOC
   Christoph Riplinger    : Optimizer, TS searches, QM/MM, DLPNO-CCSD(T), (RO)-DLPNO pert. Triples
   Tobias Risthaus        : Range-separated hybrids, TD-DFT gradient, RPA, STAB
   Michael Roemelt        : Original ROCIS implementation
   Masaaki Saitow         : Open-shell DLPNO-CCSD energy and density
   Barbara Sandhoefer     : DKH picture change effects
   Avijit Sen             : IP-ROCIS
   Kantharuban Sivalingam : CASSCF convergence, NEVPT2, FIC-MRCI
   Bernardo de Souza      : ESD, SOC TD-DFT
   Georgi Stoychev        : AutoAux, RI-MP2 NMR, DLPNO-MP2 response
   Willem Van den Heuvel  : Paramagnetic NMR
   Boris Wezisla          : Elementary symmetry handling
   Frank Wennmohs         : Technical directorship


 We gratefully acknowledge several colleagues who have allowed us to
 interface, adapt or use parts of their codes:
   Stefan Grimme, W. Hujo, H. Kruse, P. Pracht,  : VdW corrections, initial TS optimization,
                  C. Bannwarth, S. Ehlert          DFT functionals, gCP, sTDA/sTD-DF
   Ed Valeev, F. Pavosevic, A. Kumar             : LibInt (2-el integral package), F12 methods
   Garnet Chan, S. Sharma, J. Yang, R. Olivares  : DMRG
   Ulf Ekstrom                                   : XCFun DFT Library
   Mihaly Kallay                                 : mrcc  (arbitrary order and MRCC methods)
   Jiri Pittner, Ondrej Demel                    : Mk-CCSD
   Frank Weinhold                                : gennbo (NPA and NBO analysis)
   Christopher J. Cramer and Donald G. Truhlar   : smd solvation model
   Lars Goerigk                                  : TD-DFT with DH, B97 family of functionals
   V. Asgeirsson, H. Jonsson                     : NEB implementation
   FAccTs GmbH                                   : IRC, NEB, NEB-TS, DLPNO-Multilevel, CI-OPT
                                                   MM, QMMM, 2- and 3-layer-ONIOM, Crystal-QMMM,
                                                   LR-CPCM, SF, NACMEs, symmetry and pop. for TD-DFT,
                                                   nearIR, NL-DFT gradient (VV10), updates on ESD,
                                                   ML-optimized integration grids
   S Lehtola, MJT Oliveira, MAL Marques          : LibXC Library
   Liviu Ungur et al                             : ANISO software


 Your calculation uses the libint2 library for the computation of 2-el integrals
 For citations please refer to: http://libint.valeyev.net

 Your ORCA version has been built with support for libXC version: 5.1.0
 For citations please refer to: https://tddft.org/programs/libxc/

 This ORCA versions uses:
   CBLAS   interface :  Fast vector & matrix operations
   LAPACKE interface :  Fast linear algebra routines
   SCALAPACK package :  Parallel linear algebra routines
   Shared memory     :  Shared parallel matrices
   BLAS/LAPACK       :  OpenBLAS 0.3.15  USE64BITINT DYNAMIC_ARCH NO_AFFINITY Sandybridge SINGLE_THREADED
        Core in use  :  Sandybridge
   Copyright (c) 2011-2014, The OpenBLAS Project


================================================================================

----- Orbital basis set information -----
Your calculation utilizes the basis: cc-pVDZ 
       H, B-Ne : Obtained from the ccRepo (grant-hill.group.shef.ac.uk/ccrepo) Feb. 2017
                 T. H. Dunning, Jr., J. Chem. Phys. 90, 1007 (1989)
            He : Obtained from the ccRepo (grant-hill.group.shef.ac.uk/ccrepo) Feb. 2017
                 D. E. Woon, T. H. Dunning, Jr., J. Chem. Phys. 100, 2975 (1994)
  Li-Be, Na-Mg : Obtained from the ccRepo (grant-hill.group.shef.ac.uk/ccrepo) Feb. 2017
                 B. P. Prascher, D. E. Woon, K. A. Peterson, T. H. Dunning, Jr., A. K. Wilson, Theor. Chem. Acc. 128, 69 (2011)
         Al-Ar : Obtained from the ccRepo (grant-hill.group.shef.ac.uk/ccrepo) Feb. 2017
                 D. E. Woon, T. H. Dunning, Jr., J. Chem. Phys. 98, 1358 (1993)
            Ca : Obtained from the Peterson Research Group Website (tyr0.chem.wsu.edu/~kipeters) Feb. 2017
                 J. Koput, K. A. Peterson, J. Phys. Chem. 106, 9595 (2002)
         Sc-Zn : Obtained from the ccRepo (grant-hill.group.shef.ac.uk/ccrepo) Feb. 2017
                 N. B. Balabanov, K. A. Peterson, J. Chem. Phys. 123, 064107 (2005)
                 N. B. Balabanov, K. A. Peterson, J. Chem. Phys. 125, 074110 (2006)
         Ga-Kr : Obtained from the ccRepo (grant-hill.group.shef.ac.uk/ccrepo) Feb. 2017
                 A. K. Wilson, D. E. Woon, K. A. Peterson, T. H. Dunning, Jr., J. Chem. Phys. 110, 7667 (1999)

================================================================================
                                        WARNINGS
                       Please study these warnings very carefully!
================================================================================


WARNING: No MP2 level density has been requested!
         To caclulate MP2 level properties use
         %mp2 Density relaxed end
         or
         %mp2 Density unrelaxed end

WARNING: Post HF methods need fully converged wavefunctions
  ===> : Setting SCFConvForced true
         You can overwrite this default with %scf ConvForced false 


INFO   : the flag for use of the SHARK integral package has been found!

================================================================================
                                       INPUT FILE
================================================================================
NAME = /scratch/allen/tmpyp4_amber_gaff2/2.Mdgx/conf11/conf11/Conf89.orca
|  1> ! PAL2
|  2> ! mp2 cc-pvdz TightSCF  NoKeepInts
|  3> 
|  4> %scf
|  5>   MaxCore 2000
|  6> end
|  7> %mp2
|  8>   MaxCore 2000
|  9> end
| 10> * xyz 0 1
| 11>    C       -3.93700         5.90100        -1.07600
| 12>    C        1.47400         4.04100         0.05700
| 13>    C       -2.80200         4.09300         0.04900
| 14>    C       -3.25400         4.63300         1.26300
| 15>    C       -4.02800         5.77600         1.26800
| 16>    C       -5.21900         7.59700         0.14700
| 17>    C        0.13200         4.30700         0.06100
| 18>    C       -0.56900         3.05600         0.04700
| 19>    C        1.64900         2.61800         0.02300
| 20>    C       -3.16600         4.75600        -1.13300
| 21>    N       -4.35600         6.39500         0.11000
| 22>    N        0.38800         2.06700         0.02500
| 23>    N       -2.01000         0.39500        -0.07500
| 24>    N       -0.38800        -2.07400        -0.02700
| 25>    N        2.01000        -0.40100         0.06500
| 26>    C       -1.96000         2.86100         0.02400
| 27>    C       -2.62300         1.61500        -0.01800
| 28>    C       -5.57300        -4.32900         1.06600
| 29>    C       -4.07300         1.47100         0.05600
| 30>    C       -4.10600        -2.75600        -0.02600
| 31>    C       -4.99500        -2.75700        -1.11100
| 32>    C       -6.13200        -3.54200        -1.07600
| 33>    C       -7.65100        -5.11300         0.04000
| 34>    C       -4.32400         0.14100         0.03700
| 35>    C       -3.02500        -0.52000        -0.04800
| 36>    C       -4.42200        -3.56600         1.07500
| 37>    N       -6.40700        -4.31300         0.00100
| 38>    C       -2.86700        -1.92200        -0.04000
| 39>    C       -1.65000        -2.62400        -0.02700
| 40>    C        3.56800        -6.14200        -1.04000
| 41>    C       -1.47600        -4.04900        -0.03400
| 42>    C        2.80300        -4.09900        -0.00800
| 43>    C        3.65700        -4.38400         1.06900
| 44>    C        4.42700        -5.53000         1.05900
| 45>    C        5.24500        -7.58800         0.01400
| 46>    C       -0.13400        -4.31500        -0.02200
| 47>    C        0.56800        -3.06400        -0.02700
| 48>    C        2.77500        -5.01200        -1.07400
| 49>    N        4.37600        -6.39100         0.01700
| 50>    C        1.95900        -2.86900        -0.00900
| 51>    C        2.62100        -1.62200         0.00900
| 52>    C        5.54300         4.33900        -1.13000
| 53>    C        4.07000        -1.47900        -0.09400
| 54>    C        4.10400         2.75100        -0.02100
| 55>    C        5.02700         2.72900         1.03600
| 56>    C        6.16600         3.50900         0.97800
| 57>    C        7.61900         5.15300        -0.11500
| 58>    C        4.32100        -0.14800        -0.09200
| 59>    C        3.02500         0.51400         0.01500
| 60>    C        4.38700         3.58200        -1.11500
| 61>    C        2.86600         1.91600         0.01300
| 62>    N        6.41300         4.29600        -0.09500
| 63>    H       -4.23100         6.45200        -1.96100
| 64>    H        2.27400         4.76600         0.08100
| 65>    H       -3.01500         4.16100         2.20800
| 66>    H       -4.40700         6.22400         2.17800
| 67>    H       -6.26500         7.28400         0.15500
| 68>    H       -4.99100         8.16500         1.04900
| 69>    H       -5.01500         8.20200        -0.73600
| 70>    H       -0.33200         5.28200         0.06900
| 71>    H       -2.83600         4.39700        -2.10100
| 72>    H        0.18200         1.07200         0.00500
| 73>    H       -0.18300        -1.08000        -0.02100
| 74>    H       -5.86400        -4.96200         1.89500
| 75>    H       -4.79400         2.27200         0.13900
| 76>    H       -4.80000        -2.16000        -1.99400
| 77>    H       -6.84100        -3.58200        -1.89300
| 78>    H       -8.42800        -4.53600         0.54600
| 79>    H       -7.95600        -5.33700        -0.98100
| 80>    H       -7.45600        -6.03700         0.58400
| 81>    H       -5.28700        -0.34400         0.10000
| 82>    H       -3.78000        -3.60100         1.94700
| 83>    H        3.58700        -6.86800        -1.84300
| 84>    H       -2.27600        -4.77400        -0.05000
| 85>    H        3.71400        -3.72400         1.92600
| 86>    H        5.09200        -5.79500         1.87100
| 87>    H        6.20500        -7.32900        -0.43900
| 88>    H        5.39300        -7.91700         1.04200
| 89>    H        4.75900        -8.37300        -0.56400
| 90>    H        0.32900        -5.29000        -0.00800
| 91>    H        2.14600        -4.84200        -1.94000
| 92>    H        5.80800         4.98600        -1.95600
| 93>    H        4.78800        -2.28100        -0.18500
| 94>    H        4.86000         2.11400         1.91200
| 95>    H        6.90100         3.53100         1.77200
| 96>    H        7.38300         6.10900         0.35600
| 97>    H        8.41400         4.65200         0.43500
| 98>    H        7.92100         5.31000        -1.15000
| 99>    H        5.28300         0.33600        -0.17900
|100>    H        3.72000         3.63200        -1.96700
|101> *
|102> 
|103>                          ****END OF INPUT****
================================================================================

                       ****************************
                       * Single Point Calculation *
                       ****************************

---------------------------------
CARTESIAN COORDINATES (ANGSTROEM)
---------------------------------
  C     -3.937000    5.901000   -1.076000
  C      1.474000    4.041000    0.057000
  C     -2.802000    4.093000    0.049000
  C     -3.254000    4.633000    1.263000
  C     -4.028000    5.776000    1.268000
  C     -5.219000    7.597000    0.147000
  C      0.132000    4.307000    0.061000
  C     -0.569000    3.056000    0.047000
  C      1.649000    2.618000    0.023000
  C     -3.166000    4.756000   -1.133000
  N     -4.356000    6.395000    0.110000
  N      0.388000    2.067000    0.025000
  N     -2.010000    0.395000   -0.075000
  N     -0.388000   -2.074000   -0.027000
  N      2.010000   -0.401000    0.065000
  C     -1.960000    2.861000    0.024000
  C     -2.623000    1.615000   -0.018000
  C     -5.573000   -4.329000    1.066000
  C     -4.073000    1.471000    0.056000
  C     -4.106000   -2.756000   -0.026000
  C     -4.995000   -2.757000   -1.111000
  C     -6.132000   -3.542000   -1.076000
  C     -7.651000   -5.113000    0.040000
  C     -4.324000    0.141000    0.037000
  C     -3.025000   -0.520000   -0.048000
  C     -4.422000   -3.566000    1.075000
  N     -6.407000   -4.313000    0.001000
  C     -2.867000   -1.922000   -0.040000
  C     -1.650000   -2.624000   -0.027000
  C      3.568000   -6.142000   -1.040000
  C     -1.476000   -4.049000   -0.034000
  C      2.803000   -4.099000   -0.008000
  C      3.657000   -4.384000    1.069000
  C      4.427000   -5.530000    1.059000
  C      5.245000   -7.588000    0.014000
  C     -0.134000   -4.315000   -0.022000
  C      0.568000   -3.064000   -0.027000
  C      2.775000   -5.012000   -1.074000
  N      4.376000   -6.391000    0.017000
  C      1.959000   -2.869000   -0.009000
  C      2.621000   -1.622000    0.009000
  C      5.543000    4.339000   -1.130000
  C      4.070000   -1.479000   -0.094000
  C      4.104000    2.751000   -0.021000
  C      5.027000    2.729000    1.036000
  C      6.166000    3.509000    0.978000
  C      7.619000    5.153000   -0.115000
  C      4.321000   -0.148000   -0.092000
  C      3.025000    0.514000    0.015000
  C      4.387000    3.582000   -1.115000
  C      2.866000    1.916000    0.013000
  N      6.413000    4.296000   -0.095000
  H     -4.231000    6.452000   -1.961000
  H      2.274000    4.766000    0.081000
  H     -3.015000    4.161000    2.208000
  H     -4.407000    6.224000    2.178000
  H     -6.265000    7.284000    0.155000
  H     -4.991000    8.165000    1.049000
  H     -5.015000    8.202000   -0.736000
  H     -0.332000    5.282000    0.069000
  H     -2.836000    4.397000   -2.101000
  H      0.182000    1.072000    0.005000
  H     -0.183000   -1.080000   -0.021000
  H     -5.864000   -4.962000    1.895000
  H     -4.794000    2.272000    0.139000
  H     -4.800000   -2.160000   -1.994000
  H     -6.841000   -3.582000   -1.893000
  H     -8.428000   -4.536000    0.546000
  H     -7.956000   -5.337000   -0.981000
  H     -7.456000   -6.037000    0.584000
  H     -5.287000   -0.344000    0.100000
  H     -3.780000   -3.601000    1.947000
  H      3.587000   -6.868000   -1.843000
  H     -2.276000   -4.774000   -0.050000
  H      3.714000   -3.724000    1.926000
  H      5.092000   -5.795000    1.871000
  H      6.205000   -7.329000   -0.439000
  H      5.393000   -7.917000    1.042000
  H      4.759000   -8.373000   -0.564000
  H      0.329000   -5.290000   -0.008000
  H      2.146000   -4.842000   -1.940000
  H      5.808000    4.986000   -1.956000
  H      4.788000   -2.281000   -0.185000
  H      4.860000    2.114000    1.912000
  H      6.901000    3.531000    1.772000
  H      7.383000    6.109000    0.356000
  H      8.414000    4.652000    0.435000
  H      7.921000    5.310000   -1.150000
  H      5.283000    0.336000   -0.179000
  H      3.720000    3.632000   -1.967000

----------------------------
CARTESIAN COORDINATES (A.U.)
----------------------------
  NO LB      ZA    FRAG     MASS         X           Y           Z
   0 C     6.0000    0    12.011   -7.439852   11.151274   -2.033345
   1 C     6.0000    0    12.011    2.785456    7.636383    0.107714
   2 C     6.0000    0    12.011   -5.295013    7.734649    0.092597
   3 C     6.0000    0    12.011   -6.149169    8.755101    2.386724
   4 C     6.0000    0    12.011   -7.611817   10.915058    2.396173
   5 C     6.0000    0    12.011   -9.862481   14.356249    0.277790
   6 C     6.0000    0    12.011    0.249444    8.139050    0.115273
   7 C     6.0000    0    12.011   -1.075254    5.775003    0.088817
   8 C     6.0000    0    12.011    3.116158    4.947303    0.043464
   9 C     6.0000    0    12.011   -5.982873    8.987537   -2.141060
  10 N     7.0000    0    14.007   -8.231647   12.084799    0.207870
  11 N     7.0000    0    14.007    0.733214    3.906064    0.047243
  12 N     7.0000    0    14.007   -3.798350    0.746442   -0.141729
  13 N     7.0000    0    14.007   -0.733214   -3.919292   -0.051023
  14 N     7.0000    0    14.007    3.798350   -0.757780    0.122832
  15 C     6.0000    0    12.011   -3.703863    5.406506    0.045353
  16 C     6.0000    0    12.011   -4.956752    3.051908   -0.034015
  17 C     6.0000    0    12.011  -10.531444   -8.180624    2.014448
  18 C     6.0000    0    12.011   -7.696855    2.779787    0.105825
  19 C     6.0000    0    12.011   -7.759216   -5.208085   -0.049133
  20 C     6.0000    0    12.011   -9.439182   -5.209975   -2.099486
  21 C     6.0000    0    12.011  -11.587801   -6.693410   -2.033345
  22 C     6.0000    0    12.011  -14.458295   -9.662170    0.075589
  23 C     6.0000    0    12.011   -8.171176    0.266451    0.069920
  24 C     6.0000    0    12.011   -5.716422   -0.982658   -0.090707
  25 C     6.0000    0    12.011   -8.356369   -6.738763    2.031456
  26 N     7.0000    0    14.007  -12.107475   -8.150389    0.001890
  27 C     6.0000    0    12.011   -5.417845   -3.632054   -0.075589
  28 C     6.0000    0    12.011   -3.118048   -4.958641   -0.051023
  29 C     6.0000    0    12.011    6.742543  -11.606698   -1.965315
  30 C     6.0000    0    12.011   -2.789236   -7.651501   -0.064251
  31 C     6.0000    0    12.011    5.296902   -7.745987   -0.015118
  32 C     6.0000    0    12.011    6.910728   -8.284559    2.020117
  33 C     6.0000    0    12.011    8.365818  -10.450186    2.001220
  34 C     6.0000    0    12.011    9.911614  -14.339242    0.026456
  35 C     6.0000    0    12.011   -0.253223   -8.154168   -0.041574
  36 C     6.0000    0    12.011    1.073364   -5.790121   -0.051023
  37 C     6.0000    0    12.011    5.243990   -9.471307   -2.029566
  38 N     7.0000    0    14.007    8.269442  -12.077240    0.032125
  39 C     6.0000    0    12.011    3.701973   -5.421624   -0.017008
  40 C     6.0000    0    12.011    4.952972   -3.065136    0.017008
  41 C     6.0000    0    12.011   10.474752    8.199522   -2.135391
  42 C     6.0000    0    12.011    7.691185   -2.794905   -0.177634
  43 C     6.0000    0    12.011    7.755436    5.198637   -0.039684
  44 C     6.0000    0    12.011    9.499653    5.157063    1.957756
  45 C     6.0000    0    12.011   11.652051    6.631049    1.848152
  46 C     6.0000    0    12.011   14.397823    9.737759   -0.217319
  47 C     6.0000    0    12.011    8.165507   -0.279679   -0.173855
  48 C     6.0000    0    12.011    5.716422    0.971319    0.028346
  49 C     6.0000    0    12.011    8.290229    6.768999   -2.107045
  50 C     6.0000    0    12.011    5.415955    3.620715    0.024566
  51 N     7.0000    0    14.007   12.118814    8.118263   -0.179524
  52 H     1.0000    0     1.008   -7.995431   12.192513   -3.705753
  53 H     1.0000    0     1.008    4.297237    9.006435    0.153068
  54 H     1.0000    0     1.008   -5.697524    7.863150    4.172515
  55 H     1.0000    0     1.008   -8.328023   11.761655    4.115824
  56 H     1.0000    0     1.008  -11.839134   13.764765    0.292908
  57 H     1.0000    0     1.008   -9.431623   15.429614    1.982323
  58 H     1.0000    0     1.008   -9.476977   15.499534   -1.390838
  59 H     1.0000    0     1.008   -0.627389    9.981533    0.130391
  60 H     1.0000    0     1.008   -5.359263    8.309126   -3.970315
  61 H     1.0000    0     1.008    0.343930    2.025786    0.009449
  62 H     1.0000    0     1.008   -0.345820   -2.040904   -0.039684
  63 H     1.0000    0     1.008  -11.081354   -9.376821    3.581031
  64 H     1.0000    0     1.008   -9.059347    4.293458    0.262672
  65 H     1.0000    0     1.008   -9.070685   -4.081808   -3.768114
  66 H     1.0000    0     1.008  -12.927616   -6.768999   -3.577252
  67 H     1.0000    0     1.008  -15.926612   -8.571798    1.031790
  68 H     1.0000    0     1.008  -15.034661  -10.085468   -1.853821
  69 H     1.0000    0     1.008  -14.089798  -11.408277    1.103600
  70 H     1.0000    0     1.008   -9.990982   -0.650066    0.188973
  71 H     1.0000    0     1.008   -7.143165   -6.804904    3.679297
  72 H     1.0000    0     1.008    6.778448  -12.978639   -3.482765
  73 H     1.0000    0     1.008   -4.301017   -9.021553   -0.094486
  74 H     1.0000    0     1.008    7.018443   -7.037340    3.639613
  75 H     1.0000    0     1.008    9.622485  -10.950963    3.535678
  76 H     1.0000    0     1.008   11.725751  -13.849803   -0.829590
  77 H     1.0000    0     1.008   10.191293  -14.960962    1.969095
  78 H     1.0000    0     1.008    8.993207  -15.822677   -1.065806
  79 H     1.0000    0     1.008    0.621720   -9.996651   -0.015118
  80 H     1.0000    0     1.008    4.055352   -9.150054   -3.666069
  81 H     1.0000    0     1.008   10.975529    9.422175   -3.696304
  82 H     1.0000    0     1.008    9.048009   -4.310465   -0.349599
  83 H     1.0000    0     1.008    9.184069    3.994881    3.613156
  84 H     1.0000    0     1.008   13.041000    6.672623    3.348595
  85 H     1.0000    0     1.008   13.951848   11.544337    0.672743
  86 H     1.0000    0     1.008   15.900156    8.791006    0.822031
  87 H     1.0000    0     1.008   14.968521   10.034446   -2.173185
  88 H     1.0000    0     1.008    9.983423    0.634948   -0.338261
  89 H     1.0000    0     1.008    7.029781    6.863485   -3.717091

--------------------------------
INTERNAL COORDINATES (ANGSTROEM)
--------------------------------
 C      0   0   0     0.000000000000     0.00000000     0.00000000
 C      1   0   0     5.832856075715     0.00000000     0.00000000
 C      1   2   0     2.413030045399    40.01884315     0.00000000
 C      3   1   2     1.403460010118    87.90858779   110.54237669
 C      4   3   1     1.380416603783   120.15236324     0.16880332
 C      5   4   3     2.447685233031   152.52120922     1.60739997
 C      2   1   3     1.368114030335    13.73584365   334.86638247
 C      7   2   3     1.434084376876   108.05010202     0.84668783
 C      2   1   3     1.434123425651   115.15098801    37.08990846
 C      1   2   3     1.381562521206    39.28828781   311.81745871
 N      1   2   3     1.351367085584   103.51657864    74.37246393
 N      9   2   1     1.376127174356   106.58526707   346.45940539
 N     12   9   2     2.925062050624   168.53581413   171.12065651
 N     13  12   9     2.954513327098    91.55032014    11.12112580
 N     14  13  12     2.925371258490    88.43092389   359.84326247
 C      8   7   2     1.404790019896   127.24786865   181.11170171
 C     13  12   9     1.366535034311    81.72106996   188.00453233
 C     14  13  12     5.758810554272    80.56209567   166.76250791
 C     17  13  12     1.459010623676   111.08861209   183.82872609
 C     18  14  13     2.412235892279    27.27532823    36.33507194
 C     20  18  14     1.402692767501    87.95206320   148.94598259
 C     21  20  18     1.382106725257   120.14573887   359.70382047
 C     18  14  13     2.446510985056   144.15733107    82.80075377
 C     19  17  13     1.353610726908   106.29293361   359.75308708
 C     13  12   9     1.366813447402   172.21332906    33.46711076
 C     18  14  13     1.380960173213    15.08449437   309.23336894
 N     22  21  20     1.352773077792   120.73759875     0.27865223
 C     25  13  17     1.410897586645   125.60330303   182.37774668
 C     14  13  12     1.376642291955    80.24689249   177.85461986
 C     14  13  12     5.764089607215   164.51507311   312.20821879
 C     29  14  13     1.435600919476   106.58649366   178.76395472
 C     30  14  13     2.413316804732    27.10625047    82.12560436
 C     32  30  14     1.403734305344    87.90059683   149.76154742
 C     33  32  30     1.380694028378   120.14881443   359.74174632
 C     34  33  32     2.448777858443   152.49203239     2.45173620
 C     31  29  14     1.368160809262   108.16950133     0.70383075
 C     14  13  12     1.376239804685   169.26375223   353.09862627
 C     30  14  13     1.380907310430    14.68948582   353.70041132
 N     34  33  32     1.352658863128   120.85575621     0.19603406
 C     37  14  29     1.404717053360   126.01551127   180.90772073
 C     15  14  13     1.366491126938    81.61824056   183.09049352
 C      2   1   3     4.249062720177   144.26590726   160.50159232
 C     41  15  14     1.459677704153   111.05201287   175.08990246
 C     42   2   1     2.412953791518    41.78584867   205.52937418
 C     44  42   2     1.403446472082    87.95153797   233.97558675
 C     45  44  42     1.381696421071   120.11137308     0.19721020
 C     42   2   1     2.450019795838   135.97209175   115.84422328
 C     43  41  15     1.354461516618   106.26758155     0.30894352
 C     15  14  13     1.367461151185   171.87382904   332.35056460
 C     42   2   1     1.381886391857    32.59078432   254.38465337
 C      9   2   1     1.404988612053   126.98745415   167.46374292
 N     42   2   1     1.352765315936   113.57249190   143.58081247
 H      1   2   3     1.083172193144   124.93968897   211.14986473
 H      2   1   3     1.079907866440   118.51960732   205.52370774
 H      4   3   1     1.083018928736   121.06500376   179.49775723
 H      5   4   3     1.082794994447   122.81205381   179.43105020
 H      6   5   4     1.091855759705   104.44906590   100.11135335
 H      6   5   4     1.090051374936    84.65885415   209.52445778
 H      6   5   4     1.089646731744   133.87625851   322.27596407
 H      7   2  54     1.079807853278   126.66122480     1.30600390
 H     10   1   2     1.083884218909   118.76756885   253.47339788
 H     12   9   2     1.016297692608   125.29023241   180.00180175
 H     14  13  12     1.014936943854    44.97226959   359.42596618
 H     18  14  13     1.082871645210   128.03556573   234.20482432
 H     19  17  13     1.080893611786   126.41830519   178.11313280
 H     21  20  18     1.083569563987   121.05669627   180.67006309
 H     22  21  20     1.082483256222   122.73097286   180.59748951
 H     23  18  14     1.092105306278   103.92715769   234.93429879
 H     23  18  14     1.088871893291   134.19244188    12.25587044
 H     23  18  14     1.089833473518    84.85857450   125.45241208
 H     24  19  17     1.080075460327   127.28078426   178.44613241
 H     26  18  14     1.083408048706   118.76995697   244.94906660
 H     30  14  13     1.082703098730   127.99711412   279.66882698
 H     31  29  14     1.079759695488   125.22293469   180.92530585
 H     33  32  30     1.083188810873   121.01964473   180.74284758
 H     34  33  32     1.082494341787   122.70821597   180.59516895
 H     35  34  33     1.092652735319   105.73575241    97.19771933
 H     35  34  33     1.089462711615    84.05943581   206.43036958
 H     35  34  33     1.089268102902   133.08365142   318.50306270
 H     36  31  29     1.079439669458   126.61599965   178.98859863
 H     38  30  73     1.083742127999   118.77264435   359.90091293
 H     42   2   1     1.082178358682   119.31790784     0.21234293
 H     43  41  15     1.080281907652   126.36969097   182.06329380
 H     45  44  42     1.083277434455   121.10105945   179.58025624
 H     46  45  44     1.082194529648   122.72144639   179.46906377
 H     47  42   2     1.091546151109   106.65128841   315.16475048
 H     47  42   2     1.088818625851   132.46019523    94.52397119
 H     47  42   2     1.089531091801    83.63838232   206.04504406
 H     48  43  41     1.080402239909   127.23657387   181.62955349
 H     50  42   2     1.083186502870   118.77001737    94.71359229

---------------------------
INTERNAL COORDINATES (A.U.)
---------------------------
 C      0   0   0     0.000000000000     0.00000000     0.00000000
 C      1   0   0    11.022500561679     0.00000000     0.00000000
 C      1   2   0     4.559965938728    40.01884315     0.00000000
 C      3   1   2     2.652155059033    87.90858779   110.54237669
 C      4   3   1     2.608609331868   120.15236324     0.16880332
 C      5   4   3     4.625454752473   152.52120922     1.60739997
 C      2   1   3     2.585360837309    13.73584365   334.86638247
 C      7   2   3     2.710026725231   108.05010202     0.84668783
 C      2   1   3     2.710100516721   115.15098801    37.08990846
 C      1   2   3     2.610774801968    39.28828781   311.81745871
 N      1   2   3     2.553713698149   103.51657864    74.37246393
 N      9   2   1     2.600503484979   106.58526707   346.45940539
 N     12   9   2     5.527566200405   168.53581413   171.12065651
 N     13  12   9     5.583221047236    91.55032014    11.12112580
 N     14  13  12     5.528150518591    88.43092389   359.84326247
 C      8   7   2     2.654668413270   127.24786865   181.11170171
 C     13  12   9     2.582376967257    81.72106996   188.00453233
 C     14  13  12    10.882574804710    80.56209567   166.76250791
 C     17  13  12     2.757130505230   111.08861209   183.82872609
 C     18  14  13     4.558465206823    27.27532823    36.33507194
 C     20  18  14     2.650705180609    87.95206320   148.94598259
 C     21  20  18     2.611803198586   120.14573887   359.70382047
 C     18  14  13     4.623235745386   144.15733107    82.80075377
 C     19  17  13     2.557953565794   106.29293361   359.75308708
 C     13  12   9     2.582903091751   172.21332906    33.46711076
 C     18  14  13     2.609636529225    15.08449437   309.23336894
 N     22  21  20     2.556370638369   120.73759875     0.27865223
 C     25  13  17     2.666210041769   125.60330303   182.37774668
 C     14  13  12     2.601476916169    80.24689249   177.85461986
 C     14  13  12    10.892550769017   164.51507311   312.20821879
 C     29  14  13     2.712892575415   106.58649366   178.76395472
 C     30  14  13     4.560507835333    27.10625047    82.12560436
 C     32  30  14     2.652673401891    87.90059683   149.76154742
 C     33  32  30     2.609133588376   120.14881443   359.74174632
 C     34  33  32     4.627519515267   152.49203239     2.45173620
 C     31  29  14     2.585449236669   108.16950133     0.70383075
 C     14  13  12     2.600716325456   169.26375223   353.09862627
 C     30  14  13     2.609536633043    14.68948582   353.70041132
 N     34  33  32     2.556154803934   120.85575621     0.19603406
 C     37  14  29     2.654530526499   126.01551127   180.90772073
 C     15  14  13     2.582293994346    81.61824056   183.09049352
 C      2   1   3     8.029564866989   144.26590726   160.50159232
 C     41  15  14     2.758391104639   111.05201287   175.08990246
 C     42   2   1     4.559821839776    41.78584867   205.52937418
 C     44  42   2     2.652129475853    87.95153797   233.97558675
 C     45  44  42     2.611027836043   120.11137308     0.19721020
 C     42   2   1     4.629866436820   135.97209175   115.84422328
 C     43  41  15     2.559561325344   106.26758155     0.30894352
 C     15  14  13     2.584127074516   171.87382904   332.35056460
 C     42   2   1     2.611386828803    32.59078432   254.38465337
 C      9   2   1     2.655043698059   126.98745415   167.46374292
 N     42   2   1     2.556355970587   113.57249190   143.58081247
 H      1   2   3     2.046898800921   124.93968897   211.14986473
 H      2   1   3     2.040730117440   118.51960732   205.52370774
 H      4   3   1     2.046609173163   121.06500376   179.49775723
 H      5   4   3     2.046185998686   122.81205381   179.43105020
 H      6   5   4     2.063308363586   104.44906590   100.11135335
 H      6   5   4     2.059898570533    84.65885415   209.52445778
 H      6   5   4     2.059133905718   133.87625851   322.27596407
 H      7   2  54     2.040541119952   126.66122480     1.30600390
 H     10   1   2     2.048244334617   118.76756885   253.47339788
 H     12   9   2     1.920524309565   125.29023241   180.00180175
 H     14  13  12     1.917952867083    44.97226959   359.42596618
 H     18  14  13     2.046330847636   128.03556573   234.20482432
 H     19  17  13     2.042592906181   126.41830519   178.11313280
 H     21  20  18     2.047649722989   121.05669627   180.67006309
 H     22  21  20     2.045596898814   122.73097286   180.59748951
 H     23  18  14     2.063779938267   103.92715769   234.93429879
 H     23  18  14     2.057669673245   134.19244188    12.25587044
 H     23  18  14     2.059486796529    84.85857450   125.45241208
 H     24  19  17     2.041046823986   127.28078426   178.44613241
 H     26  18  14     2.047344503340   118.76995697   244.94906660
 H     30  14  13     2.046012340948   127.99711412   279.66882698
 H     31  29  14     2.040450114918   125.22293469   180.92530585
 H     33  32  30     2.046930203877   121.01964473   180.74284758
 H     34  33  32     2.045617847496   122.70821597   180.59516895
 H     35  34  33     2.064814429233   105.73575241    97.19771933
 H     35  34  33     2.058786158072    84.05943581   206.43036958
 H     35  34  33     2.058418400901   133.08365142   318.50306270
 H     36  31  29     2.039845353366   126.61599965   178.98859863
 H     38  30  73     2.047975821711   118.77264435   359.90091293
 H     42   2   1     2.045020725966   119.31790784     0.21234293
 H     43  41  15     2.041436952892   126.36969097   182.06329380
 H     45  44  42     2.047097678177   121.10105945   179.58025624
 H     46  45  44     2.045051284662   122.72144639   179.46906377
 H     47  42   2     2.062723288131   106.65128841   315.16475048
 H     47  42   2     2.057569012371   132.46019523    94.52397119
 H     47  42   2     2.058915377895    83.63838232   206.04504406
 H     48  43  41     2.041664347903   127.23657387   181.62955349
 H     50  42   2     2.046925842384   118.77001737    94.71359229

---------------------
BASIS SET INFORMATION
---------------------
There are 3 groups of distinct atoms

 Group   1 Type C   : 17s4p1d contracted to 3s2p1d pattern {881/31/1}
 Group   2 Type N   : 17s4p1d contracted to 3s2p1d pattern {881/31/1}
 Group   3 Type H   : 4s1p contracted to 2s1p pattern {31/1}

Atom   0C    basis set group =>   1
Atom   1N    basis set group =>   2
Atom   2C    basis set group =>   1
Atom   3N    basis set group =>   2
Atom   4C    basis set group =>   1
Atom   5N    basis set group =>   2
Atom   6C    basis set group =>   1
Atom   7N    basis set group =>   2
Atom   8C    basis set group =>   1
Atom   9N    basis set group =>   2
Atom  10C    basis set group =>   1
Atom  11N    basis set group =>   2
Atom  12C    basis set group =>   1
Atom  13N    basis set group =>   2
Atom  14C    basis set group =>   1
Atom  15N    basis set group =>   2
Atom  16C    basis set group =>   1
Atom  17C    basis set group =>   1
Atom  18C    basis set group =>   1
Atom  19C    basis set group =>   1
Atom  20C    basis set group =>   1
Atom  21C    basis set group =>   1
Atom  22C    basis set group =>   1
Atom  23C    basis set group =>   1
Atom  24C    basis set group =>   1
Atom  25C    basis set group =>   1
Atom  26C    basis set group =>   1
Atom  27C    basis set group =>   1
Atom  28C    basis set group =>   1
Atom  29C    basis set group =>   1
Atom  30C    basis set group =>   1
Atom  31C    basis set group =>   1
Atom  32C    basis set group =>   1
Atom  33C    basis set group =>   1
Atom  34C    basis set group =>   1
Atom  35C    basis set group =>   1
Atom  36C    basis set group =>   1
Atom  37C    basis set group =>   1
Atom  38C    basis set group =>   1
Atom  39C    basis set group =>   1
Atom  40C    basis set group =>   1
Atom  41C    basis set group =>   1
Atom  42C    basis set group =>   1
Atom  43C    basis set group =>   1
Atom  44C    basis set group =>   1
Atom  45C    basis set group =>   1
Atom  46C    basis set group =>   1
Atom  47C    basis set group =>   1
Atom  48C    basis set group =>   1
Atom  49C    basis set group =>   1
Atom  50C    basis set group =>   1
Atom  51C    basis set group =>   1
Atom  52H    basis set group =>   3
Atom  53H    basis set group =>   3
Atom  54H    basis set group =>   3
Atom  55H    basis set group =>   3
Atom  56H    basis set group =>   3
Atom  57H    basis set group =>   3
Atom  58H    basis set group =>   3
Atom  59H    basis set group =>   3
Atom  60H    basis set group =>   3
Atom  61H    basis set group =>   3
Atom  62H    basis set group =>   3
Atom  63H    basis set group =>   3
Atom  64H    basis set group =>   3
Atom  65H    basis set group =>   3
Atom  66H    basis set group =>   3
Atom  67H    basis set group =>   3
Atom  68H    basis set group =>   3
Atom  69H    basis set group =>   3
Atom  70H    basis set group =>   3
Atom  71H    basis set group =>   3
Atom  72H    basis set group =>   3
Atom  73H    basis set group =>   3
Atom  74H    basis set group =>   3
Atom  75H    basis set group =>   3
Atom  76H    basis set group =>   3
Atom  77H    basis set group =>   3
Atom  78H    basis set group =>   3
Atom  79H    basis set group =>   3
Atom  80H    basis set group =>   3
Atom  81H    basis set group =>   3
Atom  82H    basis set group =>   3
Atom  83H    basis set group =>   3
Atom  84H    basis set group =>   3
Atom  85H    basis set group =>   3
Atom  86H    basis set group =>   3
Atom  87H    basis set group =>   3
Atom  88H    basis set group =>   3
Atom  89H    basis set group =>   3


           ************************************************************
           *        Program running with 16 parallel MPI-processes    *
           *              working on a common directory               *
           ************************************************************
------------------------------------------------------------------------------
                           ORCA GTO INTEGRAL CALCULATION
------------------------------------------------------------------------------
------------------------------------------------------------------------------
                   ___                                                        
                  /   \      - P O W E R E D   B Y -                         
                 /     \                                                     
                 |  |  |   _    _      __       _____    __    __             
                 |  |  |  | |  | |    /  \     |  _  \  |  |  /  |          
                  \  \/   | |  | |   /    \    | | | |  |  | /  /          
                 / \  \   | |__| |  /  /\  \   | |_| |  |  |/  /          
                |  |  |   |  __  | /  /__\  \  |    /   |      \           
                |  |  |   | |  | | |   __   |  |    \   |  |\   \          
                \     /   | |  | | |  |  |  |  | |\  \  |  | \   \       
                 \___/    |_|  |_| |__|  |__|  |_| \__\ |__|  \__/        
                                                                              
                      - O R C A' S   B I G   F R I E N D -                    
                                      &                                       
                       - I N T E G R A L  F E E D E R -                       
                                                                              
 v1 FN, 2020, v2 2021                                                         
------------------------------------------------------------------------------


Reading SHARK input file /scratch/allen/tmpyp4_amber_gaff2/conf1/conf1/Conf89.orca.SHARKINP.tmp ... ok
----------------------
SHARK INTEGRAL PACKAGE
----------------------

Number of atoms                             ...     90
Number of basis functions                   ...   1230
Number of shells                            ...    738
Maximum angular momentum                    ...      2
Integral batch strategy                     ... SHARK/LIBINT Hybrid
RI-J (if used) integral strategy            ... SPLIT-RIJ (Revised 2003 algorithm where possible)
Printlevel                                  ...      1
Contraction scheme used                     ... PARTIAL GENERAL contraction
Coulomb Range Separation                    ... NOT USED
Exchange Range Separation                   ... NOT USED
Finite Nucleus Model                        ... NOT USED
Auxiliary Coulomb fitting basis             ... NOT available
Auxiliary J/K fitting basis                 ... NOT available
Auxiliary Correlation fitting basis         ... NOT available
Auxiliary 'external' fitting basis          ... NOT available
Integral threshold                          ...     2.500000e-11
Primitive cut-off                           ...     2.500000e-12
Primitive pair pre-selection threshold      ...     2.500000e-12

Calculating pre-screening integrals         ... done (  0.1 sec) Dimension = 738
Calculating pre-screening integrals (ORCA)  ... done (  0.3 sec) Dimension = 426
Organizing shell pair data                  ... done (  0.5 sec)
Shell pair information
Total number of shell pairs                 ...    272691
Shell pairs after pre-screening             ...     71616
Total number of primitive shell pairs       ...    422091
Primitive shell pairs kept                  ...     92361
          la=0 lb=0:  29421 shell pairs
          la=1 lb=0:  25967 shell pairs
          la=1 lb=1:   4688 shell pairs
          la=2 lb=0:   7896 shell pairs
          la=2 lb=1:   3114 shell pairs
          la=2 lb=2:    530 shell pairs

Calculating one electron integrals          ... done (  0.2 sec)
Calculating Nuclear repulsion               ... done (  0.0 sec) ENN=   6221.920719520268 Eh

SHARK setup successfully completed in   1.8 seconds

Maximum memory used throughout the entire GTOINT-calculation: 98.9 MB


           ************************************************************
           *        Program running with 16 parallel MPI-processes    *
           *              working on a common directory               *
           ************************************************************
-------------------------------------------------------------------------------
                                 ORCA SCF
-------------------------------------------------------------------------------

------------
SCF SETTINGS
------------
Hamiltonian:
 Ab initio Hamiltonian  Method          .... Hartree-Fock(GTOs)


General Settings:
 Integral files         IntName         .... /scratch/allen/tmpyp4_amber_gaff2/conf1/conf1/Conf89.orca
 Hartree-Fock type      HFTyp           .... RHF
 Total Charge           Charge          ....    0
 Multiplicity           Mult            ....    1
 Number of Electrons    NEL             ....  358
 Basis Dimension        Dim             ....  918
 Nuclear Repulsion      ENuc            ....   6221.9207195203 Eh

Convergence Acceleration:
 DIIS                   CNVDIIS         .... on
   Start iteration      DIISMaxIt       ....    12
   Startup error        DIISStart       ....  0.200000
   # of expansion vecs  DIISMaxEq       ....     5
   Bias factor          DIISBfac        ....   1.050
   Max. coefficient     DIISMaxC        ....  10.000
 Trust-Rad. Augm. Hess. CNVTRAH         .... auto
   Auto Start mean grad. ratio tolernc. ....  1.125000
   Auto Start start iteration           ....    20
   Auto Start num. interpolation iter.  ....    10
   Max. Number of Micro iterations      ....    16
   Max. Number of Macro iterations      .... Maxiter - #DIIS iter
   Number of Davidson start vectors     ....     2
   Converg. threshold I  (grad. norm)   ....   1.000e-05
   Converg. threshold II (energy diff.) ....   1.000e-08
   Grad. Scal. Fac. for Micro threshold ....   0.100
   Minimum threshold for Micro iter.    ....   0.010
   NR start threshold (gradient norm)   ....   0.001
   Initial trust radius                 ....   0.400
   Minimum AH scaling param. (alpha)    ....   1.000
   Maximum AH scaling param. (alpha)    .... 1000.000
   Orbital update algorithm             .... Taylor
   White noise on init. David. guess    .... on
   Maximum white noise                  ....   0.010
   Quad. conv. algorithm                .... NR
 SOSCF                  CNVSOSCF        .... on
   Start iteration      SOSCFMaxIt      ....   150
   Startup grad/error   SOSCFStart      ....  0.003300
 Level Shifting         CNVShift        .... on
   Level shift para.    LevelShift      ....    0.2500
   Turn off err/grad.   ShiftErr        ....    0.0010
 Zerner damping         CNVZerner       .... off
 Static damping         CNVDamp         .... on
   Fraction old density DampFac         ....    0.7000
   Max. Damping (<1)    DampMax         ....    0.9800
   Min. Damping (>=0)   DampMin         ....    0.0000
   Turn off err/grad.   DampErr         ....    0.1000
 Fernandez-Rico         CNVRico         .... off

SCF Procedure:
 Maximum # iterations   MaxIter         ....   125
 SCF integral mode      SCFMode         .... Direct
   Integral package                     .... SHARK and LIBINT hybrid scheme
 Reset frequency        DirectResetFreq ....    20
 Integral Threshold     Thresh          ....  2.500e-11 Eh
 Primitive CutOff       TCut            ....  2.500e-12 Eh

Convergence Tolerance:
 Convergence Check Mode ConvCheckMode   .... Total+1el-Energy
 Convergence forced     ConvForced      .... 1
 Energy Change          TolE            ....  1.000e-08 Eh
 1-El. energy change                    ....  1.000e-05 Eh
 Orbital Gradient       TolG            ....  1.000e-05
 Orbital Rotation angle TolX            ....  1.000e-05
 DIIS Error             TolErr          ....  5.000e-07


Diagonalization of the overlap matrix:
Smallest eigenvalue                        ... 2.264e-04
Time for diagonalization                   ...    0.364 sec
Threshold for overlap eigenvalues          ... 1.000e-08
Number of eigenvalues below threshold      ... 0
Time for construction of square roots      ...    0.197 sec
Total time needed                          ...    0.567 sec

Time for model grid setup =    1.010 sec

------------------------------
INITIAL GUESS: MODEL POTENTIAL
------------------------------
Loading Hartree-Fock densities                     ... done
Calculating cut-offs                               ... done
Initializing the effective Hamiltonian             ... done
Setting up the integral package (SHARK)            ... done
Starting the Coulomb interaction                   ... done (   1.1 sec)
Reading the grid                                   ... done
Mapping shells                                     ... done
Starting the XC term evaluation                    ... done (   0.2 sec)
Transforming the Hamiltonian                       ... done (   0.2 sec)
Diagonalizing the Hamiltonian                      ... done (   0.3 sec)
Back transforming the eigenvectors                 ... done (   0.1 sec)
Now organizing SCF variables                       ... done
                      ------------------
                      INITIAL GUESS DONE (   2.9 sec)
                      ------------------
--------------
SCF ITERATIONS
--------------
ITER       Energy         Delta-E        Max-DP      RMS-DP      [F,P]     Damp
               ***  Starting incremental Fock matrix formation  ***
  0  -2121.6407748170   0.000000000000 0.06934381  0.00121210  0.2351477 0.7000
  1  -2122.3097728542  -0.668998037223 0.05272030  0.00098207  0.1454712 0.7000
                               ***Turning on DIIS***
  2  -2122.7259622926  -0.416189438436 0.11745023  0.00221928  0.0807651 0.0000
  3  -2117.7739958020   4.951966490562 0.03426568  0.00068537  0.0442517 0.0000
  4  -2123.4150626462  -5.641066844200 0.00936307  0.00023061  0.0074118 0.0000
  5  -2123.5810589034  -0.165996257179 0.00558610  0.00013899  0.0051681 0.0000
  6  -2123.5594090262   0.021649877244 0.00474317  0.00009555  0.0024951 0.0000
  7  -2123.6636280272  -0.104219001061 0.00426581  0.00008099  0.0019704 0.0000
  8  -2123.6918050504  -0.028177023132 0.00416696  0.00008290  0.0018573 0.0000
  9  -2123.6503741497   0.041430900703 0.00302301  0.00006136  0.0015063 0.0000
 10  -2123.6737429427  -0.023368793049 0.00307150  0.00006023  0.0011521 0.0000
 11  -2123.6698736220   0.003869320757 0.00919760  0.00014215  0.0009905 0.0000
                      *** Initiating the SOSCF procedure ***
                           *** Shutting down DIIS ***
                      *** Re-Reading the Fockian *** 
                      *** Removing any level shift *** 
ITER      Energy       Delta-E        Grad      Rot      Max-DP    RMS-DP
 12  -2123.50976502   0.1601085974  0.000395  0.000395  0.000449  0.000010
               *** Restarting incremental Fock matrix formation ***
 13  -2123.60872924  -0.0989642165  0.001465  0.014565  0.002483  0.000059
 14  -2123.60902707  -0.0002978316  0.002024  0.079990  0.015932  0.000264
 15  -2123.60981422  -0.0007871440  0.000888  0.036482  0.008879  0.000120
 16  -2123.60999014  -0.0001759184  0.000778  0.011236  0.003795  0.000038
 17  -2123.61005144  -0.0000613044  0.000392  0.003585  0.001379  0.000027
 18  -2123.61008105  -0.0000296149  0.000239  0.002312  0.001055  0.000016
 19  -2123.61009096  -0.0000099085  0.000102  0.001837  0.000668  0.000011
 20  -2123.61009504  -0.0000040726  0.000097  0.000813  0.000237  0.000004
 21  -2123.61009630  -0.0000012674  0.000049  0.000572  0.000189  0.000004
 22  -2123.61009677  -0.0000004689  0.000040  0.000556  0.000097  0.000002
 23  -2123.61009699  -0.0000002220  0.000021  0.000385  0.000092  0.000002
 24  -2123.61009712  -0.0000001284  0.000014  0.000435  0.000091  0.000002
 25  -2123.61009718  -0.0000000627  0.000010  0.000230  0.000053  0.000001
 26  -2123.61009721  -0.0000000286  0.000007  0.000114  0.000026  0.000001
 27  -2123.61009723  -0.0000000151  0.000003  0.000053  0.000012  0.000000
 28  -2123.61009723  -0.0000000025  0.000003  0.000049  0.000010  0.000000
                  ***Gradient check signals convergence***
              ***Rediagonalizing the Fockian in SOSCF/NRSCF***

               *****************************************************
               *                     SUCCESS                       *
               *           SCF CONVERGED AFTER  29 CYCLES          *
               *****************************************************


----------------
TOTAL SCF ENERGY
----------------

Total Energy       :        -2123.61009723 Eh          -57786.36855 eV

Components:
Nuclear Repulsion  :         6221.92071952 Eh          169307.07018 eV
Electronic Energy  :        -8345.53081675 Eh         -227093.43873 eV
One Electron Energy:       -15285.32828934 Eh         -415934.92848 eV
Two Electron Energy:         6939.79747259 Eh          188841.48974 eV

Virial components:
Potential Energy   :        -4245.59703541 Eh         -115528.56869 eV
Kinetic Energy     :         2121.98693818 Eh           57742.20014 eV
Virial Ratio       :            2.00076492


---------------
SCF CONVERGENCE
---------------

  Last Energy change         ...   -1.9645e-10  Tolerance :   1.0000e-08
  Last MAX-Density change    ...    1.5496e-05  Tolerance :   1.0000e-07
  Last RMS-Density change    ...    2.7395e-07  Tolerance :   5.0000e-09
  Last Orbital Gradient      ...    2.4601e-06  Tolerance :   1.0000e-05
  Last Orbital Rotation      ...    8.1135e-05  Tolerance :   1.0000e-05

             **** THE GBW FILE WAS UPDATED (/scratch/allen/tmpyp4_amber_gaff2/conf1/conf1/Conf89.orca.gbw) ****
             **** DENSITY /scratch/allen/tmpyp4_amber_gaff2/conf1/conf1/Conf89.orca.scfp WAS UPDATED ****
             **** ENERGY FILE WAS UPDATED (/scratch/allen/tmpyp4_amber_gaff2/conf1/conf1/Conf89.orca.en.tmp) ****
             **** THE GBW FILE WAS UPDATED (/scratch/allen/tmpyp4_amber_gaff2/conf1/conf1/Conf89.orca.gbw) ****
             **** DENSITY /scratch/allen/tmpyp4_amber_gaff2/conf1/conf1/Conf89.orca.scfp WAS UPDATED ****
----------------
ORBITAL ENERGIES
----------------

  NO   OCC          E(Eh)            E(eV) 
   0   2.0000     -15.721040      -427.7912 
   1   2.0000     -15.627983      -425.2590 
   2   2.0000     -15.618451      -424.9997 
   3   2.0000     -15.575815      -423.8395 
   4   2.0000     -15.520929      -422.3460 
   5   2.0000     -15.503933      -421.8835 
   6   2.0000     -15.451369      -420.4531 
   7   2.0000     -15.426668      -419.7810 
   8   2.0000     -11.358794      -309.0885 
   9   2.0000     -11.356781      -309.0337 
  10   2.0000     -11.350874      -308.8730 
  11   2.0000     -11.314596      -307.8858 
  12   2.0000     -11.296088      -307.3822 
  13   2.0000     -11.290297      -307.2246 
  14   2.0000     -11.289536      -307.2039 
  15   2.0000     -11.287260      -307.1420 
  16   2.0000     -11.286993      -307.1347 
  17   2.0000     -11.281457      -306.9841 
  18   2.0000     -11.279957      -306.9432 
  19   2.0000     -11.271093      -306.7020 
  20   2.0000     -11.262692      -306.4734 
  21   2.0000     -11.242455      -305.9227 
  22   2.0000     -11.238812      -305.8236 
  23   2.0000     -11.231763      -305.6318 
  24   2.0000     -11.226424      -305.4865 
  25   2.0000     -11.225518      -305.4619 
  26   2.0000     -11.222763      -305.3869 
  27   2.0000     -11.218875      -305.2811 
  28   2.0000     -11.218564      -305.2726 
  29   2.0000     -11.211638      -305.0842 
  30   2.0000     -11.209699      -305.0314 
  31   2.0000     -11.195766      -304.6523 
  32   2.0000     -11.194687      -304.6229 
  33   2.0000     -11.193326      -304.5859 
  34   2.0000     -11.187672      -304.4320 
  35   2.0000     -11.186919      -304.4115 
  36   2.0000     -11.182436      -304.2895 
  37   2.0000     -11.179477      -304.2090 
  38   2.0000     -11.179437      -304.2079 
  39   2.0000     -11.178274      -304.1763 
  40   2.0000     -11.170550      -303.9661 
  41   2.0000     -11.165567      -303.8305 
  42   2.0000     -11.164355      -303.7975 
  43   2.0000     -11.162070      -303.7354 
  44   2.0000     -11.160708      -303.6983 
  45   2.0000     -11.144369      -303.2537 
  46   2.0000     -11.143798      -303.2382 
  47   2.0000     -11.140271      -303.1422 
  48   2.0000     -11.136916      -303.0509 
  49   2.0000     -11.130379      -302.8730 
  50   2.0000     -11.116497      -302.4953 
  51   2.0000     -11.110682      -302.3370 
  52   2.0000      -1.392712       -37.8976 
  53   2.0000      -1.316309       -35.8186 
  54   2.0000      -1.307478       -35.5783 
  55   2.0000      -1.271206       -34.5913 
  56   2.0000      -1.224754       -33.3272 
  57   2.0000      -1.199932       -32.6518 
  58   2.0000      -1.178590       -32.0711 
  59   2.0000      -1.165627       -31.7183 
  60   2.0000      -1.136682       -30.9307 
  61   2.0000      -1.110259       -30.2117 
  62   2.0000      -1.105684       -30.0872 
  63   2.0000      -1.097266       -29.8581 
  64   2.0000      -1.065499       -28.9937 
  65   2.0000      -1.058123       -28.7930 
  66   2.0000      -1.040794       -28.3214 
  67   2.0000      -1.032437       -28.0940 
  68   2.0000      -1.015326       -27.6284 
  69   2.0000      -1.003867       -27.3166 
  70   2.0000      -0.998469       -27.1697 
  71   2.0000      -0.995376       -27.0856 
  72   2.0000      -0.985706       -26.8224 
  73   2.0000      -0.975787       -26.5525 
  74   2.0000      -0.964479       -26.2448 
  75   2.0000      -0.961097       -26.1528 
  76   2.0000      -0.950677       -25.8692 
  77   2.0000      -0.940340       -25.5879 
  78   2.0000      -0.936173       -25.4746 
  79   2.0000      -0.919564       -25.0226 
  80   2.0000      -0.912045       -24.8180 
  81   2.0000      -0.891460       -24.2579 
  82   2.0000      -0.886865       -24.1328 
  83   2.0000      -0.867945       -23.6180 
  84   2.0000      -0.859958       -23.4007 
  85   2.0000      -0.846136       -23.0245 
  86   2.0000      -0.828920       -22.5561 
  87   2.0000      -0.826034       -22.4775 
  88   2.0000      -0.820055       -22.3148 
  89   2.0000      -0.794234       -21.6122 
  90   2.0000      -0.785657       -21.3788 
  91   2.0000      -0.772789       -21.0287 
  92   2.0000      -0.741052       -20.1651 
  93   2.0000      -0.733583       -19.9618 
  94   2.0000      -0.729019       -19.8376 
  95   2.0000      -0.724312       -19.7095 
  96   2.0000      -0.716142       -19.4872 
  97   2.0000      -0.710342       -19.3294 
  98   2.0000      -0.707636       -19.2557 
  99   2.0000      -0.704735       -19.1768 
 100   2.0000      -0.695804       -18.9338 
 101   2.0000      -0.688183       -18.7264 
 102   2.0000      -0.684002       -18.6126 
 103   2.0000      -0.675635       -18.3850 
 104   2.0000      -0.672134       -18.2897 
 105   2.0000      -0.671881       -18.2828 
 106   2.0000      -0.666671       -18.1410 
 107   2.0000      -0.661488       -18.0000 
 108   2.0000      -0.651913       -17.7395 
 109   2.0000      -0.648825       -17.6554 
 110   2.0000      -0.648335       -17.6421 
 111   2.0000      -0.641948       -17.4683 
 112   2.0000      -0.640451       -17.4276 
 113   2.0000      -0.635288       -17.2871 
 114   2.0000      -0.633644       -17.2423 
 115   2.0000      -0.629040       -17.1171 
 116   2.0000      -0.627030       -17.0624 
 117   2.0000      -0.614472       -16.7206 
 118   2.0000      -0.610788       -16.6204 
 119   2.0000      -0.608662       -16.5625 
 120   2.0000      -0.608059       -16.5461 
 121   2.0000      -0.600615       -16.3436 
 122   2.0000      -0.593321       -16.1451 
 123   2.0000      -0.589191       -16.0327 
 124   2.0000      -0.584185       -15.8965 
 125   2.0000      -0.577920       -15.7260 
 126   2.0000      -0.574542       -15.6341 
 127   2.0000      -0.571661       -15.5557 
 128   2.0000      -0.570621       -15.5274 
 129   2.0000      -0.569268       -15.4906 
 130   2.0000      -0.556280       -15.1371 
 131   2.0000      -0.542696       -14.7675 
 132   2.0000      -0.542061       -14.7502 
 133   2.0000      -0.538097       -14.6424 
 134   2.0000      -0.533438       -14.5156 
 135   2.0000      -0.529151       -14.3989 
 136   2.0000      -0.519568       -14.1382 
 137   2.0000      -0.515619       -14.0307 
 138   2.0000      -0.513848       -13.9825 
 139   2.0000      -0.511783       -13.9263 
 140   2.0000      -0.509549       -13.8655 
 141   2.0000      -0.503300       -13.6955 
 142   2.0000      -0.501096       -13.6355 
 143   2.0000      -0.497529       -13.5385 
 144   2.0000      -0.495307       -13.4780 
 145   2.0000      -0.492520       -13.4022 
 146   2.0000      -0.488199       -13.2846 
 147   2.0000      -0.472978       -12.8704 
 148   2.0000      -0.469827       -12.7846 
 149   2.0000      -0.465904       -12.6779 
 150   2.0000      -0.462786       -12.5930 
 151   2.0000      -0.460008       -12.5175 
 152   2.0000      -0.451885       -12.2964 
 153   2.0000      -0.440703       -11.9921 
 154   2.0000      -0.432646       -11.7729 
 155   2.0000      -0.430914       -11.7258 
 156   2.0000      -0.418616       -11.3911 
 157   2.0000      -0.416615       -11.3367 
 158   2.0000      -0.410970       -11.1831 
 159   2.0000      -0.410613       -11.1733 
 160   2.0000      -0.381271       -10.3749 
 161   2.0000      -0.369337       -10.0502 
 162   2.0000      -0.353028        -9.6064 
 163   2.0000      -0.351567        -9.5666 
 164   2.0000      -0.345538        -9.4026 
 165   2.0000      -0.341692        -9.2979 
 166   2.0000      -0.337836        -9.1930 
 167   2.0000      -0.316456        -8.6112 
 168   2.0000      -0.311753        -8.4832 
 169   2.0000      -0.305250        -8.3063 
 170   2.0000      -0.298016        -8.1094 
 171   2.0000      -0.282416        -7.6849 
 172   2.0000      -0.275179        -7.4880 
 173   2.0000      -0.266595        -7.2544 
 174   2.0000      -0.228776        -6.2253 
 175   2.0000      -0.182894        -4.9768 
 176   2.0000      -0.173121        -4.7108 
 177   2.0000      -0.062713        -1.7065 
 178   2.0000      -0.050731        -1.3805 
 179   0.0000       0.036437         0.9915 
 180   0.0000       0.054001         1.4694 
 181   0.0000       0.072837         1.9820 
 182   0.0000       0.098742         2.6869 
 183   0.0000       0.102264         2.7827 
 184   0.0000       0.122626         3.3368 
 185   0.0000       0.141795         3.8585 
 186   0.0000       0.149163         4.0589 
 187   0.0000       0.160292         4.3618 
 188   0.0000       0.164894         4.4870 
 189   0.0000       0.166756         4.5377 
 190   0.0000       0.167564         4.5597 
 191   0.0000       0.173240         4.7141 
 192   0.0000       0.180882         4.9221 
 193   0.0000       0.196196         5.3388 
 194   0.0000       0.199544         5.4299 
 195   0.0000       0.206231         5.6118 
 196   0.0000       0.212397         5.7796 
 197   0.0000       0.212545         5.7837 
 198   0.0000       0.216622         5.8946 
 199   0.0000       0.218047         5.9334 
 200   0.0000       0.229271         6.2388 
 201   0.0000       0.237212         6.4549 
 202   0.0000       0.237322         6.4579 
 203   0.0000       0.240331         6.5397 
 204   0.0000       0.241642         6.5754 
 205   0.0000       0.244927         6.6648 
 206   0.0000       0.247221         6.7272 
 207   0.0000       0.248606         6.7649 
 208   0.0000       0.251274         6.8375 
 209   0.0000       0.258445         7.0327 
 210   0.0000       0.263599         7.1729 
 211   0.0000       0.267149         7.2695 
 212   0.0000       0.268717         7.3121 
 213   0.0000       0.274196         7.4612 
 214   0.0000       0.279194         7.5973 
 215   0.0000       0.280474         7.6321 
 216   0.0000       0.283678         7.7193 
 217   0.0000       0.284969         7.7544 
 218   0.0000       0.287717         7.8292 
 219   0.0000       0.289738         7.8842 
 220   0.0000       0.290368         7.9013 
 221   0.0000       0.294609         8.0167 
 222   0.0000       0.299254         8.1431 
 223   0.0000       0.300160         8.1678 
 224   0.0000       0.300474         8.1763 
 225   0.0000       0.305408         8.3106 
 226   0.0000       0.306831         8.3493 
 227   0.0000       0.307565         8.3693 
 228   0.0000       0.318191         8.6584 
 229   0.0000       0.320876         8.7315 
 230   0.0000       0.327753         8.9186 
 231   0.0000       0.330680         8.9982 
 232   0.0000       0.333500         9.0750 
 233   0.0000       0.336885         9.1671 
 234   0.0000       0.340538         9.2665 
 235   0.0000       0.356313         9.6958 
 236   0.0000       0.358397         9.7525 
 237   0.0000       0.361819         9.8456 
 238   0.0000       0.373188        10.1550 
 239   0.0000       0.386723        10.5233 
 240   0.0000       0.394136        10.7250 
 241   0.0000       0.398854        10.8534 
 242   0.0000       0.408430        11.1139 
 243   0.0000       0.416805        11.3418 
 244   0.0000       0.423734        11.5304 
 245   0.0000       0.430954        11.7268 
 246   0.0000       0.436400        11.8750 
 247   0.0000       0.438811        11.9407 
 248   0.0000       0.443760        12.0753 
 249   0.0000       0.444712        12.1012 
 250   0.0000       0.451919        12.2973 
 251   0.0000       0.455881        12.4052 
 252   0.0000       0.457200        12.4410 
 253   0.0000       0.469010        12.7624 
 254   0.0000       0.471762        12.8373 
 255   0.0000       0.476478        12.9656 
 256   0.0000       0.480231        13.0677 
 257   0.0000       0.483141        13.1469 
 258   0.0000       0.485119        13.2008 
 259   0.0000       0.493401        13.4261 
 260   0.0000       0.501603        13.6493 
 261   0.0000       0.503517        13.7014 
 262   0.0000       0.506520        13.7831 
 263   0.0000       0.509876        13.8744 
 264   0.0000       0.512321        13.9410 
 265   0.0000       0.517151        14.0724 
 266   0.0000       0.520623        14.1669 
 267   0.0000       0.525460        14.2985 
 268   0.0000       0.532076        14.4785 
 269   0.0000       0.537945        14.6382 
 270   0.0000       0.543273        14.7832 
 271   0.0000       0.544600        14.8193 
 272   0.0000       0.546435        14.8692 
 273   0.0000       0.548640        14.9293 
 274   0.0000       0.553245        15.0546 
 275   0.0000       0.560694        15.2573 
 276   0.0000       0.568515        15.4701 
 277   0.0000       0.571852        15.5609 
 278   0.0000       0.578192        15.7334 
 279   0.0000       0.586178        15.9507 
 280   0.0000       0.588782        16.0216 
 281   0.0000       0.593980        16.1630 
 282   0.0000       0.597192        16.2504 
 283   0.0000       0.598273        16.2798 
 284   0.0000       0.599201        16.3051 
 285   0.0000       0.602901        16.4058 
 286   0.0000       0.605037        16.4639 
 287   0.0000       0.609193        16.5770 
 288   0.0000       0.613402        16.6915 
 289   0.0000       0.618334        16.8257 
 290   0.0000       0.625521        17.0213 
 291   0.0000       0.630863        17.1667 
 292   0.0000       0.633211        17.2305 
 293   0.0000       0.638114        17.3640 
 294   0.0000       0.641318        17.4512 
 295   0.0000       0.646447        17.5907 
 296   0.0000       0.648144        17.6369 
 297   0.0000       0.654814        17.8184 
 298   0.0000       0.660602        17.9759 
 299   0.0000       0.661997        18.0139 
 300   0.0000       0.663464        18.0538 
 301   0.0000       0.668381        18.1876 
 302   0.0000       0.669443        18.2165 
 303   0.0000       0.674384        18.3509 
 304   0.0000       0.677994        18.4491 
 305   0.0000       0.679784        18.4979 
 306   0.0000       0.683312        18.5939 
 307   0.0000       0.687014        18.6946 
 308   0.0000       0.689402        18.7596 
 309   0.0000       0.693987        18.8843 
 310   0.0000       0.699256        19.0277 
 311   0.0000       0.702343        19.1117 
 312   0.0000       0.704522        19.1710 
 313   0.0000       0.707695        19.2574 
 314   0.0000       0.712164        19.3790 
 315   0.0000       0.714997        19.4561 
 316   0.0000       0.715810        19.4782 
 317   0.0000       0.717683        19.5291 
 318   0.0000       0.719831        19.5876 
 319   0.0000       0.723076        19.6759 
 320   0.0000       0.726236        19.7619 
 321   0.0000       0.728664        19.8280 
 322   0.0000       0.731934        19.9169 
 323   0.0000       0.738027        20.0827 
 324   0.0000       0.738663        20.1000 
 325   0.0000       0.743019        20.2186 
 326   0.0000       0.744732        20.2652 
 327   0.0000       0.749417        20.3927 
 328   0.0000       0.753591        20.5062 
 329   0.0000       0.755485        20.5578 
 330   0.0000       0.757698        20.6180 
 331   0.0000       0.762432        20.7468 
 332   0.0000       0.762960        20.7612 
 333   0.0000       0.765400        20.8276 
 334   0.0000       0.766767        20.8648 
 335   0.0000       0.768251        20.9052 
 336   0.0000       0.768993        20.9254 
 337   0.0000       0.774835        21.0843 
 338   0.0000       0.783232        21.3128 
 339   0.0000       0.785329        21.3699 
 340   0.0000       0.789608        21.4863 
 341   0.0000       0.790605        21.5134 
 342   0.0000       0.793790        21.6001 
 343   0.0000       0.794354        21.6155 
 344   0.0000       0.797026        21.6882 
 345   0.0000       0.798112        21.7177 
 346   0.0000       0.804794        21.8996 
 347   0.0000       0.806409        21.9435 
 348   0.0000       0.813105        22.1257 
 349   0.0000       0.814297        22.1582 
 350   0.0000       0.817555        22.2468 
 351   0.0000       0.819450        22.2984 
 352   0.0000       0.824579        22.4379 
 353   0.0000       0.826284        22.4843 
 354   0.0000       0.827810        22.5259 
 355   0.0000       0.830597        22.6017 
 356   0.0000       0.831961        22.6388 
 357   0.0000       0.837125        22.7793 
 358   0.0000       0.840312        22.8660 
 359   0.0000       0.840648        22.8752 
 360   0.0000       0.845249        23.0004 
 361   0.0000       0.845870        23.0173 
 362   0.0000       0.848852        23.0984 
 363   0.0000       0.850901        23.1542 
 364   0.0000       0.852546        23.1989 
 365   0.0000       0.857371        23.3303 
 366   0.0000       0.858198        23.3528 
 367   0.0000       0.859406        23.3856 
 368   0.0000       0.860770        23.4227 
 369   0.0000       0.864000        23.5106 
 370   0.0000       0.866616        23.5818 
 371   0.0000       0.868265        23.6267 
 372   0.0000       0.870418        23.6853 
 373   0.0000       0.871421        23.7126 
 374   0.0000       0.875911        23.8348 
 375   0.0000       0.877657        23.8823 
 376   0.0000       0.878373        23.9017 
 377   0.0000       0.879826        23.9413 
 378   0.0000       0.883680        24.0461 
 379   0.0000       0.887263        24.1437 
 380   0.0000       0.890810        24.2402 
 381   0.0000       0.891056        24.2469 
 382   0.0000       0.902570        24.5602 
 383   0.0000       0.903383        24.5823 
 384   0.0000       0.904055        24.6006 
 385   0.0000       0.908351        24.7175 
 386   0.0000       0.910030        24.7632 
 387   0.0000       0.916017        24.9261 
 388   0.0000       0.917961        24.9790 
 389   0.0000       0.919191        25.0125 
 390   0.0000       0.921264        25.0689 
 391   0.0000       0.924481        25.1564 
 392   0.0000       0.928804        25.2741 
 393   0.0000       0.933555        25.4033 
 394   0.0000       0.933987        25.4151 
 395   0.0000       0.935383        25.4531 
 396   0.0000       0.936845        25.4929 
 397   0.0000       0.940037        25.5797 
 398   0.0000       0.941512        25.6198 
 399   0.0000       0.942948        25.6589 
 400   0.0000       0.945112        25.7178 
 401   0.0000       0.948684        25.8150 
 402   0.0000       0.952443        25.9173 
 403   0.0000       0.956606        26.0306 
 404   0.0000       0.957842        26.0642 
 405   0.0000       0.960699        26.1419 
 406   0.0000       0.962794        26.1990 
 407   0.0000       0.968147        26.3446 
 408   0.0000       0.969619        26.3847 
 409   0.0000       0.975726        26.5509 
 410   0.0000       0.980869        26.6908 
 411   0.0000       0.984480        26.7891 
 412   0.0000       0.988297        26.8929 
 413   0.0000       0.995876        27.0992 
 414   0.0000       0.997011        27.1300 
 415   0.0000       1.000492        27.2248 
 416   0.0000       1.003859        27.3164 
 417   0.0000       1.005785        27.3688 
 418   0.0000       1.008745        27.4493 
 419   0.0000       1.015968        27.6459 
 420   0.0000       1.021225        27.7889 
 421   0.0000       1.024900        27.8890 
 422   0.0000       1.032389        28.0927 
 423   0.0000       1.037691        28.2370 
 424   0.0000       1.039360        28.2824 
 425   0.0000       1.045717        28.4554 
 426   0.0000       1.056933        28.7606 
 427   0.0000       1.062763        28.9192 
 428   0.0000       1.065777        29.0013 
 429   0.0000       1.071339        29.1526 
 430   0.0000       1.074147        29.2290 
 431   0.0000       1.082614        29.4594 
 432   0.0000       1.084749        29.5175 
 433   0.0000       1.088505        29.6197 
 434   0.0000       1.093834        29.7647 
 435   0.0000       1.097595        29.8671 
 436   0.0000       1.104299        30.0495 
 437   0.0000       1.106641        30.1132 
 438   0.0000       1.113079        30.2884 
 439   0.0000       1.115131        30.3443 
 440   0.0000       1.117846        30.4181 
 441   0.0000       1.119376        30.4598 
 442   0.0000       1.124163        30.5900 
 443   0.0000       1.129119        30.7249 
 444   0.0000       1.132407        30.8144 
 445   0.0000       1.133987        30.8573 
 446   0.0000       1.142008        31.0756 
 447   0.0000       1.143628        31.1197 
 448   0.0000       1.145483        31.1702 
 449   0.0000       1.148940        31.2642 
 450   0.0000       1.154760        31.4226 
 451   0.0000       1.156601        31.4727 
 452   0.0000       1.159090        31.5405 
 453   0.0000       1.160839        31.5880 
 454   0.0000       1.165841        31.7241 
 455   0.0000       1.167818        31.7780 
 456   0.0000       1.176060        32.0022 
 457   0.0000       1.178042        32.0562 
 458   0.0000       1.182628        32.1810 
 459   0.0000       1.187170        32.3045 
 460   0.0000       1.189142        32.3582 
 461   0.0000       1.190870        32.4052 
 462   0.0000       1.200178        32.6585 
 463   0.0000       1.202746        32.7284 
 464   0.0000       1.205193        32.7950 
 465   0.0000       1.207400        32.8550 
 466   0.0000       1.210264        32.9330 
 467   0.0000       1.213003        33.0075 
 468   0.0000       1.217711        33.1356 
 469   0.0000       1.218838        33.1663 
 470   0.0000       1.226715        33.3806 
 471   0.0000       1.228783        33.4369 
 472   0.0000       1.233491        33.5650 
 473   0.0000       1.237145        33.6644 
 474   0.0000       1.238730        33.7076 
 475   0.0000       1.243056        33.8253 
 476   0.0000       1.246956        33.9314 
 477   0.0000       1.250141        34.0181 
 478   0.0000       1.256625        34.1945 
 479   0.0000       1.257734        34.2247 
 480   0.0000       1.258652        34.2497 
 481   0.0000       1.264823        34.4176 
 482   0.0000       1.266263        34.4568 
 483   0.0000       1.270162        34.5629 
 484   0.0000       1.273232        34.6464 
 485   0.0000       1.281854        34.8810 
 486   0.0000       1.284909        34.9642 
 487   0.0000       1.287712        35.0404 
 488   0.0000       1.289672        35.0938 
 489   0.0000       1.291304        35.1382 
 490   0.0000       1.295070        35.2407 
 491   0.0000       1.300298        35.3829 
 492   0.0000       1.302947        35.4550 
 493   0.0000       1.306459        35.5506 
 494   0.0000       1.308887        35.6166 
 495   0.0000       1.315183        35.7879 
 496   0.0000       1.320592        35.9351 
 497   0.0000       1.323308        36.0090 
 498   0.0000       1.325609        36.0717 
 499   0.0000       1.330589        36.2072 
 500   0.0000       1.332285        36.2533 
 501   0.0000       1.336667        36.3726 
 502   0.0000       1.340312        36.4717 
 503   0.0000       1.343157        36.5492 
 504   0.0000       1.346231        36.6328 
 505   0.0000       1.348294        36.6890 
 506   0.0000       1.350366        36.7453 
 507   0.0000       1.356595        36.9148 
[...]
      pz      :     0.021739  p :     0.079232
      px      :     0.042793
      py      :     0.014700
 77 H s       :     0.896413  s :     0.896413
      pz      :     0.047056  p :     0.078270
      px      :     0.015002
      py      :     0.016212
 78 H s       :     0.896803  s :     0.896803
      pz      :     0.025412  p :     0.078180
      px      :     0.020726
      py      :     0.032042
 79 H s       :     0.906989  s :     0.906989
      pz      :     0.022674  p :     0.087343
      px      :     0.021914
      py      :     0.042754
 80 H s       :     0.880903  s :     0.880903
      pz      :     0.038064  p :     0.083071
      px      :     0.029428
      py      :     0.015578
 81 H s       :     0.889030  s :     0.889030
      pz      :     0.037518  p :     0.083225
      px      :     0.016069
      py      :     0.029638
 82 H s       :     0.914087  s :     0.914087
      pz      :     0.022551  p :     0.087194
      px      :     0.030859
      py      :     0.033784
 83 H s       :     0.872327  s :     0.872327
      pz      :     0.039154  p :     0.083584
      px      :     0.015248
      py      :     0.029182
 84 H s       :     0.889083  s :     0.889083
      pz      :     0.035806  p :     0.084543
      px      :     0.031815
      py      :     0.016922
 85 H s       :     0.896498  s :     0.896498
      pz      :     0.022508  p :     0.079583
      px      :     0.014168
      py      :     0.042907
 86 H s       :     0.890839  s :     0.890839
      pz      :     0.024693  p :     0.078888
      px      :     0.032987
      py      :     0.021209
 87 H s       :     0.891549  s :     0.891549
      pz      :     0.047776  p :     0.078563
      px      :     0.015665
      py      :     0.015122
 88 H s       :     0.918801  s :     0.918801
      pz      :     0.022585  p :     0.086815
      px      :     0.041911
      py      :     0.022320
 89 H s       :     0.875920  s :     0.875920
      pz      :     0.037781  p :     0.084043
      px      :     0.030450
      py      :     0.015813


                      *****************************
                      * MAYER POPULATION ANALYSIS *
                      *****************************

  NA   - Mulliken gross atomic population
  ZA   - Total nuclear charge
  QA   - Mulliken gross atomic charge
  VA   - Mayer's total valence
  BVA  - Mayer's bonded valence
  FA   - Mayer's free valence

  ATOM       NA         ZA         QA         VA         BVA        FA
  0 C      5.7603     6.0000     0.2397     3.7985     3.7985     0.0000
  1 N      7.4093     7.0000    -0.4093     3.4881     3.4881     0.0000
  2 C      6.0661     6.0000    -0.0661     3.9211     3.9211    -0.0000
  3 N      7.3443     7.0000    -0.3443     3.4189     3.4189    -0.0000
  4 C      6.0654     6.0000    -0.0654     3.9513     3.9513    -0.0000
  5 N      7.5664     7.0000    -0.5664     3.0651     3.0651     0.0000
  6 C      6.0245     6.0000    -0.0245     3.9568     3.9568    -0.0000
  7 N      7.3367     7.0000    -0.3367     3.4460     3.4460    -0.0000
  8 C      5.7660     6.0000     0.2340     3.7982     3.7982     0.0000
  9 N      7.5665     7.0000    -0.5665     3.0927     3.0927    -0.0000
 10 C      5.8973     6.0000     0.1027     3.8564     3.8564     0.0000
 11 N      7.4403     7.0000    -0.4403     3.3701     3.3701    -0.0000
 12 C      6.0581     6.0000    -0.0581     3.9082     3.9082    -0.0000
 13 N      7.4521     7.0000    -0.4521     3.3115     3.3115    -0.0000
 14 C      5.7806     6.0000     0.2194     3.8115     3.8115    -0.0000
 15 N      7.4419     7.0000    -0.4419     3.3617     3.3617    -0.0000
 16 C      5.7418     6.0000     0.2582     3.8067     3.8067     0.0000
 17 C      6.0329     6.0000    -0.0329     3.9597     3.9597    -0.0000
 18 C      6.1756     6.0000    -0.1756     3.6699     3.6699    -0.0000
 19 C      5.7691     6.0000     0.2309     3.9034     3.9034    -0.0000
 20 C      5.8145     6.0000     0.1855     3.8207     3.8207    -0.0000
 21 C      6.0675     6.0000    -0.0675     3.8895     3.8895    -0.0000
 22 C      6.0925     6.0000    -0.0925     3.9851     3.9851    -0.0000
 23 C      6.0695     6.0000    -0.0695     3.9884     3.9884    -0.0000
 24 C      5.7824     6.0000     0.2176     3.8312     3.8312    -0.0000
 25 C      5.8848     6.0000     0.1152     3.8946     3.8946    -0.0000
 26 C      6.0647     6.0000    -0.0647     3.9103     3.9103    -0.0000
 27 C      5.7496     6.0000     0.2504     3.9040     3.9040    -0.0000
 28 C      6.0387     6.0000    -0.0387     3.9912     3.9912    -0.0000
 29 C      6.1981     6.0000    -0.1981     3.7278     3.7278    -0.0000
 30 C      5.7807     6.0000     0.2193     3.7769     3.7769    -0.0000
 31 C      5.8144     6.0000     0.1856     3.8341     3.8341     0.0000
 32 C      6.0644     6.0000    -0.0644     3.9127     3.9127    -0.0000
 33 C      6.1046     6.0000    -0.1046     3.9837     3.9837    -0.0000
 34 C      6.0506     6.0000    -0.0506     4.0003     4.0003    -0.0000
 35 C      5.8240     6.0000     0.1760     3.8302     3.8302    -0.0000
 36 C      5.8783     6.0000     0.1217     3.9124     3.9124     0.0000
 37 C      6.0710     6.0000    -0.0710     3.9130     3.9130     0.0000
 38 C      5.7549     6.0000     0.2451     3.7935     3.7935     0.0000
 39 C      6.0657     6.0000    -0.0657     3.9997     3.9997     0.0000
 40 C      6.2060     6.0000    -0.2060     3.7537     3.7537    -0.0000
 41 C      5.7840     6.0000     0.2160     3.8731     3.8731    -0.0000
 42 C      5.7872     6.0000     0.2128     3.8334     3.8334    -0.0000
 43 C      6.0778     6.0000    -0.0778     3.9050     3.9050     0.0000
 44 C      6.0930     6.0000    -0.0930     3.9825     3.9825    -0.0000
 45 C      6.0368     6.0000    -0.0368     3.9968     3.9968     0.0000
 46 C      5.8183     6.0000     0.1817     3.8194     3.8194     0.0000
 47 C      5.8831     6.0000     0.1169     3.8977     3.8977     0.0000
 48 C      6.0826     6.0000    -0.0826     3.8970     3.8970     0.0000
 49 C      5.7942     6.0000     0.2058     3.8598     3.8598     0.0000
 50 C      6.0693     6.0000    -0.0693     3.9904     3.9904    -0.0000
 51 C      6.1884     6.0000    -0.1884     3.7437     3.7437    -0.0000
 52 H      0.9154     1.0000     0.0846     0.9816     0.9816     0.0000
 53 H      1.0059     1.0000    -0.0059     1.0028     1.0028    -0.0000
 54 H      0.9303     1.0000     0.0697     1.0048     1.0048     0.0000
 55 H      0.9166     1.0000     0.0834     0.9826     0.9826    -0.0000
 56 H      0.9123     1.0000     0.0877     0.9727     0.9727     0.0000
 57 H      0.9217     1.0000     0.0783     0.9849     0.9849    -0.0000
 58 H      0.9237     1.0000     0.0763     0.9870     0.9870    -0.0000
 59 H      1.0301     1.0000    -0.0301     0.9958     0.9958    -0.0000
 60 H      0.9311     1.0000     0.0689     1.0045     1.0045     0.0000
 61 H      0.8223     1.0000     0.1777     1.0439     1.0439    -0.0000
 62 H      0.8328     1.0000     0.1672     1.0433     1.0433    -0.0000
 63 H      0.9484     1.0000     0.0516     0.9864     0.9864    -0.0000
 64 H      1.0360     1.0000    -0.0360     0.9930     0.9930    -0.0000
 65 H      0.9605     1.0000     0.0395     1.0075     1.0075    -0.0000
 66 H      0.9461     1.0000     0.0539     0.9847     0.9847    -0.0000
 67 H      0.9429     1.0000     0.0571     0.9715     0.9715     0.0000
 68 H      0.9447     1.0000     0.0553     0.9863     0.9863    -0.0000
 69 H      0.9415     1.0000     0.0585     0.9830     0.9830     0.0000
 70 H      1.0120     1.0000    -0.0120     0.9987     0.9987    -0.0000
 71 H      0.9542     1.0000     0.0458     1.0077     1.0077    -0.0000
 72 H      0.9645     1.0000     0.0355     0.9861     0.9861    -0.0000
 73 H      1.0197     1.0000    -0.0197     0.9960     0.9960    -0.0000
 74 H      0.9725     1.0000     0.0275     1.0089     1.0089    -0.0000
 75 H      0.9659     1.0000     0.0341     0.9868     0.9868    -0.0000
 76 H      0.9555     1.0000     0.0445     0.9700     0.9700     0.0000
 77 H      0.9552     1.0000     0.0448     0.9841     0.9841     0.0000
 78 H      0.9559     1.0000     0.0441     0.9834     0.9834     0.0000
 79 H      1.0115     1.0000    -0.0115     1.0021     1.0021     0.0000
 80 H      0.9727     1.0000     0.0273     1.0061     1.0061    -0.0000
 81 H      0.9503     1.0000     0.0497     0.9852     0.9852    -0.0000
 82 H      1.0229     1.0000    -0.0229     0.9953     0.9953    -0.0000
 83 H      0.9576     1.0000     0.0424     1.0109     1.0109    -0.0000
 84 H      0.9514     1.0000     0.0486     0.9865     0.9865     0.0000
 85 H      0.9465     1.0000     0.0535     0.9713     0.9713     0.0000
 86 H      0.9438     1.0000     0.0562     0.9841     0.9841     0.0000
 87 H      0.9460     1.0000     0.0540     0.9852     0.9852    -0.0000
 88 H      1.0312     1.0000    -0.0312     0.9907     0.9907     0.0000
 89 H      0.9621     1.0000     0.0379     1.0058     1.0058    -0.0000

  Mayer bond orders larger than 0.100000
B(  0-C ,  1-N ) :   1.2178 B(  0-C , 17-C ) :   1.5057 B(  0-C , 52-H ) :   0.9665 
B(  1-N ,  8-C ) :   1.2080 B(  1-N , 10-C ) :   0.9229 B(  2-C , 12-C ) :   1.5840 
B(  2-C , 16-C ) :   1.2693 B(  2-C , 53-H ) :   0.9794 B(  3-N , 14-C ) :   1.1739 
B(  3-N , 16-C ) :   1.2020 B(  3-N , 61-H ) :   0.8950 B(  4-C ,  6-C ) :   1.3652 
B(  4-C , 17-C ) :   1.3657 B(  4-C , 18-C ) :   1.0438 B(  5-N , 19-C ) :   1.3622 
B(  5-N , 27-C ) :   1.4502 B(  6-C ,  8-C ) :   1.5077 B(  6-C , 54-H ) :   0.9704 
B(  7-N , 30-C ) :   1.1836 B(  7-N , 38-C ) :   1.2162 B(  7-N , 62-H ) :   0.9017 
B(  8-C , 55-H ) :   0.9674 B(  9-N , 41-C ) :   1.4366 B(  9-N , 49-C ) :   1.3912 
B( 10-C , 56-H ) :   0.9768 B( 10-C , 57-H ) :   0.9805 B( 10-C , 58-H ) :   0.9815 
B( 11-N , 20-C ) :   1.0945 B( 11-N , 24-C ) :   1.1342 B( 11-N , 25-C ) :   0.9630 
B( 12-C , 14-C ) :   1.2695 B( 12-C , 59-H ) :   0.9767 B( 13-N , 31-C ) :   1.0800 
B( 13-N , 35-C ) :   1.0697 B( 13-N , 36-C ) :   0.9836 B( 14-C , 18-C ) :   1.2654 
B( 15-N , 42-C ) :   1.1267 B( 15-N , 46-C ) :   1.0874 B( 15-N , 47-C ) :   0.9668 
B( 16-C , 51-C ) :   1.2514 B( 17-C , 60-H ) :   0.9709 B( 18-C , 19-C ) :   1.3168 
B( 19-C , 21-C ) :   1.1591 B( 20-C , 28-C ) :   1.6303 B( 20-C , 63-H ) :   0.9710 
B( 21-C , 26-C ) :   1.6856 B( 21-C , 64-H ) :   0.9714 B( 22-C , 23-C ) :   1.2533 
B( 22-C , 28-C ) :   1.2793 B( 22-C , 29-C ) :   1.2590 B( 23-C , 24-C ) :   1.6366 
B( 23-C , 65-H ) :   0.9723 B( 24-C , 66-H ) :   0.9691 B( 25-C , 67-H ) :   0.9762 
B( 25-C , 68-H ) :   0.9834 B( 25-C , 69-H ) :   0.9819 B( 26-C , 27-C ) :   1.1693 
B( 26-C , 70-H ) :   0.9759 B( 27-C , 29-C ) :   1.2443 B( 28-C , 71-H ) :   0.9709 
B( 29-C , 30-C ) :   1.1722 B( 30-C , 32-C ) :   1.3538 B( 31-C , 39-C ) :   1.6878 
B( 31-C , 72-H ) :   0.9709 B( 32-C , 37-C ) :   1.5064 B( 32-C , 73-H ) :   0.9771 
B( 33-C , 34-C ) :   1.2301 B( 33-C , 39-C ) :   1.2225 B( 33-C , 40-C ) :   1.3645 
B( 34-C , 35-C ) :   1.6865 B( 34-C , 74-H ) :   0.9710 B( 35-C , 75-H ) :   0.9709 
B( 36-C , 76-H ) :   0.9754 B( 36-C , 77-H ) :   0.9826 B( 36-C , 78-H ) :   0.9838 
B( 37-C , 38-C ) :   1.3469 B( 37-C , 79-H ) :   0.9793 B( 38-C , 40-C ) :   1.1763 
B( 39-C , 80-H ) :   0.9721 B( 40-C , 41-C ) :   1.1658 B( 41-C , 43-C ) :   1.2583 
B( 42-C , 50-C ) :   1.6428 B( 42-C , 81-H ) :   0.9696 B( 43-C , 48-C ) :   1.5928 
B( 43-C , 82-H ) :   0.9757 B( 44-C , 45-C ) :   1.2815 B( 44-C , 50-C ) :   1.2476 
B( 44-C , 51-C ) :   1.2460 B( 45-C , 46-C ) :   1.6332 B( 45-C , 83-H ) :   0.9702 
B( 46-C , 84-H ) :   0.9710 B( 47-C , 85-H ) :   0.9759 B( 47-C , 86-H ) :   0.9825 
B( 47-C , 87-H ) :   0.9830 B( 48-C , 49-C ) :   1.2524 B( 48-C , 88-H ) :   0.9725 
B( 49-C , 51-C ) :   1.1882 B( 50-C , 89-H ) :   0.9723 

-------
TIMINGS
-------

Total SCF time: 0 days 0 hours 24 min 49 sec 

Total time                  ....    1489.020 sec
Sum of individual times     ....    1485.119 sec  ( 99.7%)

Fock matrix formation       ....    1463.861 sec  ( 98.3%)
Diagonalization             ....       7.090 sec  (  0.5%)
Density matrix formation    ....       0.426 sec  (  0.0%)
Population analysis         ....       0.431 sec  (  0.0%)
Initial guess               ....       1.914 sec  (  0.1%)
Orbital Transformation      ....       0.000 sec  (  0.0%)
Orbital Orthonormalization  ....       0.000 sec  (  0.0%)
DIIS solution               ....       3.155 sec  (  0.2%)
SOSCF solution              ....       7.233 sec  (  0.5%)

Maximum memory used throughout the entire SCF-calculation: 302.6 MB


           ************************************************************
           *        Program running with 16 parallel MPI-processes    *
           *              working on a common directory               *
           ************************************************************

------------------------------------------------------------------------------
                                ORCA  MP2 
------------------------------------------------------------------------------

Freezing NCore=104 chemical core electrons

----------
MP2 ENERGY (disk based algorithm)
----------

Dimension of the basis                    ...  918
Memory devoted to MP2                     ... 2000 MB   
Data format for buffers                   ... DOUBLE
Compression type for matrix containers    ... UNCOMPRESSED

-------------------------------
PARTIAL EXCHANGE TRANSFORMATION
-------------------------------

Transformation type                        ... one-operator
Generation of integrals (i,mue|j,nue)      ... ON
Generation of integrals (mue,kappa|nue,tau)... OFF
Generation of integrals (i,mue|a,nue)      ... OFF
Dimension of the basis                     ...  918
Number of internal MOs                     ...  127 (  52- 178)
Pair cutoff                                ... 2.500e-12 Eh
Number of AO pairs in the trafo            ... 421821
Total Number of distinct AO pairs          ... 421821
Memory devoted for trafo                   ... 2000.0 MB 
Max. Number of MO pairs treated together   ...  311      
Number Format for Storage                  ... Double (8 Byte)
Integral package used                      ... LIBINT

Starting integral evaluation:
    ... done with AO integral generation
Closing buffer AOK     (37.66 GB; CompressionRatio= 1.35)
Collecting buffer AOK 
Number of MO pairs included in the trafo   ... 8128
------------------------
SORTING OF (i,mue|j,nue)
------------------------

IBATCH = 1 of  2
IBATCH = 2 of  2
Closing buffer KAO     (51.03 GB; CompressionRatio= 1.00)
Collecting buffer KAO 
N(AO-Batches) Done                         ...  85515331 
N(AO-Batches) Skipped                      ...  82023313 
N(IJ)-pairs Skipped                        ...         0 
TOTAL TIME for half transformation         ...  6247.018 sec
AO-integral generation                     ...   175.182 sec
Half transformation                        ...   310.497 sec
K-integral sorting                         ...  5589.769 sec
Process 10:   Internal MO 132

Finished integral transformation - now doing MP2 part

OPERATOR COMBINATION   0   0: ij=( 52..178, 52..178)
Process  1:   Internal MO  60
Process  7:   Internal MO 108
Process  4:   Internal MO  84
Process 13:   Internal MO 156
Process  0:   Internal MO  54
Process  2:   Internal MO  69
Process  0:   Internal MO  57
Process  1:   Internal MO  63
Process  5:   Internal MO  93
Process  2:   Internal MO  72
Process  8:   Internal MO 117
Process  1:   Internal MO  66
Process  6:   Internal MO 102
Process  3:   Internal MO  78
Process 14:   Internal MO 165
Process  2:   Internal MO  75
Process 11:   Internal MO 141
Process  4:   Internal MO  87
Process  5:   Internal MO  96
Process  9:   Internal MO 126
Process  3:   Internal MO  81
Process 12:   Internal MO 150
Process 10:   Internal MO 135
Process  8:   Internal MO 120
Process  6:   Internal MO 105
Process 15:   Internal MO 174
Process  7:   Internal MO 111
Process  4:   Internal MO  90
Process  5:   Internal MO  99
Process  9:   Internal MO 129
Process 13:   Internal MO 159
Process  8:   Internal MO 123
Process 11:   Internal MO 144
Process  7:   Internal MO 114
Process 10:   Internal MO 138
Process 14:   Internal MO 168
Process 12:   Internal MO 153
Process 15:   Internal MO 177
Process 13:   Internal MO 162
Process 11:   Internal MO 147
Process 14:   Internal MO 171
-----------------------------------------------
 MP2 CORRELATION ENERGY   :     -7.258788665 Eh
-----------------------------------------------


-------
TIMINGS
-------
Total time                : 6567.733 sec
Integral trafo            : 6249.150 sec ( 95.1%)
K(i,j)                    :    4.763 sec (  0.1%)
T(i,j)                    :    0.068 sec (  0.0%)

---------------------------------------
MP2 TOTAL ENERGY:    -2130.868885897 Eh
---------------------------------------

Maximum memory used throughout the entire MP2-calculation: 2275.2 MB

-------------------------   --------------------
FINAL SINGLE POINT ENERGY     -2130.868885896826
-------------------------   --------------------


                            ***************************************
                            *     ORCA property calculations      *
                            ***************************************


  WARNING: The energy has been calculated at the MP2 level but the densities
           used in the property calculations are still SCF densities
           MP2 response densities have not been calculated 
           use %mp2 Density relaxed end
           or  %mp2 Density unrelaxed end

                                    ---------------------
                                    Active property flags
                                    ---------------------
   (+) Dipole Moment


------------------------------------------------------------------------------
                       ORCA ELECTRIC PROPERTIES CALCULATION
------------------------------------------------------------------------------

Dipole Moment Calculation                       ... on
Quadrupole Moment Calculation                   ... off
Polarizability Calculation                      ... off
GBWName                                         ... /scratch/allen/tmpyp4_amber_gaff2/conf1/conf1/Conf89.orca.gbw
Electron density                                ... /scratch/allen/tmpyp4_amber_gaff2/conf1/conf1/Conf89.orca.scfp
The origin for moment calculation is the CENTER OF MASS  = ( 0.001688, -0.003065  0.004007)

-------------
DIPOLE MOMENT
-------------
                                X             Y             Z
Electronic contribution:     -4.71825       5.63686      -0.15137
Nuclear contribution   :     -0.02987       0.16564       0.20776
                        -----------------------------------------
Total Dipole Moment    :     -4.74812       5.80250       0.05639
                        -----------------------------------------
Magnitude (a.u.)       :      7.49779
Magnitude (Debye)      :     19.05787



--------------------
Rotational spectrum 
--------------------
 
Rotational constants in cm-1:     0.001498     0.001472     0.000763 
Rotational constants in MHz :    44.902280    44.138338    22.868849 

 Dipole components along the rotational axes: 
x,y,z [a.u.] :     6.618455     3.522876     0.047663 
x,y,z [Debye]:    16.822776     8.954440     0.121149 

 

Timings for individual modules:

Sum of individual times         ...     8079.783 sec (= 134.663 min)
GTO integral calculation        ...        2.756 sec (=   0.046 min)   0.0 %
SCF iterations                  ...     1489.998 sec (=  24.833 min)  18.4 %
MP2 module                      ...     6587.029 sec (= 109.784 min)  81.5 %
                             ****ORCA TERMINATED NORMALLY****
TOTAL RUN TIME: 0 days 2 hours 14 minutes 43 seconds 200 msec
# of primitive gaussian functions

