
                                 *****************
                                 * O   R   C   A *
                                 *****************

                                            #,                                       
                                            ###                                      
                                            ####                                     
                                            #####                                    
                                            ######                                   
                                           ########,                                 
                                     ,,################,,,,,                         
                               ,,#################################,,                 
                          ,,##########################################,,             
                       ,#########################################, ''#####,          
                    ,#############################################,,   '####,        
                  ,##################################################,,,,####,       
                ,###########''''           ''''###############################       
              ,#####''   ,,,,##########,,,,          '''####'''          '####       
            ,##' ,,,,###########################,,,                        '##       
           ' ,,###''''                  '''############,,,                           
         ,,##''                                '''############,,,,        ,,,,,,###''
      ,#''                                            '''#######################'''  
     '                                                          ''''####''''         
             ,#######,   #######,   ,#######,      ##                                
            ,#'     '#,  ##    ##  ,#'     '#,    #''#        ######   ,####,        
            ##       ##  ##   ,#'  ##            #'  '#       #        #'  '#        
            ##       ##  #######   ##           ,######,      #####,   #    #        
            '#,     ,#'  ##    ##  '#,     ,#' ,#      #,         ##   #,  ,#        
             '#######'   ##     ##  '#######'  #'      '#     #####' # '####'        



                  #######################################################
                  #                        -***-                        #
                  #          Department of theory and spectroscopy      #
                  #    Directorship and core code : Frank Neese         #
                  #        Max Planck Institute fuer Kohlenforschung    #
                  #                Kaiser Wilhelm Platz 1               #
                  #                 D-45470 Muelheim/Ruhr               #
                  #                      Germany                        #
                  #                                                     #
                  #                  All rights reserved                #
                  #                        -***-                        #
                  #######################################################


                         Program Version 5.0.4 -  RELEASE  -


 With contributions from (in alphabetic order):
   Daniel Aravena         : Magnetic Suceptibility
   Michael Atanasov       : Ab Initio Ligand Field Theory (pilot matlab implementation)
   Alexander A. Auer      : GIAO ZORA, VPT2 properties, NMR spectrum
   Ute Becker             : Parallelization
   Giovanni Bistoni       : ED, misc. LED, open-shell LED, HFLD
   Martin Brehm           : Molecular dynamics
   Dmytro Bykov           : SCF Hessian
   Vijay G. Chilkuri      : MRCI spin determinant printing, contributions to CSF-ICE
   Dipayan Datta          : RHF DLPNO-CCSD density
   Achintya Kumar Dutta   : EOM-CC, STEOM-CC
   Dmitry Ganyushin       : Spin-Orbit,Spin-Spin,Magnetic field MRCI
   Miquel Garcia          : C-PCM and meta-GGA Hessian, CC/C-PCM, Gaussian charge scheme
   Yang Guo               : DLPNO-NEVPT2, F12-NEVPT2, CIM, IAO-localization
   Andreas Hansen         : Spin unrestricted coupled pair/coupled cluster methods
   Benjamin Helmich-Paris : MC-RPA, TRAH-SCF, COSX integrals
   Lee Huntington         : MR-EOM, pCC
   Robert Izsak           : Overlap fitted RIJCOSX, COSX-SCS-MP3, EOM
   Marcus Kettner         : VPT2
   Christian Kollmar      : KDIIS, OOCD, Brueckner-CCSD(T), CCSD density, CASPT2, CASPT2-K
   Simone Kossmann        : Meta GGA functionals, TD-DFT gradient, OOMP2, MP2 Hessian
   Martin Krupicka        : Initial AUTO-CI
   Lucas Lang             : DCDCAS
   Marvin Lechner         : AUTO-CI (C++ implementation), FIC-MRCC
   Dagmar Lenk            : GEPOL surface, SMD
   Dimitrios Liakos       : Extrapolation schemes; Compound Job, initial MDCI parallelization
   Dimitrios Manganas     : Further ROCIS development; embedding schemes
   Dimitrios Pantazis     : SARC Basis sets
   Anastasios Papadopoulos: AUTO-CI, single reference methods and gradients
   Taras Petrenko         : DFT Hessian,TD-DFT gradient, ASA, ECA, R-Raman, ABS, FL, XAS/XES, NRVS
   Peter Pinski           : DLPNO-MP2, DLPNO-MP2 Gradient
   Christoph Reimann      : Effective Core Potentials
   Marius Retegan         : Local ZFS, SOC
   Christoph Riplinger    : Optimizer, TS searches, QM/MM, DLPNO-CCSD(T), (RO)-DLPNO pert. Triples
   Tobias Risthaus        : Range-separated hybrids, TD-DFT gradient, RPA, STAB
   Michael Roemelt        : Original ROCIS implementation
   Masaaki Saitow         : Open-shell DLPNO-CCSD energy and density
   Barbara Sandhoefer     : DKH picture change effects
   Avijit Sen             : IP-ROCIS
   Kantharuban Sivalingam : CASSCF convergence, NEVPT2, FIC-MRCI
   Bernardo de Souza      : ESD, SOC TD-DFT
   Georgi Stoychev        : AutoAux, RI-MP2 NMR, DLPNO-MP2 response
   Willem Van den Heuvel  : Paramagnetic NMR
   Boris Wezisla          : Elementary symmetry handling
   Frank Wennmohs         : Technical directorship


 We gratefully acknowledge several colleagues who have allowed us to
 interface, adapt or use parts of their codes:
   Stefan Grimme, W. Hujo, H. Kruse, P. Pracht,  : VdW corrections, initial TS optimization,
                  C. Bannwarth, S. Ehlert          DFT functionals, gCP, sTDA/sTD-DF
   Ed Valeev, F. Pavosevic, A. Kumar             : LibInt (2-el integral package), F12 methods
   Garnet Chan, S. Sharma, J. Yang, R. Olivares  : DMRG
   Ulf Ekstrom                                   : XCFun DFT Library
   Mihaly Kallay                                 : mrcc  (arbitrary order and MRCC methods)
   Jiri Pittner, Ondrej Demel                    : Mk-CCSD
   Frank Weinhold                                : gennbo (NPA and NBO analysis)
   Christopher J. Cramer and Donald G. Truhlar   : smd solvation model
   Lars Goerigk                                  : TD-DFT with DH, B97 family of functionals
   V. Asgeirsson, H. Jonsson                     : NEB implementation
   FAccTs GmbH                                   : IRC, NEB, NEB-TS, DLPNO-Multilevel, CI-OPT
                                                   MM, QMMM, 2- and 3-layer-ONIOM, Crystal-QMMM,
                                                   LR-CPCM, SF, NACMEs, symmetry and pop. for TD-DFT,
                                                   nearIR, NL-DFT gradient (VV10), updates on ESD,
                                                   ML-optimized integration grids
   S Lehtola, MJT Oliveira, MAL Marques          : LibXC Library
   Liviu Ungur et al                             : ANISO software


 Your calculation uses the libint2 library for the computation of 2-el integrals
 For citations please refer to: http://libint.valeyev.net

 Your ORCA version has been built with support for libXC version: 5.1.0
 For citations please refer to: https://tddft.org/programs/libxc/

 This ORCA versions uses:
   CBLAS   interface :  Fast vector & matrix operations
   LAPACKE interface :  Fast linear algebra routines
   SCALAPACK package :  Parallel linear algebra routines
   Shared memory     :  Shared parallel matrices
   BLAS/LAPACK       :  OpenBLAS 0.3.15  USE64BITINT DYNAMIC_ARCH NO_AFFINITY Sandybridge SINGLE_THREADED
        Core in use  :  Sandybridge
   Copyright (c) 2011-2014, The OpenBLAS Project


================================================================================

----- Orbital basis set information -----
Your calculation utilizes the basis: cc-pVDZ 
       H, B-Ne : Obtained from the ccRepo (grant-hill.group.shef.ac.uk/ccrepo) Feb. 2017
                 T. H. Dunning, Jr., J. Chem. Phys. 90, 1007 (1989)
            He : Obtained from the ccRepo (grant-hill.group.shef.ac.uk/ccrepo) Feb. 2017
                 D. E. Woon, T. H. Dunning, Jr., J. Chem. Phys. 100, 2975 (1994)
  Li-Be, Na-Mg : Obtained from the ccRepo (grant-hill.group.shef.ac.uk/ccrepo) Feb. 2017
                 B. P. Prascher, D. E. Woon, K. A. Peterson, T. H. Dunning, Jr., A. K. Wilson, Theor. Chem. Acc. 128, 69 (2011)
         Al-Ar : Obtained from the ccRepo (grant-hill.group.shef.ac.uk/ccrepo) Feb. 2017
                 D. E. Woon, T. H. Dunning, Jr., J. Chem. Phys. 98, 1358 (1993)
            Ca : Obtained from the Peterson Research Group Website (tyr0.chem.wsu.edu/~kipeters) Feb. 2017
                 J. Koput, K. A. Peterson, J. Phys. Chem. 106, 9595 (2002)
         Sc-Zn : Obtained from the ccRepo (grant-hill.group.shef.ac.uk/ccrepo) Feb. 2017
                 N. B. Balabanov, K. A. Peterson, J. Chem. Phys. 123, 064107 (2005)
                 N. B. Balabanov, K. A. Peterson, J. Chem. Phys. 125, 074110 (2006)
         Ga-Kr : Obtained from the ccRepo (grant-hill.group.shef.ac.uk/ccrepo) Feb. 2017
                 A. K. Wilson, D. E. Woon, K. A. Peterson, T. H. Dunning, Jr., J. Chem. Phys. 110, 7667 (1999)

================================================================================
                                        WARNINGS
                       Please study these warnings very carefully!
================================================================================


WARNING: No MP2 level density has been requested!
         To caclulate MP2 level properties use
         %mp2 Density relaxed end
         or
         %mp2 Density unrelaxed end

WARNING: Post HF methods need fully converged wavefunctions
  ===> : Setting SCFConvForced true
         You can overwrite this default with %scf ConvForced false 


INFO   : the flag for use of the SHARK integral package has been found!

================================================================================
                                       INPUT FILE
================================================================================
NAME = /scratch/allen/tmpyp4_amber_gaff2/2.Mdgx/conf11/conf11/Conf31.orca
|  1> ! PAL2
|  2> ! mp2 cc-pvdz TightSCF  NoKeepInts
|  3> 
|  4> %scf
|  5>   MaxCore 2000
|  6> end
|  7> %mp2
|  8>   MaxCore 2000
|  9> end
| 10> * xyz 0 1
| 11>    C       -3.15000         6.42600        -0.46000
| 12>    C        1.47400         4.04100         0.05700
| 13>    C       -2.80200         4.09300         0.04900
| 14>    C       -4.07600         4.08400         0.63900
| 15>    C       -4.83900         5.23400         0.65800
| 16>    C       -5.23100         7.59000         0.11900
| 17>    C        0.13200         4.30700         0.06100
| 18>    C       -0.56900         3.05600         0.04700
| 19>    C        1.64900         2.61800         0.02300
| 20>    C       -2.35200         5.30000        -0.50800
| 21>    N       -4.37300         6.38400         0.11700
| 22>    N        0.38800         2.06700         0.02500
| 23>    N       -2.01000         0.39500        -0.07500
| 24>    N       -0.38800        -2.07400        -0.02700
| 25>    N        2.01000        -0.40100         0.06500
| 26>    C       -1.96000         2.86100         0.02400
| 27>    C       -2.62300         1.61500        -0.01800
| 28>    C       -5.57300        -4.32900         1.06600
| 29>    C       -4.07300         1.47100         0.05600
| 30>    C       -4.10600        -2.75600        -0.02600
| 31>    C       -4.99500        -2.75700        -1.11100
| 32>    C       -6.13200        -3.54200        -1.07600
| 33>    C       -7.65100        -5.11300         0.04000
| 34>    C       -4.32400         0.14100         0.03700
| 35>    C       -3.02500        -0.52000        -0.04800
| 36>    C       -4.42200        -3.56600         1.07500
| 37>    N       -6.40700        -4.31300         0.00100
| 38>    C       -2.86700        -1.92200        -0.04000
| 39>    C       -1.65000        -2.62400        -0.02700
| 40>    C        3.56800        -6.14200        -1.04000
| 41>    C       -1.47600        -4.04900        -0.03400
| 42>    C        2.80300        -4.09900        -0.00800
| 43>    C        3.65700        -4.38400         1.06900
| 44>    C        4.42700        -5.53000         1.05900
| 45>    C        5.24500        -7.58800         0.01400
| 46>    C       -0.13400        -4.31500        -0.02200
| 47>    C        0.56800        -3.06400        -0.02700
| 48>    C        2.77500        -5.01200        -1.07400
| 49>    N        4.37600        -6.39100         0.01700
| 50>    C        1.95900        -2.86900        -0.00900
| 51>    C        2.62100        -1.62200         0.00900
| 52>    C        5.54300         4.33900        -1.13000
| 53>    C        4.07000        -1.47900        -0.09400
| 54>    C        4.10400         2.75100        -0.02100
| 55>    C        5.02700         2.72900         1.03600
| 56>    C        6.16600         3.50900         0.97800
| 57>    C        7.61900         5.15300        -0.11500
| 58>    C        4.32100        -0.14800        -0.09200
| 59>    C        3.02500         0.51400         0.01500
| 60>    C        4.38700         3.58200        -1.11500
| 61>    C        2.86600         1.91600         0.01300
| 62>    N        6.41300         4.29600        -0.09500
| 63>    H       -2.83900         7.38100        -0.86500
| 64>    H        2.27400         4.76600         0.08100
| 65>    H       -4.48200         3.18100         1.07700
| 66>    H       -5.82900         5.27400         1.09300
| 67>    H       -5.88300         7.56400        -0.75700
| 68>    H       -5.82800         7.59400         1.03100
| 69>    H       -4.59400         8.47300         0.08600
| 70>    H       -0.33200         5.28200         0.06900
| 71>    H       -1.37200         5.37500        -0.96500
| 72>    H        0.18200         1.07200         0.00500
| 73>    H       -0.18300        -1.08000        -0.02100
| 74>    H       -5.86400        -4.96200         1.89500
| 75>    H       -4.79400         2.27200         0.13900
| 76>    H       -4.80000        -2.16000        -1.99400
| 77>    H       -6.84100        -3.58200        -1.89300
| 78>    H       -8.42800        -4.53600         0.54600
| 79>    H       -7.95600        -5.33700        -0.98100
| 80>    H       -7.45600        -6.03700         0.58400
| 81>    H       -5.28700        -0.34400         0.10000
| 82>    H       -3.78000        -3.60100         1.94700
| 83>    H        3.58700        -6.86800        -1.84300
| 84>    H       -2.27600        -4.77400        -0.05000
| 85>    H        3.71400        -3.72400         1.92600
| 86>    H        5.09200        -5.79500         1.87100
| 87>    H        6.20500        -7.32900        -0.43900
| 88>    H        5.39300        -7.91700         1.04200
| 89>    H        4.75900        -8.37300        -0.56400
| 90>    H        0.32900        -5.29000        -0.00800
| 91>    H        2.14600        -4.84200        -1.94000
| 92>    H        5.80800         4.98600        -1.95600
| 93>    H        4.78800        -2.28100        -0.18500
| 94>    H        4.86000         2.11400         1.91200
| 95>    H        6.90100         3.53100         1.77200
| 96>    H        7.38300         6.10900         0.35600
| 97>    H        8.41400         4.65200         0.43500
| 98>    H        7.92100         5.31000        -1.15000
| 99>    H        5.28300         0.33600        -0.17900
|100>    H        3.72000         3.63200        -1.96700
|101> *
|102> 
|103>                          ****END OF INPUT****
================================================================================

                       ****************************
                       * Single Point Calculation *
                       ****************************

---------------------------------
CARTESIAN COORDINATES (ANGSTROEM)
---------------------------------
  C     -3.150000    6.426000   -0.460000
  C      1.474000    4.041000    0.057000
  C     -2.802000    4.093000    0.049000
  C     -4.076000    4.084000    0.639000
  C     -4.839000    5.234000    0.658000
  C     -5.231000    7.590000    0.119000
  C      0.132000    4.307000    0.061000
  C     -0.569000    3.056000    0.047000
  C      1.649000    2.618000    0.023000
  C     -2.352000    5.300000   -0.508000
  N     -4.373000    6.384000    0.117000
  N      0.388000    2.067000    0.025000
  N     -2.010000    0.395000   -0.075000
  N     -0.388000   -2.074000   -0.027000
  N      2.010000   -0.401000    0.065000
  C     -1.960000    2.861000    0.024000
  C     -2.623000    1.615000   -0.018000
  C     -5.573000   -4.329000    1.066000
  C     -4.073000    1.471000    0.056000
  C     -4.106000   -2.756000   -0.026000
  C     -4.995000   -2.757000   -1.111000
  C     -6.132000   -3.542000   -1.076000
  C     -7.651000   -5.113000    0.040000
  C     -4.324000    0.141000    0.037000
  C     -3.025000   -0.520000   -0.048000
  C     -4.422000   -3.566000    1.075000
  N     -6.407000   -4.313000    0.001000
  C     -2.867000   -1.922000   -0.040000
  C     -1.650000   -2.624000   -0.027000
  C      3.568000   -6.142000   -1.040000
  C     -1.476000   -4.049000   -0.034000
  C      2.803000   -4.099000   -0.008000
  C      3.657000   -4.384000    1.069000
  C      4.427000   -5.530000    1.059000
  C      5.245000   -7.588000    0.014000
  C     -0.134000   -4.315000   -0.022000
  C      0.568000   -3.064000   -0.027000
  C      2.775000   -5.012000   -1.074000
  N      4.376000   -6.391000    0.017000
  C      1.959000   -2.869000   -0.009000
  C      2.621000   -1.622000    0.009000
  C      5.543000    4.339000   -1.130000
  C      4.070000   -1.479000   -0.094000
  C      4.104000    2.751000   -0.021000
  C      5.027000    2.729000    1.036000
  C      6.166000    3.509000    0.978000
  C      7.619000    5.153000   -0.115000
  C      4.321000   -0.148000   -0.092000
  C      3.025000    0.514000    0.015000
  C      4.387000    3.582000   -1.115000
  C      2.866000    1.916000    0.013000
  N      6.413000    4.296000   -0.095000
  H     -2.839000    7.381000   -0.865000
  H      2.274000    4.766000    0.081000
  H     -4.482000    3.181000    1.077000
  H     -5.829000    5.274000    1.093000
  H     -5.883000    7.564000   -0.757000
  H     -5.828000    7.594000    1.031000
  H     -4.594000    8.473000    0.086000
  H     -0.332000    5.282000    0.069000
  H     -1.372000    5.375000   -0.965000
  H      0.182000    1.072000    0.005000
  H     -0.183000   -1.080000   -0.021000
  H     -5.864000   -4.962000    1.895000
  H     -4.794000    2.272000    0.139000
  H     -4.800000   -2.160000   -1.994000
  H     -6.841000   -3.582000   -1.893000
  H     -8.428000   -4.536000    0.546000
  H     -7.956000   -5.337000   -0.981000
  H     -7.456000   -6.037000    0.584000
  H     -5.287000   -0.344000    0.100000
  H     -3.780000   -3.601000    1.947000
  H      3.587000   -6.868000   -1.843000
  H     -2.276000   -4.774000   -0.050000
  H      3.714000   -3.724000    1.926000
  H      5.092000   -5.795000    1.871000
  H      6.205000   -7.329000   -0.439000
  H      5.393000   -7.917000    1.042000
  H      4.759000   -8.373000   -0.564000
  H      0.329000   -5.290000   -0.008000
  H      2.146000   -4.842000   -1.940000
  H      5.808000    4.986000   -1.956000
  H      4.788000   -2.281000   -0.185000
  H      4.860000    2.114000    1.912000
  H      6.901000    3.531000    1.772000
  H      7.383000    6.109000    0.356000
  H      8.414000    4.652000    0.435000
  H      7.921000    5.310000   -1.150000
  H      5.283000    0.336000   -0.179000
  H      3.720000    3.632000   -1.967000

----------------------------
CARTESIAN COORDINATES (A.U.)
----------------------------
  NO LB      ZA    FRAG     MASS         X           Y           Z
   0 C     6.0000    0    12.011   -5.952637   12.143380   -0.869274
   1 C     6.0000    0    12.011    2.785456    7.636383    0.107714
   2 C     6.0000    0    12.011   -5.295013    7.734649    0.092597
   3 C     6.0000    0    12.011   -7.702524    7.717642    1.207535
   4 C     6.0000    0    12.011   -9.144385    9.890827    1.243440
   5 C     6.0000    0    12.011   -9.885157   14.343021    0.224877
   6 C     6.0000    0    12.011    0.249444    8.139050    0.115273
   7 C     6.0000    0    12.011   -1.075254    5.775003    0.088817
   8 C     6.0000    0    12.011    3.116158    4.947303    0.043464
   9 C     6.0000    0    12.011   -4.444636   10.015549   -0.959981
  10 N     7.0000    0    14.007   -8.263772   12.064012    0.221098
  11 N     7.0000    0    14.007    0.733214    3.906064    0.047243
  12 N     7.0000    0    14.007   -3.798350    0.746442   -0.141729
  13 N     7.0000    0    14.007   -0.733214   -3.919292   -0.051023
  14 N     7.0000    0    14.007    3.798350   -0.757780    0.122832
  15 C     6.0000    0    12.011   -3.703863    5.406506    0.045353
  16 C     6.0000    0    12.011   -4.956752    3.051908   -0.034015
  17 C     6.0000    0    12.011  -10.531444   -8.180624    2.014448
  18 C     6.0000    0    12.011   -7.696855    2.779787    0.105825
  19 C     6.0000    0    12.011   -7.759216   -5.208085   -0.049133
  20 C     6.0000    0    12.011   -9.439182   -5.209975   -2.099486
  21 C     6.0000    0    12.011  -11.587801   -6.693410   -2.033345
  22 C     6.0000    0    12.011  -14.458295   -9.662170    0.075589
  23 C     6.0000    0    12.011   -8.171176    0.266451    0.069920
  24 C     6.0000    0    12.011   -5.716422   -0.982658   -0.090707
  25 C     6.0000    0    12.011   -8.356369   -6.738763    2.031456
  26 N     7.0000    0    14.007  -12.107475   -8.150389    0.001890
  27 C     6.0000    0    12.011   -5.417845   -3.632054   -0.075589
  28 C     6.0000    0    12.011   -3.118048   -4.958641   -0.051023
  29 C     6.0000    0    12.011    6.742543  -11.606698   -1.965315
  30 C     6.0000    0    12.011   -2.789236   -7.651501   -0.064251
  31 C     6.0000    0    12.011    5.296902   -7.745987   -0.015118
  32 C     6.0000    0    12.011    6.910728   -8.284559    2.020117
  33 C     6.0000    0    12.011    8.365818  -10.450186    2.001220
  34 C     6.0000    0    12.011    9.911614  -14.339242    0.026456
  35 C     6.0000    0    12.011   -0.253223   -8.154168   -0.041574
  36 C     6.0000    0    12.011    1.073364   -5.790121   -0.051023
  37 C     6.0000    0    12.011    5.243990   -9.471307   -2.029566
  38 N     7.0000    0    14.007    8.269442  -12.077240    0.032125
  39 C     6.0000    0    12.011    3.701973   -5.421624   -0.017008
  40 C     6.0000    0    12.011    4.952972   -3.065136    0.017008
  41 C     6.0000    0    12.011   10.474752    8.199522   -2.135391
  42 C     6.0000    0    12.011    7.691185   -2.794905   -0.177634
  43 C     6.0000    0    12.011    7.755436    5.198637   -0.039684
  44 C     6.0000    0    12.011    9.499653    5.157063    1.957756
  45 C     6.0000    0    12.011   11.652051    6.631049    1.848152
  46 C     6.0000    0    12.011   14.397823    9.737759   -0.217319
  47 C     6.0000    0    12.011    8.165507   -0.279679   -0.173855
  48 C     6.0000    0    12.011    5.716422    0.971319    0.028346
  49 C     6.0000    0    12.011    8.290229    6.768999   -2.107045
  50 C     6.0000    0    12.011    5.415955    3.620715    0.024566
  51 N     7.0000    0    14.007   12.118814    8.118263   -0.179524
  52 H     1.0000    0     1.008   -5.364932   13.948069   -1.634613
  53 H     1.0000    0     1.008    4.297237    9.006435    0.153068
  54 H     1.0000    0     1.008   -8.469753    6.011219    2.035235
  55 H     1.0000    0     1.008  -11.015214    9.966416    2.065471
  56 H     1.0000    0     1.008  -11.117259   14.293888   -1.430523
  57 H     1.0000    0     1.008  -11.013324   14.350580    1.948308
  58 H     1.0000    0     1.008   -8.681402   16.011650    0.162516
  59 H     1.0000    0     1.008   -0.627389    9.981533    0.130391
  60 H     1.0000    0     1.008   -2.592704   10.157278   -1.823586
  61 H     1.0000    0     1.008    0.343930    2.025786    0.009449
  62 H     1.0000    0     1.008   -0.345820   -2.040904   -0.039684
  63 H     1.0000    0     1.008  -11.081354   -9.376821    3.581031
  64 H     1.0000    0     1.008   -9.059347    4.293458    0.262672
  65 H     1.0000    0     1.008   -9.070685   -4.081808   -3.768114
  66 H     1.0000    0     1.008  -12.927616   -6.768999   -3.577252
  67 H     1.0000    0     1.008  -15.926612   -8.571798    1.031790
  68 H     1.0000    0     1.008  -15.034661  -10.085468   -1.853821
  69 H     1.0000    0     1.008  -14.089798  -11.408277    1.103600
  70 H     1.0000    0     1.008   -9.990982   -0.650066    0.188973
  71 H     1.0000    0     1.008   -7.143165   -6.804904    3.679297
  72 H     1.0000    0     1.008    6.778448  -12.978639   -3.482765
  73 H     1.0000    0     1.008   -4.301017   -9.021553   -0.094486
  74 H     1.0000    0     1.008    7.018443   -7.037340    3.639613
  75 H     1.0000    0     1.008    9.622485  -10.950963    3.535678
  76 H     1.0000    0     1.008   11.725751  -13.849803   -0.829590
  77 H     1.0000    0     1.008   10.191293  -14.960962    1.969095
  78 H     1.0000    0     1.008    8.993207  -15.822677   -1.065806
  79 H     1.0000    0     1.008    0.621720   -9.996651   -0.015118
  80 H     1.0000    0     1.008    4.055352   -9.150054   -3.666069
  81 H     1.0000    0     1.008   10.975529    9.422175   -3.696304
  82 H     1.0000    0     1.008    9.048009   -4.310465   -0.349599
  83 H     1.0000    0     1.008    9.184069    3.994881    3.613156
  84 H     1.0000    0     1.008   13.041000    6.672623    3.348595
  85 H     1.0000    0     1.008   13.951848   11.544337    0.672743
  86 H     1.0000    0     1.008   15.900156    8.791006    0.822031
  87 H     1.0000    0     1.008   14.968521   10.034446   -2.173185
  88 H     1.0000    0     1.008    9.983423    0.634948   -0.338261
  89 H     1.0000    0     1.008    7.029781    6.863485   -3.717091

--------------------------------
INTERNAL COORDINATES (ANGSTROEM)
--------------------------------
 C      0   0   0     0.000000000000     0.00000000     0.00000000
 C      1   0   0     5.228469183231     0.00000000     0.00000000
 C      1   2   0     2.413104639256    53.88475649     0.00000000
 C      3   1   2     1.404014601064    87.93562394   155.87309875
 C      4   3   1     1.380228241995   120.13637226     0.11859205
 C      5   4   3     2.448452776755   152.52459601     1.69074373
 C      2   1   3     1.368114030335    17.07746301   351.46754272
 C      7   2   1     1.434084376876   108.05010202   159.09987666
 C      2   1   3     1.434123425651   123.93087840    16.43035157
 C      1   2   3     1.380935914516    28.40960540   334.15407548
 N      1   2   3     1.352930892544   137.99814475    37.71629777
 N      9   2   1     1.376127174356   106.58526707   351.74032667
 N     12   9   2     2.925062050624   168.53581413   171.12065651
 N     13  12   9     2.954513327098    91.55032014    11.12112580
 N     14  13  12     2.925371258490    88.43092389   359.84326247
 C      8   7   2     1.404790019896   127.24786865   181.11170171
 C     13  12   9     1.366535034311    81.72106996   188.00453233
 C     14  13  12     5.758810554272    80.56209567   166.76250791
 C     17  13  12     1.459010623676   111.08861209   183.82872609
 C     18  14  13     2.412235892279    27.27532823    36.33507194
 C     20  18  14     1.402692767501    87.95206320   148.94598259
 C     21  20  18     1.382106725257   120.14573887   359.70382047
 C     18  14  13     2.446510985056   144.15733107    82.80075377
 C     19  17  13     1.353610726908   106.29293361   359.75308708
 C     13  12   9     1.366813447402   172.21332906    33.46711076
 C     18  14  13     1.380960173213    15.08449437   309.23336894
 N     22  21  20     1.352773077792   120.73759875     0.27865223
 C     25  13  17     1.410897586645   125.60330303   182.37774668
 C     14  13  12     1.376642291955    80.24689249   177.85461986
 C     14  13  12     5.764089607215   164.51507311   312.20821879
 C     29  14  13     1.435600919476   106.58649366   178.76395472
 C     30  14  13     2.413316804732    27.10625047    82.12560436
 C     32  30  14     1.403734305344    87.90059683   149.76154742
 C     33  32  30     1.380694028378   120.14881443   359.74174632
 C     34  33  32     2.448777858443   152.49203239     2.45173620
 C     31  29  14     1.368160809262   108.16950133     0.70383075
 C     14  13  12     1.376239804685   169.26375223   353.09862627
 C     30  14  13     1.380907310430    14.68948582   353.70041132
 N     34  33  32     1.352658863128   120.85575621     0.19603406
 C     37  14  29     1.404717053360   126.01551127   180.90772073
 C     15  14  13     1.366491126938    81.61824056   183.09049352
 C      2   1   3     4.249062720177   141.93355450   155.34173735
 C     41  15  14     1.459677704153   111.05201287   175.08990246
 C     42   2   1     2.412953791518    41.78584867   189.45565391
 C     44  42   2     1.403446472082    87.95153797   233.97558675
 C     45  44  42     1.381696421071   120.11137308     0.19721020
 C     42   2   1     2.450019795838   135.97209175    99.77050301
 C     43  41  15     1.354461516618   106.26758155     0.30894352
 C     15  14  13     1.367461151185   171.87382904   332.35056460
 C     42   2   1     1.381886391857    32.59078432   238.31093310
 C      9   2   1     1.404988612053   126.98745415   172.74466420
 N     42   2   1     1.352765315936   113.57249190   127.50709221
 H      1   2   3     1.082945520329   100.67656519   190.38162558
 H      2   1   3     1.079907866440   110.55547084   190.17814918
 H      4   3   1     1.082630592585   121.04038228   179.54863054
 H      5   4   3     1.082092879563   122.82623461   179.45332025
 H      6   5   4     1.092316803862   104.43039993   100.05374387
 H      6   5   4     1.090031650917    84.66565435   209.49777715
 H      6   5   4     1.089287381732   133.87259740   322.30461127
 H      7   2   1     1.079807853278   126.66122480   339.33829044
 H     10   1   2     1.083916048410   118.73136142   316.68244040
 H     12   9   2     1.016297692608   125.29023241   180.00180175
 H     14  13  12     1.014936943854    44.97226959   359.42596618
 H     18  14  13     1.082871645210   128.03556573   234.20482432
 H     19  17  13     1.080893611786   126.41830519   178.11313280
 H     21  20  18     1.083569563987   121.05669627   180.67006309
 H     22  21  20     1.082483256222   122.73097286   180.59748951
 H     23  18  14     1.092105306278   103.92715769   234.93429879
 H     23  18  14     1.088871893291   134.19244188    12.25587044
 H     23  18  14     1.089833473518    84.85857450   125.45241208
 H     24  19  17     1.080075460327   127.28078426   178.44613241
 H     26  18  14     1.083408048706   118.76995697   244.94906660
 H     30  14  13     1.082703098730   127.99711412   279.66882698
 H     31  29  14     1.079759695488   125.22293469   180.92530585
 H     33  32  30     1.083188810873   121.01964473   180.74284758
 H     34  33  32     1.082494341787   122.70821597   180.59516895
 H     35  34  33     1.092652735319   105.73575241    97.19771933
 H     35  34  33     1.089462711615    84.05943581   206.43036958
 H     35  34  33     1.089268102902   133.08365142   318.50306270
 H     36  31  29     1.079439669458   126.61599965   178.98859863
 H     38  30  73     1.083742127999   118.77264435   359.90091293
 H     42   2   1     1.082178358682   119.31790784   344.13862266
 H     43  41  15     1.080281907652   126.36969097   182.06329380
 H     45  44  42     1.083277434455   121.10105945   179.58025624
 H     46  45  44     1.082194529648   122.72144639   179.46906377
 H     47  42   2     1.091546151109   106.65128841   315.16475048
 H     47  42   2     1.088818625851   132.46019523    94.52397119
 H     47  42   2     1.089531091801    83.63838232   206.04504406
 H     48  43  41     1.080402239909   127.23657387   181.62955349
 H     50  42   2     1.083186502870   118.77001737    94.71359229

---------------------------
INTERNAL COORDINATES (A.U.)
---------------------------
 C      0   0   0     0.000000000000     0.00000000     0.00000000
 C      1   0   0     9.880374855954     0.00000000     0.00000000
 C      1   2   0     4.560106900689    53.88475649     0.00000000
 C      3   1   2     2.653203084037    87.93562394   155.87309875
 C      4   3   1     2.608253379674   120.13637226     0.11859205
 C      5   4   3     4.626905199906   152.52459601     1.69074373
 C      2   1   3     2.585360837309    17.07746301   351.46754272
 C      7   2   1     2.710026725231   108.05010202   159.09987666
 C      2   1   3     2.710100516721   123.93087840    16.43035157
 C      1   2   3     2.609590686931    28.40960540   334.15407548
 N      1   2   3     2.556668865030   137.99814475    37.71629777
 N      9   2   1     2.600503484979   106.58526707   351.74032667
 N     12   9   2     5.527566200405   168.53581413   171.12065651
 N     13  12   9     5.583221047236    91.55032014    11.12112580
 N     14  13  12     5.528150518591    88.43092389   359.84326247
 C      8   7   2     2.654668413270   127.24786865   181.11170171
 C     13  12   9     2.582376967257    81.72106996   188.00453233
 C     14  13  12    10.882574804710    80.56209567   166.76250791
 C     17  13  12     2.757130505230   111.08861209   183.82872609
 C     18  14  13     4.558465206823    27.27532823    36.33507194
 C     20  18  14     2.650705180609    87.95206320   148.94598259
 C     21  20  18     2.611803198586   120.14573887   359.70382047
 C     18  14  13     4.623235745386   144.15733107    82.80075377
 C     19  17  13     2.557953565794   106.29293361   359.75308708
 C     13  12   9     2.582903091751   172.21332906    33.46711076
 C     18  14  13     2.609636529225    15.08449437   309.23336894
 N     22  21  20     2.556370638369   120.73759875     0.27865223
 C     25  13  17     2.666210041769   125.60330303   182.37774668
 C     14  13  12     2.601476916169    80.24689249   177.85461986
 C     14  13  12    10.892550769017   164.51507311   312.20821879
 C     29  14  13     2.712892575415   106.58649366   178.76395472
 C     30  14  13     4.560507835333    27.10625047    82.12560436
 C     32  30  14     2.652673401891    87.90059683   149.76154742
 C     33  32  30     2.609133588376   120.14881443   359.74174632
 C     34  33  32     4.627519515267   152.49203239     2.45173620
 C     31  29  14     2.585449236669   108.16950133     0.70383075
 C     14  13  12     2.600716325456   169.26375223   353.09862627
 C     30  14  13     2.609536633043    14.68948582   353.70041132
 N     34  33  32     2.556154803934   120.85575621     0.19603406
 C     37  14  29     2.654530526499   126.01551127   180.90772073
 C     15  14  13     2.582293994346    81.61824056   183.09049352
 C      2   1   3     8.029564866989   141.93355450   155.34173735
 C     41  15  14     2.758391104639   111.05201287   175.08990246
 C     42   2   1     4.559821839776    41.78584867   189.45565391
 C     44  42   2     2.652129475853    87.95153797   233.97558675
 C     45  44  42     2.611027836043   120.11137308     0.19721020
 C     42   2   1     4.629866436820   135.97209175    99.77050301
 C     43  41  15     2.559561325344   106.26758155     0.30894352
 C     15  14  13     2.584127074516   171.87382904   332.35056460
 C     42   2   1     2.611386828803    32.59078432   238.31093310
 C      9   2   1     2.655043698059   126.98745415   172.74466420
 N     42   2   1     2.556355970587   113.57249190   127.50709221
 H      1   2   3     2.046470451378   100.67656519   190.38162558
 H      2   1   3     2.040730117440   110.55547084   190.17814918
 H      4   3   1     2.045875324190   121.04038228   179.54863054
 H      5   4   3     2.044859193839   122.82623461   179.45332025
 H      6   5   4     2.064179610780   104.43039993   100.05374387
 H      6   5   4     2.059861297538    84.66565435   209.49777715
 H      6   5   4     2.058454832609   133.87259740   322.30461127
 H      7   2   1     2.040541119952   126.66122480   339.33829044
 H     10   1   2     2.048304483656   118.73136142   316.68244040
 H     12   9   2     1.920524309565   125.29023241   180.00180175
 H     14  13  12     1.917952867083    44.97226959   359.42596618
 H     18  14  13     2.046330847636   128.03556573   234.20482432
 H     19  17  13     2.042592906181   126.41830519   178.11313280
 H     21  20  18     2.047649722989   121.05669627   180.67006309
 H     22  21  20     2.045596898814   122.73097286   180.59748951
 H     23  18  14     2.063779938267   103.92715769   234.93429879
 H     23  18  14     2.057669673245   134.19244188    12.25587044
 H     23  18  14     2.059486796529    84.85857450   125.45241208
 H     24  19  17     2.041046823986   127.28078426   178.44613241
 H     26  18  14     2.047344503340   118.76995697   244.94906660
 H     30  14  13     2.046012340948   127.99711412   279.66882698
 H     31  29  14     2.040450114918   125.22293469   180.92530585
 H     33  32  30     2.046930203877   121.01964473   180.74284758
 H     34  33  32     2.045617847496   122.70821597   180.59516895
 H     35  34  33     2.064814429233   105.73575241    97.19771933
 H     35  34  33     2.058786158072    84.05943581   206.43036958
 H     35  34  33     2.058418400901   133.08365142   318.50306270
 H     36  31  29     2.039845353366   126.61599965   178.98859863
 H     38  30  73     2.047975821711   118.77264435   359.90091293
 H     42   2   1     2.045020725966   119.31790784   344.13862266
 H     43  41  15     2.041436952892   126.36969097   182.06329380
 H     45  44  42     2.047097678177   121.10105945   179.58025624
 H     46  45  44     2.045051284662   122.72144639   179.46906377
 H     47  42   2     2.062723288131   106.65128841   315.16475048
 H     47  42   2     2.057569012371   132.46019523    94.52397119
 H     47  42   2     2.058915377895    83.63838232   206.04504406
 H     48  43  41     2.041664347903   127.23657387   181.62955349
 H     50  42   2     2.046925842384   118.77001737    94.71359229

---------------------
BASIS SET INFORMATION
---------------------
There are 3 groups of distinct atoms

 Group   1 Type C   : 17s4p1d contracted to 3s2p1d pattern {881/31/1}
 Group   2 Type N   : 17s4p1d contracted to 3s2p1d pattern {881/31/1}
 Group   3 Type H   : 4s1p contracted to 2s1p pattern {31/1}

Atom   0C    basis set group =>   1
Atom   1N    basis set group =>   2
Atom   2C    basis set group =>   1
Atom   3N    basis set group =>   2
Atom   4C    basis set group =>   1
Atom   5N    basis set group =>   2
Atom   6C    basis set group =>   1
Atom   7N    basis set group =>   2
Atom   8C    basis set group =>   1
Atom   9N    basis set group =>   2
Atom  10C    basis set group =>   1
Atom  11N    basis set group =>   2
Atom  12C    basis set group =>   1
Atom  13N    basis set group =>   2
Atom  14C    basis set group =>   1
Atom  15N    basis set group =>   2
Atom  16C    basis set group =>   1
Atom  17C    basis set group =>   1
Atom  18C    basis set group =>   1
Atom  19C    basis set group =>   1
Atom  20C    basis set group =>   1
Atom  21C    basis set group =>   1
Atom  22C    basis set group =>   1
Atom  23C    basis set group =>   1
Atom  24C    basis set group =>   1
Atom  25C    basis set group =>   1
Atom  26C    basis set group =>   1
Atom  27C    basis set group =>   1
Atom  28C    basis set group =>   1
Atom  29C    basis set group =>   1
Atom  30C    basis set group =>   1
Atom  31C    basis set group =>   1
Atom  32C    basis set group =>   1
Atom  33C    basis set group =>   1
Atom  34C    basis set group =>   1
Atom  35C    basis set group =>   1
Atom  36C    basis set group =>   1
Atom  37C    basis set group =>   1
Atom  38C    basis set group =>   1
Atom  39C    basis set group =>   1
Atom  40C    basis set group =>   1
Atom  41C    basis set group =>   1
Atom  42C    basis set group =>   1
Atom  43C    basis set group =>   1
Atom  44C    basis set group =>   1
Atom  45C    basis set group =>   1
Atom  46C    basis set group =>   1
Atom  47C    basis set group =>   1
Atom  48C    basis set group =>   1
Atom  49C    basis set group =>   1
Atom  50C    basis set group =>   1
Atom  51C    basis set group =>   1
Atom  52H    basis set group =>   3
Atom  53H    basis set group =>   3
Atom  54H    basis set group =>   3
Atom  55H    basis set group =>   3
Atom  56H    basis set group =>   3
Atom  57H    basis set group =>   3
Atom  58H    basis set group =>   3
Atom  59H    basis set group =>   3
Atom  60H    basis set group =>   3
Atom  61H    basis set group =>   3
Atom  62H    basis set group =>   3
Atom  63H    basis set group =>   3
Atom  64H    basis set group =>   3
Atom  65H    basis set group =>   3
Atom  66H    basis set group =>   3
Atom  67H    basis set group =>   3
Atom  68H    basis set group =>   3
Atom  69H    basis set group =>   3
Atom  70H    basis set group =>   3
Atom  71H    basis set group =>   3
Atom  72H    basis set group =>   3
Atom  73H    basis set group =>   3
Atom  74H    basis set group =>   3
Atom  75H    basis set group =>   3
Atom  76H    basis set group =>   3
Atom  77H    basis set group =>   3
Atom  78H    basis set group =>   3
Atom  79H    basis set group =>   3
Atom  80H    basis set group =>   3
Atom  81H    basis set group =>   3
Atom  82H    basis set group =>   3
Atom  83H    basis set group =>   3
Atom  84H    basis set group =>   3
Atom  85H    basis set group =>   3
Atom  86H    basis set group =>   3
Atom  87H    basis set group =>   3
Atom  88H    basis set group =>   3
Atom  89H    basis set group =>   3


           ************************************************************
           *        Program running with 16 parallel MPI-processes    *
           *              working on a common directory               *
           ************************************************************
------------------------------------------------------------------------------
                           ORCA GTO INTEGRAL CALCULATION
------------------------------------------------------------------------------
------------------------------------------------------------------------------
                   ___                                                        
                  /   \      - P O W E R E D   B Y -                         
                 /     \                                                     
                 |  |  |   _    _      __       _____    __    __             
                 |  |  |  | |  | |    /  \     |  _  \  |  |  /  |          
                  \  \/   | |  | |   /    \    | | | |  |  | /  /          
                 / \  \   | |__| |  /  /\  \   | |_| |  |  |/  /          
                |  |  |   |  __  | /  /__\  \  |    /   |      \           
                |  |  |   | |  | | |   __   |  |    \   |  |\   \          
                \     /   | |  | | |  |  |  |  | |\  \  |  | \   \       
                 \___/    |_|  |_| |__|  |__|  |_| \__\ |__|  \__/        
                                                                              
                      - O R C A' S   B I G   F R I E N D -                    
                                      &                                       
                       - I N T E G R A L  F E E D E R -                       
                                                                              
 v1 FN, 2020, v2 2021                                                         
------------------------------------------------------------------------------


Reading SHARK input file /scratch/allen/tmpyp4_amber_gaff2/conf1/conf1/Conf31.orca.SHARKINP.tmp ... ok
----------------------
SHARK INTEGRAL PACKAGE
----------------------

Number of atoms                             ...     90
Number of basis functions                   ...   1230
Number of shells                            ...    738
Maximum angular momentum                    ...      2
Integral batch strategy                     ... SHARK/LIBINT Hybrid
RI-J (if used) integral strategy            ... SPLIT-RIJ (Revised 2003 algorithm where possible)
Printlevel                                  ...      1
Contraction scheme used                     ... PARTIAL GENERAL contraction
Coulomb Range Separation                    ... NOT USED
Exchange Range Separation                   ... NOT USED
Finite Nucleus Model                        ... NOT USED
Auxiliary Coulomb fitting basis             ... NOT available
Auxiliary J/K fitting basis                 ... NOT available
Auxiliary Correlation fitting basis         ... NOT available
Auxiliary 'external' fitting basis          ... NOT available
Integral threshold                          ...     2.500000e-11
Primitive cut-off                           ...     2.500000e-12
Primitive pair pre-selection threshold      ...     2.500000e-12

Calculating pre-screening integrals         ... done (  0.1 sec) Dimension = 738
Calculating pre-screening integrals (ORCA)  ... done (  0.3 sec) Dimension = 426
Organizing shell pair data                  ... done (  0.5 sec)
Shell pair information
Total number of shell pairs                 ...    272691
Shell pairs after pre-screening             ...     71674
Total number of primitive shell pairs       ...    422091
Primitive shell pairs kept                  ...     92540
          la=0 lb=0:  29427 shell pairs
          la=1 lb=0:  26009 shell pairs
          la=1 lb=1:   4704 shell pairs
          la=2 lb=0:   7883 shell pairs
          la=2 lb=1:   3122 shell pairs
          la=2 lb=2:    529 shell pairs

Calculating one electron integrals          ... done (  0.2 sec)
Calculating Nuclear repulsion               ... done (  0.0 sec) ENN=   6231.818576264638 Eh

SHARK setup successfully completed in   1.8 seconds

Maximum memory used throughout the entire GTOINT-calculation: 99.0 MB


           ************************************************************
           *        Program running with 16 parallel MPI-processes    *
           *              working on a common directory               *
           ************************************************************
-------------------------------------------------------------------------------
                                 ORCA SCF
-------------------------------------------------------------------------------

------------
SCF SETTINGS
------------
Hamiltonian:
 Ab initio Hamiltonian  Method          .... Hartree-Fock(GTOs)


General Settings:
 Integral files         IntName         .... /scratch/allen/tmpyp4_amber_gaff2/conf1/conf1/Conf31.orca
 Hartree-Fock type      HFTyp           .... RHF
 Total Charge           Charge          ....    0
 Multiplicity           Mult            ....    1
 Number of Electrons    NEL             ....  358
 Basis Dimension        Dim             ....  918
 Nuclear Repulsion      ENuc            ....   6231.8185762646 Eh

Convergence Acceleration:
 DIIS                   CNVDIIS         .... on
   Start iteration      DIISMaxIt       ....    12
   Startup error        DIISStart       ....  0.200000
   # of expansion vecs  DIISMaxEq       ....     5
   Bias factor          DIISBfac        ....   1.050
   Max. coefficient     DIISMaxC        ....  10.000
 Trust-Rad. Augm. Hess. CNVTRAH         .... auto
   Auto Start mean grad. ratio tolernc. ....  1.125000
   Auto Start start iteration           ....    20
   Auto Start num. interpolation iter.  ....    10
   Max. Number of Micro iterations      ....    16
   Max. Number of Macro iterations      .... Maxiter - #DIIS iter
   Number of Davidson start vectors     ....     2
   Converg. threshold I  (grad. norm)   ....   1.000e-05
   Converg. threshold II (energy diff.) ....   1.000e-08
   Grad. Scal. Fac. for Micro threshold ....   0.100
   Minimum threshold for Micro iter.    ....   0.010
   NR start threshold (gradient norm)   ....   0.001
   Initial trust radius                 ....   0.400
   Minimum AH scaling param. (alpha)    ....   1.000
   Maximum AH scaling param. (alpha)    .... 1000.000
   Orbital update algorithm             .... Taylor
   White noise on init. David. guess    .... on
   Maximum white noise                  ....   0.010
   Quad. conv. algorithm                .... NR
 SOSCF                  CNVSOSCF        .... on
   Start iteration      SOSCFMaxIt      ....   150
   Startup grad/error   SOSCFStart      ....  0.003300
 Level Shifting         CNVShift        .... on
   Level shift para.    LevelShift      ....    0.2500
   Turn off err/grad.   ShiftErr        ....    0.0010
 Zerner damping         CNVZerner       .... off
 Static damping         CNVDamp         .... on
   Fraction old density DampFac         ....    0.7000
   Max. Damping (<1)    DampMax         ....    0.9800
   Min. Damping (>=0)   DampMin         ....    0.0000
   Turn off err/grad.   DampErr         ....    0.1000
 Fernandez-Rico         CNVRico         .... off

SCF Procedure:
 Maximum # iterations   MaxIter         ....   125
 SCF integral mode      SCFMode         .... Direct
   Integral package                     .... SHARK and LIBINT hybrid scheme
 Reset frequency        DirectResetFreq ....    20
 Integral Threshold     Thresh          ....  2.500e-11 Eh
 Primitive CutOff       TCut            ....  2.500e-12 Eh

Convergence Tolerance:
 Convergence Check Mode ConvCheckMode   .... Total+1el-Energy
 Convergence forced     ConvForced      .... 1
 Energy Change          TolE            ....  1.000e-08 Eh
 1-El. energy change                    ....  1.000e-05 Eh
 Orbital Gradient       TolG            ....  1.000e-05
 Orbital Rotation angle TolX            ....  1.000e-05
 DIIS Error             TolErr          ....  5.000e-07


Diagonalization of the overlap matrix:
Smallest eigenvalue                        ... 2.173e-04
Time for diagonalization                   ...    0.393 sec
Threshold for overlap eigenvalues          ... 1.000e-08
Number of eigenvalues below threshold      ... 0
Time for construction of square roots      ...    0.188 sec
Total time needed                          ...    0.587 sec

Time for model grid setup =    1.012 sec

------------------------------
INITIAL GUESS: MODEL POTENTIAL
------------------------------
Loading Hartree-Fock densities                     ... done
Calculating cut-offs                               ... done
Initializing the effective Hamiltonian             ... done
Setting up the integral package (SHARK)            ... done
Starting the Coulomb interaction                   ... done (   1.1 sec)
Reading the grid                                   ... done
Mapping shells                                     ... done
Starting the XC term evaluation                    ... done (   0.2 sec)
Transforming the Hamiltonian                       ... done (   0.2 sec)
Diagonalizing the Hamiltonian                      ... done (   0.3 sec)
Back transforming the eigenvectors                 ... done (   0.1 sec)
Now organizing SCF variables                       ... done
                      ------------------
                      INITIAL GUESS DONE (   2.9 sec)
                      ------------------
--------------
SCF ITERATIONS
--------------
ITER       Energy         Delta-E        Max-DP      RMS-DP      [F,P]     Damp
               ***  Starting incremental Fock matrix formation  ***
  0  -2121.6761109640   0.000000000000 0.07341554  0.00122419  0.2319554 0.7000
  1  -2122.3284598110  -0.652348847012 0.05550911  0.00099619  0.1437392 0.7000
                               ***Turning on DIIS***
  2  -2122.7342868889  -0.405827077966 0.12987746  0.00225984  0.0802483 0.0000
  3  -2117.9491210164   4.785165872576 0.04251344  0.00067877  0.0437975 0.0000
  4  -2123.4125638589  -5.463442842547 0.01285037  0.00022643  0.0084038 0.0000
  5  -2123.5665040172  -0.153940158252 0.00619666  0.00013279  0.0049391 0.0000
  6  -2123.5506358628   0.015868154407 0.00372887  0.00008531  0.0020594 0.0000
  7  -2123.6472800569  -0.096644194184 0.00304152  0.00006725  0.0015775 0.0000
  8  -2123.6576537872  -0.010373730265 0.00322128  0.00006371  0.0014725 0.0000
  9  -2123.6278530342   0.029800753007 0.00257258  0.00004464  0.0011789 0.0000
 10  -2123.6370733032  -0.009220268988 0.00515882  0.00009277  0.0009140 0.0000
                      *** Initiating the SOSCF procedure ***
                           *** Shutting down DIIS ***
                      *** Re-Reading the Fockian *** 
                      *** Removing any level shift *** 
ITER      Energy       Delta-E        Grad      Rot      Max-DP    RMS-DP
 11  -2123.52801075   0.1090625498  0.000186  0.000186  0.000238  0.000005
               *** Restarting incremental Fock matrix formation ***
 12  -2123.59445779  -0.0664470336  0.000876  0.005994  0.001363  0.000034
 13  -2123.59456186  -0.0001040741  0.001087  0.030167  0.006306  0.000134
 14  -2123.59474112  -0.0001792625  0.000343  0.001942  0.000669  0.000012
 15  -2123.59475684  -0.0000157153  0.000182  0.002751  0.000707  0.000017
 16  -2123.59476623  -0.0000093865  0.000154  0.002741  0.000447  0.000010
 17  -2123.59476933  -0.0000031043  0.000143  0.001897  0.000330  0.000007
 18  -2123.59477105  -0.0000017209  0.000072  0.000994  0.000289  0.000005
 19  -2123.59477189  -0.0000008357  0.000045  0.000966  0.000192  0.000004
 20  -2123.59477223  -0.0000003406  0.000027  0.000675  0.000110  0.000003
 21  -2123.59477242  -0.0000001935  0.000025  0.000823  0.000142  0.000003
 22  -2123.59477258  -0.0000001603  0.000021  0.000715  0.000121  0.000002
 23  -2123.59477267  -0.0000000940  0.000014  0.000471  0.000080  0.000002
 24  -2123.59477273  -0.0000000507  0.000009  0.000340  0.000050  0.000001
 25  -2123.59477276  -0.0000000323  0.000009  0.000197  0.000037  0.000001
 26  -2123.59477277  -0.0000000162  0.000007  0.000161  0.000033  0.000001
 27  -2123.59477278  -0.0000000074  0.000004  0.000114  0.000024  0.000000
                  ***Gradient check signals convergence***
              ***Rediagonalizing the Fockian in SOSCF/NRSCF***

               *****************************************************
               *                     SUCCESS                       *
               *           SCF CONVERGED AFTER  28 CYCLES          *
               *****************************************************


----------------
TOTAL SCF ENERGY
----------------

Total Energy       :        -2123.59477278 Eh          -57785.95155 eV

Components:
Nuclear Repulsion  :         6231.81857626 Eh          169576.40456 eV
Electronic Energy  :        -8355.41334905 Eh         -227362.35611 eV
One Electron Energy:       -15304.37489549 Eh         -416453.21298 eV
Two Electron Energy:         6948.96154645 Eh          189090.85687 eV

Virial components:
Potential Energy   :        -4245.82471001 Eh         -115534.76403 eV
Kinetic Energy     :         2122.22993723 Eh           57748.81248 eV
Virial Ratio       :            2.00064311


---------------
SCF CONVERGENCE
---------------

  Last Energy change         ...    6.9849e-10  Tolerance :   1.0000e-08
  Last MAX-Density change    ...    1.2367e-05  Tolerance :   1.0000e-07
  Last RMS-Density change    ...    2.5499e-07  Tolerance :   5.0000e-09
  Last Orbital Gradient      ...    2.3162e-06  Tolerance :   1.0000e-05
  Last Orbital Rotation      ...    6.3890e-05  Tolerance :   1.0000e-05

             **** THE GBW FILE WAS UPDATED (/scratch/allen/tmpyp4_amber_gaff2/conf1/conf1/Conf31.orca.gbw) ****
             **** DENSITY /scratch/allen/tmpyp4_amber_gaff2/conf1/conf1/Conf31.orca.scfp WAS UPDATED ****
             **** ENERGY FILE WAS UPDATED (/scratch/allen/tmpyp4_amber_gaff2/conf1/conf1/Conf31.orca.en.tmp) ****
             **** THE GBW FILE WAS UPDATED (/scratch/allen/tmpyp4_amber_gaff2/conf1/conf1/Conf31.orca.gbw) ****
             **** DENSITY /scratch/allen/tmpyp4_amber_gaff2/conf1/conf1/Conf31.orca.scfp WAS UPDATED ****
----------------
ORBITAL ENERGIES
----------------

  NO   OCC          E(Eh)            E(eV) 
   0   2.0000     -15.673786      -426.5054 
   1   2.0000     -15.634317      -425.4314 
   2   2.0000     -15.631282      -425.3488 
   3   2.0000     -15.591138      -424.2564 
   4   2.0000     -15.524591      -422.4456 
   5   2.0000     -15.516219      -422.2178 
   6   2.0000     -15.452689      -420.4891 
   7   2.0000     -15.441166      -420.1755 
   8   2.0000     -11.324543      -308.1565 
   9   2.0000     -11.324231      -308.1480 
  10   2.0000     -11.323216      -308.1204 
  11   2.0000     -11.299542      -307.4762 
  12   2.0000     -11.297989      -307.4339 
  13   2.0000     -11.292991      -307.2979 
  14   2.0000     -11.290368      -307.2265 
  15   2.0000     -11.287182      -307.1398 
  16   2.0000     -11.286407      -307.1188 
  17   2.0000     -11.276426      -306.8471 
  18   2.0000     -11.273087      -306.7563 
  19   2.0000     -11.259190      -306.3781 
  20   2.0000     -11.258226      -306.3519 
  21   2.0000     -11.256440      -306.3033 
  22   2.0000     -11.254088      -306.2393 
  23   2.0000     -11.237997      -305.8015 
  24   2.0000     -11.236047      -305.7484 
  25   2.0000     -11.231449      -305.6233 
  26   2.0000     -11.230638      -305.6012 
  27   2.0000     -11.229338      -305.5658 
  28   2.0000     -11.229237      -305.5631 
  29   2.0000     -11.209684      -305.0310 
  30   2.0000     -11.208469      -304.9979 
  31   2.0000     -11.199905      -304.7649 
  32   2.0000     -11.192188      -304.5549 
  33   2.0000     -11.190446      -304.5075 
  34   2.0000     -11.189444      -304.4803 
  35   2.0000     -11.189288      -304.4760 
  36   2.0000     -11.188963      -304.4672 
  37   2.0000     -11.186185      -304.3916 
  38   2.0000     -11.185032      -304.3602 
  39   2.0000     -11.172565      -304.0210 
  40   2.0000     -11.172326      -304.0144 
  41   2.0000     -11.170422      -303.9626 
  42   2.0000     -11.167151      -303.8736 
  43   2.0000     -11.161099      -303.7089 
  44   2.0000     -11.159394      -303.6626 
  45   2.0000     -11.158782      -303.6459 
  46   2.0000     -11.157331      -303.6064 
  47   2.0000     -11.154701      -303.5348 
  48   2.0000     -11.148269      -303.3598 
  49   2.0000     -11.139681      -303.1261 
  50   2.0000     -11.132001      -302.9172 
  51   2.0000     -11.122067      -302.6468 
  52   2.0000      -1.355283       -36.8791 
  53   2.0000      -1.321523       -35.9605 
  54   2.0000      -1.319129       -35.8953 
  55   2.0000      -1.284617       -34.9562 
  56   2.0000      -1.225180       -33.3388 
  57   2.0000      -1.210686       -32.9444 
  58   2.0000      -1.171722       -31.8842 
  59   2.0000      -1.151939       -31.3458 
  60   2.0000      -1.139401       -31.0047 
  61   2.0000      -1.110460       -30.2172 
  62   2.0000      -1.108569       -30.1657 
  63   2.0000      -1.080777       -29.4094 
  64   2.0000      -1.077353       -29.3163 
  65   2.0000      -1.045693       -28.4548 
  66   2.0000      -1.043828       -28.4040 
  67   2.0000      -1.038287       -28.2532 
  68   2.0000      -1.014448       -27.6045 
  69   2.0000      -1.014057       -27.5939 
  70   2.0000      -1.009725       -27.4760 
  71   2.0000      -0.992646       -27.0113 
  72   2.0000      -0.986877       -26.8543 
  73   2.0000      -0.979825       -26.6624 
  74   2.0000      -0.972426       -26.4610 
  75   2.0000      -0.960978       -26.1495 
  76   2.0000      -0.953308       -25.9408 
  77   2.0000      -0.946384       -25.7524 
  78   2.0000      -0.935123       -25.4460 
  79   2.0000      -0.919203       -25.0128 
  80   2.0000      -0.906303       -24.6618 
  81   2.0000      -0.893866       -24.3233 
  82   2.0000      -0.874601       -23.7991 
  83   2.0000      -0.871814       -23.7233 
  84   2.0000      -0.869004       -23.6468 
  85   2.0000      -0.856880       -23.3169 
  86   2.0000      -0.841450       -22.8970 
  87   2.0000      -0.835957       -22.7475 
  88   2.0000      -0.824263       -22.4293 
  89   2.0000      -0.797843       -21.7104 
  90   2.0000      -0.791703       -21.5433 
  91   2.0000      -0.750416       -20.4199 
  92   2.0000      -0.742926       -20.2160 
  93   2.0000      -0.732741       -19.9389 
  94   2.0000      -0.724118       -19.7043 
  95   2.0000      -0.721800       -19.6412 
  96   2.0000      -0.715848       -19.4792 
  97   2.0000      -0.711239       -19.3538 
  98   2.0000      -0.707080       -19.2406 
  99   2.0000      -0.696595       -18.9553 
 100   2.0000      -0.696169       -18.9437 
 101   2.0000      -0.684662       -18.6306 
 102   2.0000      -0.680513       -18.5177 
 103   2.0000      -0.679898       -18.5010 
 104   2.0000      -0.678179       -18.4542 
 105   2.0000      -0.673330       -18.3222 
 106   2.0000      -0.669418       -18.2158 
 107   2.0000      -0.660713       -17.9789 
 108   2.0000      -0.656234       -17.8570 
 109   2.0000      -0.653351       -17.7786 
 110   2.0000      -0.650927       -17.7126 
 111   2.0000      -0.643293       -17.5049 
 112   2.0000      -0.641813       -17.4646 
 113   2.0000      -0.640038       -17.4163 
 114   2.0000      -0.637726       -17.3534 
 115   2.0000      -0.627643       -17.0790 
 116   2.0000      -0.624529       -16.9943 
 117   2.0000      -0.619112       -16.8469 
 118   2.0000      -0.612752       -16.6738 
 119   2.0000      -0.612263       -16.6605 
 120   2.0000      -0.611038       -16.6272 
 121   2.0000      -0.607565       -16.5327 
 122   2.0000      -0.600553       -16.3419 
 123   2.0000      -0.586557       -15.9610 
 124   2.0000      -0.581979       -15.8364 
 125   2.0000      -0.580527       -15.7969 
 126   2.0000      -0.579520       -15.7695 
 127   2.0000      -0.575243       -15.6532 
 128   2.0000      -0.567297       -15.4369 
 129   2.0000      -0.559207       -15.2168 
 130   2.0000      -0.551293       -15.0014 
 131   2.0000      -0.547660       -14.9026 
 132   2.0000      -0.542335       -14.7577 
 133   2.0000      -0.540739       -14.7143 
 134   2.0000      -0.538171       -14.6444 
 135   2.0000      -0.535704       -14.5772 
 136   2.0000      -0.528126       -14.3710 
 137   2.0000      -0.522623       -14.2213 
 138   2.0000      -0.516726       -14.0608 
 139   2.0000      -0.513797       -13.9811 
 140   2.0000      -0.512682       -13.9508 
 141   2.0000      -0.511415       -13.9163 
 142   2.0000      -0.509054       -13.8521 
 143   2.0000      -0.503952       -13.7132 
 144   2.0000      -0.501654       -13.6507 
 145   2.0000      -0.496990       -13.5238 
 146   2.0000      -0.492837       -13.4108 
 147   2.0000      -0.483808       -13.1651 
 148   2.0000      -0.479929       -13.0595 
 149   2.0000      -0.466685       -12.6992 
 150   2.0000      -0.466172       -12.6852 
 151   2.0000      -0.457273       -12.4430 
 152   2.0000      -0.450614       -12.2618 
 153   2.0000      -0.445207       -12.1147 
 154   2.0000      -0.441539       -12.0149 
 155   2.0000      -0.431121       -11.7314 
 156   2.0000      -0.428536       -11.6611 
 157   2.0000      -0.414066       -11.2673 
 158   2.0000      -0.404582       -11.0092 
 159   2.0000      -0.388338       -10.5672 
 160   2.0000      -0.383747       -10.4423 
 161   2.0000      -0.378414       -10.2972 
 162   2.0000      -0.369994       -10.0680 
 163   2.0000      -0.356867        -9.7108 
 164   2.0000      -0.355476        -9.6730 
 165   2.0000      -0.340627        -9.2689 
 166   2.0000      -0.337499        -9.1838 
 167   2.0000      -0.326066        -8.8727 
 168   2.0000      -0.324743        -8.8367 
 169   2.0000      -0.304039        -8.2733 
 170   2.0000      -0.299753        -8.1567 
 171   2.0000      -0.285963        -7.7814 
 172   2.0000      -0.281821        -7.6687 
 173   2.0000      -0.262852        -7.1526 
 174   2.0000      -0.242713        -6.6046 
 175   2.0000      -0.189864        -5.1665 
 176   2.0000      -0.180273        -4.9055 
 177   2.0000      -0.075884        -2.0649 
 178   2.0000      -0.058491        -1.5916 
 179   0.0000       0.028487         0.7752 
 180   0.0000       0.066301         1.8041 
 181   0.0000       0.091169         2.4808 
 182   0.0000       0.109939         2.9916 
 183   0.0000       0.110365         3.0032 
 184   0.0000       0.136839         3.7236 
 185   0.0000       0.139659         3.8003 
 186   0.0000       0.144051         3.9198 
 187   0.0000       0.163354         4.4451 
 188   0.0000       0.164914         4.4875 
 189   0.0000       0.165977         4.5165 
 190   0.0000       0.169585         4.6146 
 191   0.0000       0.183521         4.9939 
 192   0.0000       0.186774         5.0824 
 193   0.0000       0.186920         5.0864 
 194   0.0000       0.204718         5.5707 
 195   0.0000       0.205889         5.6025 
 196   0.0000       0.208046         5.6612 
 197   0.0000       0.208915         5.6849 
 198   0.0000       0.219443         5.9714 
 199   0.0000       0.226734         6.1697 
 200   0.0000       0.231147         6.2898 
 201   0.0000       0.236605         6.4384 
 202   0.0000       0.239102         6.5063 
 203   0.0000       0.240047         6.5320 
 204   0.0000       0.248190         6.7536 
 205   0.0000       0.256516         6.9802 
 206   0.0000       0.256893         6.9904 
 207   0.0000       0.257506         7.0071 
 208   0.0000       0.258652         7.0383 
 209   0.0000       0.262018         7.1299 
 210   0.0000       0.262789         7.1508 
 211   0.0000       0.268133         7.2963 
 212   0.0000       0.270887         7.3712 
 213   0.0000       0.272264         7.4087 
 214   0.0000       0.272805         7.4234 
 215   0.0000       0.275855         7.5064 
 216   0.0000       0.278167         7.5693 
 217   0.0000       0.282252         7.6805 
 218   0.0000       0.286157         7.7867 
 219   0.0000       0.287990         7.8366 
 220   0.0000       0.289930         7.8894 
 221   0.0000       0.292320         7.9544 
 222   0.0000       0.295225         8.0335 
 223   0.0000       0.296243         8.0612 
 224   0.0000       0.297468         8.0945 
 225   0.0000       0.298695         8.1279 
 226   0.0000       0.305772         8.3205 
 227   0.0000       0.308227         8.3873 
 228   0.0000       0.309945         8.4340 
 229   0.0000       0.324693         8.8354 
 230   0.0000       0.326757         8.8915 
 231   0.0000       0.330449         8.9920 
 232   0.0000       0.336639         9.1604 
 233   0.0000       0.341249         9.2859 
 234   0.0000       0.352900         9.6029 
 235   0.0000       0.355714         9.6795 
 236   0.0000       0.375041        10.2054 
 237   0.0000       0.379003        10.3132 
 238   0.0000       0.393655        10.7119 
 239   0.0000       0.396675        10.7941 
 240   0.0000       0.400488        10.8978 
 241   0.0000       0.410790        11.1782 
 242   0.0000       0.414835        11.2882 
 243   0.0000       0.419740        11.4217 
 244   0.0000       0.429236        11.6801 
 245   0.0000       0.433905        11.8072 
 246   0.0000       0.436262        11.8713 
 247   0.0000       0.441229        12.0064 
 248   0.0000       0.441643        12.0177 
 249   0.0000       0.448911        12.2155 
 250   0.0000       0.456079        12.4106 
 251   0.0000       0.460351        12.5268 
 252   0.0000       0.468527        12.7493 
 253   0.0000       0.469993        12.7892 
 254   0.0000       0.472215        12.8496 
 255   0.0000       0.473053        12.8724 
 256   0.0000       0.477849        13.0029 
 257   0.0000       0.481397        13.0995 
 258   0.0000       0.486642        13.2422 
 259   0.0000       0.497574        13.5397 
 260   0.0000       0.504083        13.7168 
 261   0.0000       0.504853        13.7377 
 262   0.0000       0.506863        13.7925 
 263   0.0000       0.508605        13.8398 
 264   0.0000       0.514437        13.9985 
 265   0.0000       0.519365        14.1326 
 266   0.0000       0.524629        14.2759 
 267   0.0000       0.530636        14.4393 
 268   0.0000       0.531786        14.4706 
 269   0.0000       0.537033        14.6134 
 270   0.0000       0.540385        14.7046 
 271   0.0000       0.546593        14.8735 
 272   0.0000       0.554206        15.0807 
 273   0.0000       0.559246        15.2179 
 274   0.0000       0.561654        15.2834 
 275   0.0000       0.564801        15.3690 
 276   0.0000       0.570632        15.5277 
 277   0.0000       0.572055        15.5664 
 278   0.0000       0.577440        15.7129 
 279   0.0000       0.586738        15.9659 
 280   0.0000       0.589656        16.0454 
 281   0.0000       0.592999        16.1363 
 282   0.0000       0.594321        16.1723 
 283   0.0000       0.595002        16.1908 
 284   0.0000       0.597905        16.2698 
 285   0.0000       0.600165        16.3313 
 286   0.0000       0.607477        16.5303 
 287   0.0000       0.612414        16.6646 
 288   0.0000       0.616135        16.7659 
 289   0.0000       0.622425        16.9370 
 290   0.0000       0.626873        17.0581 
 291   0.0000       0.629295        17.1240 
 292   0.0000       0.634220        17.2580 
 293   0.0000       0.638946        17.3866 
 294   0.0000       0.645623        17.5683 
 295   0.0000       0.647722        17.6254 
 296   0.0000       0.653511        17.7829 
 297   0.0000       0.656029        17.8515 
 298   0.0000       0.662996        18.0410 
 299   0.0000       0.667835        18.1727 
 300   0.0000       0.671321        18.2676 
 301   0.0000       0.675551        18.3827 
 302   0.0000       0.676370        18.4050 
 303   0.0000       0.679850        18.4997 
 304   0.0000       0.680431        18.5155 
 305   0.0000       0.685461        18.6523 
 306   0.0000       0.688019        18.7220 
 307   0.0000       0.690661        18.7938 
 308   0.0000       0.695589        18.9279 
 309   0.0000       0.697894        18.9907 
 310   0.0000       0.702714        19.1218 
 311   0.0000       0.703810        19.1516 
 312   0.0000       0.708113        19.2687 
 313   0.0000       0.710386        19.3306 
 314   0.0000       0.711454        19.3596 
 315   0.0000       0.715537        19.4707 
 316   0.0000       0.717079        19.5127 
 317   0.0000       0.718820        19.5601 
 318   0.0000       0.720613        19.6089 
 319   0.0000       0.723339        19.6830 
 320   0.0000       0.725926        19.7534 
 321   0.0000       0.731118        19.8947 
 322   0.0000       0.733137        19.9497 
 323   0.0000       0.733823        19.9684 
 324   0.0000       0.734839        19.9960 
 325   0.0000       0.740094        20.1390 
 326   0.0000       0.743701        20.2371 
 327   0.0000       0.748187        20.3592 
 328   0.0000       0.750449        20.4208 
 329   0.0000       0.751185        20.4408 
 330   0.0000       0.753837        20.5129 
 331   0.0000       0.758024        20.6269 
 332   0.0000       0.760347        20.6901 
 333   0.0000       0.765134        20.8204 
 334   0.0000       0.767484        20.8843 
 335   0.0000       0.772395        21.0179 
 336   0.0000       0.774100        21.0643 
 337   0.0000       0.780851        21.2480 
 338   0.0000       0.782392        21.2900 
 339   0.0000       0.788796        21.4642 
 340   0.0000       0.792673        21.5697 
 341   0.0000       0.794940        21.6314 
 342   0.0000       0.795423        21.6446 
 343   0.0000       0.803262        21.8579 
 344   0.0000       0.805097        21.9078 
 345   0.0000       0.807810        21.9816 
 346   0.0000       0.808526        22.0011 
 347   0.0000       0.812268        22.1029 
 348   0.0000       0.815310        22.1857 
 349   0.0000       0.818380        22.2693 
 350   0.0000       0.819020        22.2867 
 351   0.0000       0.822243        22.3744 
 352   0.0000       0.825098        22.4521 
 353   0.0000       0.826130        22.4801 
 354   0.0000       0.826550        22.4916 
 355   0.0000       0.831778        22.6338 
 356   0.0000       0.833097        22.6697 
 357   0.0000       0.836467        22.7614 
 358   0.0000       0.837162        22.7803 
 359   0.0000       0.839173        22.8350 
 360   0.0000       0.839263        22.8375 
 361   0.0000       0.842964        22.9382 
 362   0.0000       0.844342        22.9757 
 363   0.0000       0.847830        23.0706 
 364   0.0000       0.848576        23.0909 
 365   0.0000       0.854095        23.2411 
 366   0.0000       0.857158        23.3244 
 367   0.0000       0.860408        23.4129 
 368   0.0000       0.864227        23.5168 
 369   0.0000       0.867034        23.5932 
 370   0.0000       0.870406        23.6849 
 371   0.0000       0.872389        23.7389 
 372   0.0000       0.873501        23.7692 
 373   0.0000       0.875944        23.8356 
 374   0.0000       0.879297        23.9269 
 375   0.0000       0.884204        24.0604 
 376   0.0000       0.886137        24.1130 
 377   0.0000       0.888980        24.1904 
 378   0.0000       0.889967        24.2172 
 379   0.0000       0.892390        24.2832 
 380   0.0000       0.897061        24.4103 
 381   0.0000       0.899479        24.4761 
 382   0.0000       0.900368        24.5003 
 383   0.0000       0.901196        24.5228 
 384   0.0000       0.904207        24.6047 
 385   0.0000       0.905058        24.6279 
 386   0.0000       0.907852        24.7039 
 387   0.0000       0.908698        24.7269 
 388   0.0000       0.911395        24.8003 
 389   0.0000       0.916396        24.9364 
 390   0.0000       0.920984        25.0612 
 391   0.0000       0.924139        25.1471 
 392   0.0000       0.925646        25.1881 
 393   0.0000       0.927266        25.2322 
 394   0.0000       0.927693        25.2438 
 395   0.0000       0.929894        25.3037 
 396   0.0000       0.934396        25.4262 
 397   0.0000       0.939221        25.5575 
 398   0.0000       0.941234        25.6123 
 399   0.0000       0.943679        25.6788 
 400   0.0000       0.944257        25.6945 
 401   0.0000       0.949658        25.8415 
 402   0.0000       0.953164        25.9369 
 403   0.0000       0.956189        26.0192 
 404   0.0000       0.959864        26.1192 
 405   0.0000       0.963360        26.2143 
 406   0.0000       0.965402        26.2699 
 407   0.0000       0.970527        26.4094 
 408   0.0000       0.973572        26.4922 
 409   0.0000       0.979265        26.6471 
 410   0.0000       0.982417        26.7329 
 411   0.0000       0.986416        26.8417 
 412   0.0000       0.989941        26.9377 
 413   0.0000       0.997594        27.1459 
 414   0.0000       1.000847        27.2344 
 415   0.0000       1.002070        27.2677 
 416   0.0000       1.007602        27.4182 
 417   0.0000       1.012012        27.5383 
 418   0.0000       1.022301        27.8182 
 419   0.0000       1.025201        27.8971 
 420   0.0000       1.029720        28.0201 
 421   0.0000       1.032075        28.0842 
 422   0.0000       1.036896        28.2154 
 423   0.0000       1.044854        28.4319 
 424   0.0000       1.051772        28.6202 
 425   0.0000       1.056955        28.7612 
 426   0.0000       1.057788        28.7839 
 427   0.0000       1.065478        28.9931 
 428   0.0000       1.076342        29.2888 
 429   0.0000       1.081895        29.4398 
 430   0.0000       1.082609        29.4593 
 431   0.0000       1.085721        29.5440 
 432   0.0000       1.089458        29.6457 
 433   0.0000       1.093434        29.7538 
 434   0.0000       1.100725        29.9523 
 435   0.0000       1.101434        29.9716 
 436   0.0000       1.106617        30.1126 
 437   0.0000       1.110605        30.2211 
 438   0.0000       1.115327        30.3496 
 439   0.0000       1.118672        30.4406 
 440   0.0000       1.120520        30.4909 
 441   0.0000       1.122559        30.5464 
 442   0.0000       1.124483        30.5987 
 443   0.0000       1.127748        30.6876 
 444   0.0000       1.134050        30.8591 
 445   0.0000       1.136236        30.9186 
 446   0.0000       1.140219        31.0269 
 447   0.0000       1.144832        31.1525 
 448   0.0000       1.146245        31.1909 
 449   0.0000       1.149621        31.2828 
 450   0.0000       1.152500        31.3611 
 451   0.0000       1.159176        31.5428 
 452   0.0000       1.161955        31.6184 
 453   0.0000       1.165946        31.7270 
 454   0.0000       1.169289        31.8180 
 455   0.0000       1.170615        31.8541 
 456   0.0000       1.172482        31.9049 
 457   0.0000       1.176926        32.0258 
 458   0.0000       1.184184        32.2233 
 459   0.0000       1.186668        32.2909 
 460   0.0000       1.195239        32.5241 
 461   0.0000       1.198128        32.6027 
 462   0.0000       1.199754        32.6470 
 463   0.0000       1.205551        32.8047 
 464   0.0000       1.208395        32.8821 
 465   0.0000       1.210873        32.9495 
 466   0.0000       1.217249        33.1230 
 467   0.0000       1.218353        33.1531 
 468   0.0000       1.222254        33.2592 
 469   0.0000       1.225942        33.3596 
 470   0.0000       1.228389        33.4262 
 471   0.0000       1.231113        33.5003 
 472   0.0000       1.234793        33.6004 
 473   0.0000       1.235747        33.6264 
 474   0.0000       1.243192        33.8290 
 475   0.0000       1.243241        33.8303 
 476   0.0000       1.249202        33.9925 
 477   0.0000       1.250513        34.0282 
 478   0.0000       1.251839        34.0643 
 479   0.0000       1.255182        34.1552 
 480   0.0000       1.257843        34.2276 
 481   0.0000       1.264014        34.3956 
 482   0.0000       1.264529        34.4096 
 483   0.0000       1.270483        34.5716 
 484   0.0000       1.274171        34.6720 
 485   0.0000       1.278582        34.7920 
 486   0.0000       1.282436        34.8968 
 487   0.0000       1.284889        34.9636 
 488   0.0000       1.287884        35.0451 
 489   0.0000       1.291050        35.1313 
 490   0.0000       1.295091        35.2412 
 491   0.0000       1.297176        35.2979 
 492   0.0000       1.300445        35.3869 
 493   0.0000       1.309859        35.6431 
 494   0.0000       1.311182        35.6791 
 495   0.0000       1.317389        35.8480 
 496   0.0000       1.320753        35.9395 
 497   0.0000       1.322759        35.9941 
 498   0.0000       1.326545        36.0971 
 499   0.0000       1.328150        36.1408 
 500   0.0000       1.333446        36.2849 
 501   0.0000       1.336137        36.3581 
 502   0.0000       1.339610        36.4526 
 503   0.0000       1.343089        36.5473 
 504   0.0000       1.346265        36.6337 
 505   0.0000       1.351329        36.7715 
 506   0.0000       1.352245        36.7965 
 507   0.0000       1.355720        36.8910 
 508   0.0000       1.358627        36.9701 
 509   0.0000       1.361399        37.0455 
[...]
      pz      :     0.022099  p :     0.079751
      px      :     0.043568
      py      :     0.014084
 77 H s       :     0.885166  s :     0.885166
      pz      :     0.047928  p :     0.079235
      px      :     0.015022
      py      :     0.016285
 78 H s       :     0.885517  s :     0.885517
      pz      :     0.025858  p :     0.079200
      px      :     0.020469
      py      :     0.032873
 79 H s       :     0.910488  s :     0.910488
      pz      :     0.021840  p :     0.086363
      px      :     0.021675
      py      :     0.042849
 80 H s       :     0.865308  s :     0.865308
      pz      :     0.039318  p :     0.084724
      px      :     0.030229
      py      :     0.015178
 81 H s       :     0.886909  s :     0.886909
      pz      :     0.037810  p :     0.084096
      px      :     0.016180
      py      :     0.030106
 82 H s       :     0.915847  s :     0.915847
      pz      :     0.021966  p :     0.086745
      px      :     0.031615
      py      :     0.033163
 83 H s       :     0.873275  s :     0.873275
      pz      :     0.039278  p :     0.084080
      px      :     0.015271
      py      :     0.029531
 84 H s       :     0.886699  s :     0.886699
      pz      :     0.035776  p :     0.083477
      px      :     0.031701
      py      :     0.016000
 85 H s       :     0.892908  s :     0.892908
      pz      :     0.022493  p :     0.079785
      px      :     0.014071
      py      :     0.043221
 86 H s       :     0.890945  s :     0.890945
      pz      :     0.024731  p :     0.078834
      px      :     0.032983
      py      :     0.021121
 87 H s       :     0.889919  s :     0.889919
      pz      :     0.048006  p :     0.078734
      px      :     0.015590
      py      :     0.015139
 88 H s       :     0.910933  s :     0.910933
      pz      :     0.021665  p :     0.087005
      px      :     0.042893
      py      :     0.022447
 89 H s       :     0.871548  s :     0.871548
      pz      :     0.037934  p :     0.083831
      px      :     0.030473
      py      :     0.015424


                      *****************************
                      * MAYER POPULATION ANALYSIS *
                      *****************************

  NA   - Mulliken gross atomic population
  ZA   - Total nuclear charge
  QA   - Mulliken gross atomic charge
  VA   - Mayer's total valence
  BVA  - Mayer's bonded valence
  FA   - Mayer's free valence

  ATOM       NA         ZA         QA         VA         BVA        FA
  0 C      5.7898     6.0000     0.2102     3.8416     3.8416     0.0000
  1 N      7.4560     7.0000    -0.4560     3.3323     3.3323    -0.0000
  2 C      6.0661     6.0000    -0.0661     3.9204     3.9204    -0.0000
  3 N      7.3374     7.0000    -0.3374     3.4572     3.4572    -0.0000
  4 C      6.0489     6.0000    -0.0489     4.0310     4.0310    -0.0000
  5 N      7.5646     7.0000    -0.5646     3.0943     3.0943     0.0000
  6 C      6.1087     6.0000    -0.1087     3.9858     3.9858    -0.0000
  7 N      7.3402     7.0000    -0.3402     3.4343     3.4343    -0.0000
  8 C      5.7930     6.0000     0.2070     3.8417     3.8417    -0.0000
  9 N      7.5623     7.0000    -0.5623     3.0779     3.0779    -0.0000
 10 C      5.8810     6.0000     0.1190     3.9086     3.9086    -0.0000
 11 N      7.4384     7.0000    -0.4384     3.3784     3.3784    -0.0000
 12 C      6.0812     6.0000    -0.0812     3.8968     3.8968    -0.0000
 13 N      7.4308     7.0000    -0.4308     3.4217     3.4217    -0.0000
 14 C      5.7672     6.0000     0.2328     3.7851     3.7851    -0.0000
 15 N      7.4410     7.0000    -0.4410     3.3720     3.3720     0.0000
 16 C      5.7717     6.0000     0.2283     3.7790     3.7790    -0.0000
 17 C      6.1204     6.0000    -0.1204     3.9948     3.9948     0.0000
 18 C      6.1943     6.0000    -0.1943     3.7669     3.7669     0.0000
 19 C      5.7747     6.0000     0.2253     3.8624     3.8624    -0.0000
 20 C      5.7873     6.0000     0.2127     3.8289     3.8289    -0.0000
 21 C      6.0917     6.0000    -0.0917     3.8799     3.8799     0.0000
 22 C      6.0911     6.0000    -0.0911     3.9828     3.9828    -0.0000
 23 C      6.0405     6.0000    -0.0405     3.9925     3.9925    -0.0000
 24 C      5.8052     6.0000     0.1948     3.8216     3.8216    -0.0000
 25 C      5.8854     6.0000     0.1146     3.8915     3.8915    -0.0000
 26 C      6.0822     6.0000    -0.0822     3.9098     3.9098     0.0000
 27 C      5.7868     6.0000     0.2132     3.8639     3.8639    -0.0000
 28 C      6.0608     6.0000    -0.0608     3.9886     3.9886    -0.0000
 29 C      6.1806     6.0000    -0.1806     3.7446     3.7446    -0.0000
 30 C      5.7550     6.0000     0.2450     3.7999     3.7999    -0.0000
 31 C      5.7723     6.0000     0.2277     3.8187     3.8187     0.0000
 32 C      6.0622     6.0000    -0.0622     3.9225     3.9225    -0.0000
 33 C      6.0631     6.0000    -0.0631     3.9737     3.9737     0.0000
 34 C      6.0510     6.0000    -0.0510     3.9847     3.9847    -0.0000
 35 C      5.7748     6.0000     0.2252     3.8179     3.8179    -0.0000
 36 C      5.8910     6.0000     0.1090     3.8770     3.8770     0.0000
 37 C      6.0646     6.0000    -0.0646     3.9177     3.9177     0.0000
 38 C      5.7681     6.0000     0.2319     3.8001     3.8001    -0.0000
 39 C      6.0582     6.0000    -0.0582     3.9842     3.9842     0.0000
 40 C      6.1822     6.0000    -0.1822     3.7292     3.7292     0.0000
 41 C      5.7746     6.0000     0.2254     3.8861     3.8861     0.0000
 42 C      5.8020     6.0000     0.1980     3.8261     3.8261    -0.0000
 43 C      6.0724     6.0000    -0.0724     3.9003     3.9003    -0.0000
 44 C      6.0896     6.0000    -0.0896     3.9849     3.9849    -0.0000
 45 C      6.0604     6.0000    -0.0604     3.9923     3.9923     0.0000
 46 C      5.7894     6.0000     0.2106     3.8282     3.8282     0.0000
 47 C      5.8846     6.0000     0.1154     3.8930     3.8930     0.0000
 48 C      6.0678     6.0000    -0.0678     3.9090     3.9090     0.0000
 49 C      5.7625     6.0000     0.2375     3.8926     3.8926    -0.0000
 50 C      6.0472     6.0000    -0.0472     3.9905     3.9905     0.0000
 51 C      6.1917     6.0000    -0.1917     3.7360     3.7360     0.0000
 52 H      0.9607     1.0000     0.0393     0.9859     0.9859     0.0000
 53 H      1.0167     1.0000    -0.0167     0.9983     0.9983    -0.0000
 54 H      0.9477     1.0000     0.0523     1.0164     1.0164    -0.0000
 55 H      0.9616     1.0000     0.0384     0.9868     0.9868    -0.0000
 56 H      0.9502     1.0000     0.0498     0.9696     0.9696    -0.0000
 57 H      0.9517     1.0000     0.0483     0.9829     0.9829    -0.0000
 58 H      0.9524     1.0000     0.0476     0.9848     0.9848    -0.0000
 59 H      0.9989     1.0000     0.0011     1.0029     1.0029     0.0000
 60 H      0.9519     1.0000     0.0481     1.0147     1.0147    -0.0000
 61 H      0.8287     1.0000     0.1713     1.0421     1.0421     0.0000
 62 H      0.8248     1.0000     0.1752     1.0435     1.0435    -0.0000
 63 H      0.9447     1.0000     0.0553     0.9853     0.9853    -0.0000
 64 H      1.0090     1.0000    -0.0090     0.9966     0.9966     0.0000
 65 H      0.9527     1.0000     0.0473     1.0095     1.0095    -0.0000
 66 H      0.9441     1.0000     0.0559     0.9854     0.9854     0.0000
 67 H      0.9377     1.0000     0.0623     0.9719     0.9719     0.0000
 68 H      0.9427     1.0000     0.0573     0.9868     0.9868    -0.0000
 69 H      0.9435     1.0000     0.0565     0.9828     0.9828    -0.0000
 70 H      1.0293     1.0000    -0.0293     0.9936     0.9936     0.0000
 71 H      0.9551     1.0000     0.0449     1.0060     1.0060     0.0000
 72 H      0.9305     1.0000     0.0695     0.9838     0.9838     0.0000
 73 H      1.0086     1.0000    -0.0086     1.0007     1.0007    -0.0000
 74 H      0.9413     1.0000     0.0587     1.0100     1.0100     0.0000
 75 H      0.9312     1.0000     0.0688     0.9841     0.9841    -0.0000
 76 H      0.9267     1.0000     0.0733     0.9721     0.9721     0.0000
 77 H      0.9332     1.0000     0.0668     0.9854     0.9854     0.0000
 78 H      0.9340     1.0000     0.0660     0.9853     0.9853     0.0000
 79 H      1.0162     1.0000    -0.0162     0.9977     0.9977     0.0000
 80 H      0.9405     1.0000     0.0595     1.0072     1.0072     0.0000
 81 H      0.9459     1.0000     0.0541     0.9856     0.9856     0.0000
 82 H      1.0246     1.0000    -0.0246     0.9935     0.9935    -0.0000
 83 H      0.9579     1.0000     0.0421     1.0084     1.0084    -0.0000
 84 H      0.9459     1.0000     0.0541     0.9853     0.9853     0.0000
 85 H      0.9393     1.0000     0.0607     0.9716     0.9716     0.0000
 86 H      0.9444     1.0000     0.0556     0.9839     0.9839     0.0000
 87 H      0.9429     1.0000     0.0571     0.9856     0.9856     0.0000
 88 H      1.0152     1.0000    -0.0152     0.9965     0.9965     0.0000
 89 H      0.9540     1.0000     0.0460     1.0075     1.0075     0.0000

  Mayer bond orders larger than 0.100000
B(  0-C ,  1-N ) :   1.0943 B(  0-C , 17-C ) :   1.7008 B(  0-C , 52-H ) :   0.9669 
B(  1-N ,  8-C ) :   1.0870 B(  1-N , 10-C ) :   0.9769 B(  2-C , 12-C ) :   1.5071 
B(  2-C , 16-C ) :   1.3561 B(  2-C , 53-H ) :   0.9751 B(  3-N , 14-C ) :   1.2188 
B(  3-N , 16-C ) :   1.1893 B(  3-N , 61-H ) :   0.8990 B(  4-C ,  6-C ) :   1.2126 
B(  4-C , 17-C ) :   1.2144 B(  4-C , 18-C ) :   1.4351 B(  5-N , 19-C ) :   1.4511 
B(  5-N , 27-C ) :   1.3795 B(  6-C ,  8-C ) :   1.7082 B(  6-C , 54-H ) :   0.9497 
B(  7-N , 30-C ) :   1.1958 B(  7-N , 38-C ) :   1.1912 B(  7-N , 62-H ) :   0.8970 
B(  8-C , 55-H ) :   0.9669 B(  9-N , 41-C ) :   1.3955 B(  9-N , 49-C ) :   1.4245 
B( 10-C , 56-H ) :   0.9771 B( 10-C , 57-H ) :   0.9822 B( 10-C , 58-H ) :   0.9843 
B( 11-N , 20-C ) :   1.1300 B( 11-N , 24-C ) :   1.1083 B( 11-N , 25-C ) :   0.9601 
B( 12-C , 14-C ) :   1.3552 B( 12-C , 59-H ) :   0.9721 B( 13-N , 31-C ) :   1.1564 
B( 13-N , 35-C ) :   1.1542 B( 13-N , 36-C ) :   0.9437 B( 14-C , 18-C ) :   1.1313 
B( 15-N , 42-C ) :   1.1085 B( 15-N , 46-C ) :   1.1229 B( 15-N , 47-C ) :   0.9614 
B( 16-C , 51-C ) :   1.1724 B( 17-C , 60-H ) :   0.9555 B( 18-C , 19-C ) :   1.1357 
B( 19-C , 21-C ) :   1.2456 B( 20-C , 28-C ) :   1.6284 B( 20-C , 63-H ) :   0.9703 
B( 21-C , 26-C ) :   1.6047 B( 21-C , 64-H ) :   0.9652 B( 22-C , 23-C ) :   1.2886 
B( 22-C , 28-C ) :   1.2647 B( 22-C , 29-C ) :   1.2246 B( 23-C , 24-C ) :   1.6203 
B( 23-C , 65-H ) :   0.9704 B( 24-C , 66-H ) :   0.9695 B( 25-C , 67-H ) :   0.9760 
B( 25-C , 68-H ) :   0.9828 B( 25-C , 69-H ) :   0.9823 B( 26-C , 27-C ) :   1.2431 
B( 26-C , 70-H ) :   0.9705 B( 27-C , 29-C ) :   1.2124 B( 28-C , 71-H ) :   0.9719 
B( 29-C , 30-C ) :   1.2404 B( 30-C , 32-C ) :   1.2841 B( 31-C , 39-C ) :   1.5935 
B( 31-C , 72-H ) :   0.9683 B( 32-C , 37-C ) :   1.5746 B( 32-C , 73-H ) :   0.9785 
B( 33-C , 34-C ) :   1.3030 B( 33-C , 39-C ) :   1.2992 B( 33-C , 40-C ) :   1.1854 
B( 34-C , 35-C ) :   1.5909 B( 34-C , 74-H ) :   0.9697 B( 35-C , 75-H ) :   0.9683 
B( 36-C , 76-H ) :   0.9767 B( 36-C , 77-H ) :   0.9816 B( 36-C , 78-H ) :   0.9824 
B( 37-C , 38-C ) :   1.2891 B( 37-C , 79-H ) :   0.9766 B( 38-C , 40-C ) :   1.2299 
B( 39-C , 80-H ) :   0.9706 B( 40-C , 41-C ) :   1.2471 B( 41-C , 43-C ) :   1.1878 
B( 42-C , 50-C ) :   1.6333 B( 42-C , 81-H ) :   0.9697 B( 43-C , 48-C ) :   1.6648 
B( 43-C , 82-H ) :   0.9723 B( 44-C , 45-C ) :   1.2643 B( 44-C , 50-C ) :   1.2717 
B( 44-C , 51-C ) :   1.2600 B( 45-C , 46-C ) :   1.6346 B( 45-C , 83-H ) :   0.9718 
B( 46-C , 84-H ) :   0.9700 B( 47-C , 85-H ) :   0.9762 B( 47-C , 86-H ) :   0.9829 
B( 47-C , 87-H ) :   0.9825 B( 48-C , 49-C ) :   1.1911 B( 48-C , 88-H ) :   0.9747 
B( 49-C , 51-C ) :   1.2405 B( 50-C , 89-H ) :   0.9710 

-------
TIMINGS
-------

Total SCF time: 0 days 0 hours 22 min 43 sec 

Total time                  ....    1363.093 sec
Sum of individual times     ....    1359.363 sec  ( 99.7%)

Fock matrix formation       ....    1338.784 sec  ( 98.2%)
Diagonalization             ....       6.682 sec  (  0.5%)
Density matrix formation    ....       0.386 sec  (  0.0%)
Population analysis         ....       0.431 sec  (  0.0%)
Initial guess               ....       1.901 sec  (  0.1%)
Orbital Transformation      ....       0.000 sec  (  0.0%)
Orbital Orthonormalization  ....       0.000 sec  (  0.0%)
DIIS solution               ....       2.891 sec  (  0.2%)
SOSCF solution              ....       7.278 sec  (  0.5%)

Maximum memory used throughout the entire SCF-calculation: 302.6 MB


           ************************************************************
           *        Program running with 16 parallel MPI-processes    *
           *              working on a common directory               *
           ************************************************************

------------------------------------------------------------------------------
                                ORCA  MP2 
------------------------------------------------------------------------------

Freezing NCore=104 chemical core electrons

----------
MP2 ENERGY (disk based algorithm)
----------

Dimension of the basis                    ...  918
Memory devoted to MP2                     ... 2000 MB   
Data format for buffers                   ... DOUBLE
Compression type for matrix containers    ... UNCOMPRESSED

-------------------------------
PARTIAL EXCHANGE TRANSFORMATION
-------------------------------

Transformation type                        ... one-operator
Generation of integrals (i,mue|j,nue)      ... ON
Generation of integrals (mue,kappa|nue,tau)... OFF
Generation of integrals (i,mue|a,nue)      ... OFF
Dimension of the basis                     ...  918
Number of internal MOs                     ...  127 (  52- 178)
Pair cutoff                                ... 2.500e-12 Eh
Number of AO pairs in the trafo            ... 421821
Total Number of distinct AO pairs          ... 421821
Memory devoted for trafo                   ... 2000.0 MB 
Max. Number of MO pairs treated together   ...  311      
Number Format for Storage                  ... Double (8 Byte)
Integral package used                      ... LIBINT

Starting integral evaluation:
    ... done with AO integral generation
Closing buffer AOK     (38.28 GB; CompressionRatio= 1.32)
Collecting buffer AOK 
Number of MO pairs included in the trafo   ... 8128
------------------------
SORTING OF (i,mue|j,nue)
------------------------

IBATCH = 1 of  2
IBATCH = 2 of  2
Closing buffer KAO     (51.03 GB; CompressionRatio= 1.00)
Collecting buffer KAO 
N(AO-Batches) Done                         ...  85976655 
N(AO-Batches) Skipped                      ...  82387511 
N(IJ)-pairs Skipped                        ...         0 
TOTAL TIME for half transformation         ...  2651.882 sec
AO-integral generation                     ...   177.365 sec
Half transformation                        ...   314.590 sec
K-integral sorting                         ...  2017.388 sec
Process 10:   Internal MO 132
Process  1:   Internal MO  60
Process  4:   Internal MO  84
Process  7:   Internal MO 108

Finished integral transformation - now doing MP2 part

OPERATOR COMBINATION   0   0: ij=( 52..178, 52..178)
Process 13:   Internal MO 156
Process  2:   Internal MO  69
Process  1:   Internal MO  63
Process  5:   Internal MO  93
Process  8:   Internal MO 117
Process  2:   Internal MO  72
Process  3:   Internal MO  78
Process  0:   Internal MO  54
Process  1:   Internal MO  66
Process  6:   Internal MO 102
Process 11:   Internal MO 141
Process 14:   Internal MO 165
Process  0:   Internal MO  57
Process  2:   Internal MO  75
Process  4:   Internal MO  87
Process  3:   Internal MO  81
Process  9:   Internal MO 126
Process 12:   Internal MO 150
Process  5:   Internal MO  96
Process  7:   Internal MO 111
Process  4:   Internal MO  90
Process 15:   Internal MO 174
Process  6:   Internal MO 105
Process 10:   Internal MO 135
Process  8:   Internal MO 120
Process  9:   Internal MO 129
Process  5:   Internal MO  99
Process  7:   Internal MO 114
Process 13:   Internal MO 159
Process 11:   Internal MO 144
Process 14:   Internal MO 168
Process 12:   Internal MO 153
Process  8:   Internal MO 123
Process 10:   Internal MO 138
Process 15:   Internal MO 177
Process 13:   Internal MO 162
Process 11:   Internal MO 147
Process 14:   Internal MO 171
-----------------------------------------------
 MP2 CORRELATION ENERGY   :     -7.283702368 Eh
-----------------------------------------------


-------
TIMINGS
-------
Total time                : 2936.241 sec
Integral trafo            : 2653.759 sec ( 90.4%)
K(i,j)                    :   39.433 sec (  1.3%)
T(i,j)                    :    0.108 sec (  0.0%)

---------------------------------------
MP2 TOTAL ENERGY:    -2130.878475148 Eh
---------------------------------------

Maximum memory used throughout the entire MP2-calculation: 2275.3 MB

-------------------------   --------------------
FINAL SINGLE POINT ENERGY     -2130.878475148473
-------------------------   --------------------


                            ***************************************
                            *     ORCA property calculations      *
                            ***************************************


  WARNING: The energy has been calculated at the MP2 level but the densities
           used in the property calculations are still SCF densities
           MP2 response densities have not been calculated 
           use %mp2 Density relaxed end
           or  %mp2 Density unrelaxed end

                                    ---------------------
                                    Active property flags
                                    ---------------------
   (+) Dipole Moment


------------------------------------------------------------------------------
                       ORCA ELECTRIC PROPERTIES CALCULATION
------------------------------------------------------------------------------

Dipole Moment Calculation                       ... on
Quadrupole Moment Calculation                   ... off
Polarizability Calculation                      ... off
GBWName                                         ... /scratch/allen/tmpyp4_amber_gaff2/conf1/conf1/Conf31.orca.gbw
Electron density                                ... /scratch/allen/tmpyp4_amber_gaff2/conf1/conf1/Conf31.orca.scfp
The origin for moment calculation is the CENTER OF MASS  = (-0.000634, -0.004584  0.003319)

-------------
DIPOLE MOMENT
-------------
                                X             Y             Z
Electronic contribution:      2.48002      -3.82901      -0.11359
Nuclear contribution   :     -0.04896       0.15394       0.13447
                        -----------------------------------------
Total Dipole Moment    :      2.43106      -3.67507       0.02088
                        -----------------------------------------
Magnitude (a.u.)       :      4.40643
Magnitude (Debye)      :     11.20025



--------------------
Rotational spectrum 
--------------------
 
Rotational constants in cm-1:     0.001502     0.001477     0.000761 
Rotational constants in MHz :    45.028073    44.271615    22.800171 

 Dipole components along the rotational axes: 
x,y,z [a.u.] :     3.177688     3.052591     0.024717 
x,y,z [Debye]:     8.077040     7.759071     0.062826 

 

Timings for individual modules:

Sum of individual times         ...     4322.694 sec (=  72.045 min)
GTO integral calculation        ...        2.705 sec (=   0.045 min)   0.1 %
SCF iterations                  ...     1363.990 sec (=  22.733 min)  31.6 %
MP2 module                      ...     2955.999 sec (=  49.267 min)  68.4 %
                             ****ORCA TERMINATED NORMALLY****
TOTAL RUN TIME: 0 days 1 hours 12 minutes 5 seconds 906 msec
# of primitive gaussian functions

