
                                 *****************
                                 * O   R   C   A *
                                 *****************

                                            #,                                       
                                            ###                                      
                                            ####                                     
                                            #####                                    
                                            ######                                   
                                           ########,                                 
                                     ,,################,,,,,                         
                               ,,#################################,,                 
                          ,,##########################################,,             
                       ,#########################################, ''#####,          
                    ,#############################################,,   '####,        
                  ,##################################################,,,,####,       
                ,###########''''           ''''###############################       
              ,#####''   ,,,,##########,,,,          '''####'''          '####       
            ,##' ,,,,###########################,,,                        '##       
           ' ,,###''''                  '''############,,,                           
         ,,##''                                '''############,,,,        ,,,,,,###''
      ,#''                                            '''#######################'''  
     '                                                          ''''####''''         
             ,#######,   #######,   ,#######,      ##                                
            ,#'     '#,  ##    ##  ,#'     '#,    #''#        ######   ,####,        
            ##       ##  ##   ,#'  ##            #'  '#       #        #'  '#        
            ##       ##  #######   ##           ,######,      #####,   #    #        
            '#,     ,#'  ##    ##  '#,     ,#' ,#      #,         ##   #,  ,#        
             '#######'   ##     ##  '#######'  #'      '#     #####' # '####'        



                  #######################################################
                  #                        -***-                        #
                  #          Department of theory and spectroscopy      #
                  #    Directorship and core code : Frank Neese         #
                  #        Max Planck Institute fuer Kohlenforschung    #
                  #                Kaiser Wilhelm Platz 1               #
                  #                 D-45470 Muelheim/Ruhr               #
                  #                      Germany                        #
                  #                                                     #
                  #                  All rights reserved                #
                  #                        -***-                        #
                  #######################################################


                         Program Version 5.0.4 -  RELEASE  -


 With contributions from (in alphabetic order):
   Daniel Aravena         : Magnetic Suceptibility
   Michael Atanasov       : Ab Initio Ligand Field Theory (pilot matlab implementation)
   Alexander A. Auer      : GIAO ZORA, VPT2 properties, NMR spectrum
   Ute Becker             : Parallelization
   Giovanni Bistoni       : ED, misc. LED, open-shell LED, HFLD
   Martin Brehm           : Molecular dynamics
   Dmytro Bykov           : SCF Hessian
   Vijay G. Chilkuri      : MRCI spin determinant printing, contributions to CSF-ICE
   Dipayan Datta          : RHF DLPNO-CCSD density
   Achintya Kumar Dutta   : EOM-CC, STEOM-CC
   Dmitry Ganyushin       : Spin-Orbit,Spin-Spin,Magnetic field MRCI
   Miquel Garcia          : C-PCM and meta-GGA Hessian, CC/C-PCM, Gaussian charge scheme
   Yang Guo               : DLPNO-NEVPT2, F12-NEVPT2, CIM, IAO-localization
   Andreas Hansen         : Spin unrestricted coupled pair/coupled cluster methods
   Benjamin Helmich-Paris : MC-RPA, TRAH-SCF, COSX integrals
   Lee Huntington         : MR-EOM, pCC
   Robert Izsak           : Overlap fitted RIJCOSX, COSX-SCS-MP3, EOM
   Marcus Kettner         : VPT2
   Christian Kollmar      : KDIIS, OOCD, Brueckner-CCSD(T), CCSD density, CASPT2, CASPT2-K
   Simone Kossmann        : Meta GGA functionals, TD-DFT gradient, OOMP2, MP2 Hessian
   Martin Krupicka        : Initial AUTO-CI
   Lucas Lang             : DCDCAS
   Marvin Lechner         : AUTO-CI (C++ implementation), FIC-MRCC
   Dagmar Lenk            : GEPOL surface, SMD
   Dimitrios Liakos       : Extrapolation schemes; Compound Job, initial MDCI parallelization
   Dimitrios Manganas     : Further ROCIS development; embedding schemes
   Dimitrios Pantazis     : SARC Basis sets
   Anastasios Papadopoulos: AUTO-CI, single reference methods and gradients
   Taras Petrenko         : DFT Hessian,TD-DFT gradient, ASA, ECA, R-Raman, ABS, FL, XAS/XES, NRVS
   Peter Pinski           : DLPNO-MP2, DLPNO-MP2 Gradient
   Christoph Reimann      : Effective Core Potentials
   Marius Retegan         : Local ZFS, SOC
   Christoph Riplinger    : Optimizer, TS searches, QM/MM, DLPNO-CCSD(T), (RO)-DLPNO pert. Triples
   Tobias Risthaus        : Range-separated hybrids, TD-DFT gradient, RPA, STAB
   Michael Roemelt        : Original ROCIS implementation
   Masaaki Saitow         : Open-shell DLPNO-CCSD energy and density
   Barbara Sandhoefer     : DKH picture change effects
   Avijit Sen             : IP-ROCIS
   Kantharuban Sivalingam : CASSCF convergence, NEVPT2, FIC-MRCI
   Bernardo de Souza      : ESD, SOC TD-DFT
   Georgi Stoychev        : AutoAux, RI-MP2 NMR, DLPNO-MP2 response
   Willem Van den Heuvel  : Paramagnetic NMR
   Boris Wezisla          : Elementary symmetry handling
   Frank Wennmohs         : Technical directorship


 We gratefully acknowledge several colleagues who have allowed us to
 interface, adapt or use parts of their codes:
   Stefan Grimme, W. Hujo, H. Kruse, P. Pracht,  : VdW corrections, initial TS optimization,
                  C. Bannwarth, S. Ehlert          DFT functionals, gCP, sTDA/sTD-DF
   Ed Valeev, F. Pavosevic, A. Kumar             : LibInt (2-el integral package), F12 methods
   Garnet Chan, S. Sharma, J. Yang, R. Olivares  : DMRG
   Ulf Ekstrom                                   : XCFun DFT Library
   Mihaly Kallay                                 : mrcc  (arbitrary order and MRCC methods)
   Jiri Pittner, Ondrej Demel                    : Mk-CCSD
   Frank Weinhold                                : gennbo (NPA and NBO analysis)
   Christopher J. Cramer and Donald G. Truhlar   : smd solvation model
   Lars Goerigk                                  : TD-DFT with DH, B97 family of functionals
   V. Asgeirsson, H. Jonsson                     : NEB implementation
   FAccTs GmbH                                   : IRC, NEB, NEB-TS, DLPNO-Multilevel, CI-OPT
                                                   MM, QMMM, 2- and 3-layer-ONIOM, Crystal-QMMM,
                                                   LR-CPCM, SF, NACMEs, symmetry and pop. for TD-DFT,
                                                   nearIR, NL-DFT gradient (VV10), updates on ESD,
                                                   ML-optimized integration grids
   S Lehtola, MJT Oliveira, MAL Marques          : LibXC Library
   Liviu Ungur et al                             : ANISO software


 Your calculation uses the libint2 library for the computation of 2-el integrals
 For citations please refer to: http://libint.valeyev.net

 Your ORCA version has been built with support for libXC version: 5.1.0
 For citations please refer to: https://tddft.org/programs/libxc/

 This ORCA versions uses:
   CBLAS   interface :  Fast vector & matrix operations
   LAPACKE interface :  Fast linear algebra routines
   SCALAPACK package :  Parallel linear algebra routines
   Shared memory     :  Shared parallel matrices
   BLAS/LAPACK       :  OpenBLAS 0.3.15  USE64BITINT DYNAMIC_ARCH NO_AFFINITY Sandybridge SINGLE_THREADED
        Core in use  :  Sandybridge
   Copyright (c) 2011-2014, The OpenBLAS Project


================================================================================

----- Orbital basis set information -----
Your calculation utilizes the basis: cc-pVDZ 
       H, B-Ne : Obtained from the ccRepo (grant-hill.group.shef.ac.uk/ccrepo) Feb. 2017
                 T. H. Dunning, Jr., J. Chem. Phys. 90, 1007 (1989)
            He : Obtained from the ccRepo (grant-hill.group.shef.ac.uk/ccrepo) Feb. 2017
                 D. E. Woon, T. H. Dunning, Jr., J. Chem. Phys. 100, 2975 (1994)
  Li-Be, Na-Mg : Obtained from the ccRepo (grant-hill.group.shef.ac.uk/ccrepo) Feb. 2017
                 B. P. Prascher, D. E. Woon, K. A. Peterson, T. H. Dunning, Jr., A. K. Wilson, Theor. Chem. Acc. 128, 69 (2011)
         Al-Ar : Obtained from the ccRepo (grant-hill.group.shef.ac.uk/ccrepo) Feb. 2017
                 D. E. Woon, T. H. Dunning, Jr., J. Chem. Phys. 98, 1358 (1993)
            Ca : Obtained from the Peterson Research Group Website (tyr0.chem.wsu.edu/~kipeters) Feb. 2017
                 J. Koput, K. A. Peterson, J. Phys. Chem. 106, 9595 (2002)
         Sc-Zn : Obtained from the ccRepo (grant-hill.group.shef.ac.uk/ccrepo) Feb. 2017
                 N. B. Balabanov, K. A. Peterson, J. Chem. Phys. 123, 064107 (2005)
                 N. B. Balabanov, K. A. Peterson, J. Chem. Phys. 125, 074110 (2006)
         Ga-Kr : Obtained from the ccRepo (grant-hill.group.shef.ac.uk/ccrepo) Feb. 2017
                 A. K. Wilson, D. E. Woon, K. A. Peterson, T. H. Dunning, Jr., J. Chem. Phys. 110, 7667 (1999)

================================================================================
                                        WARNINGS
                       Please study these warnings very carefully!
================================================================================


WARNING: No MP2 level density has been requested!
         To caclulate MP2 level properties use
         %mp2 Density relaxed end
         or
         %mp2 Density unrelaxed end

WARNING: Post HF methods need fully converged wavefunctions
  ===> : Setting SCFConvForced true
         You can overwrite this default with %scf ConvForced false 


INFO   : the flag for use of the SHARK integral package has been found!

================================================================================
                                       INPUT FILE
================================================================================
NAME = /scratch/allen/tmpyp4_amber_gaff2/2.Mdgx/conf11/conf11/Conf254.orca
|  1> ! PAL2
|  2> ! mp2 cc-pvdz TightSCF  NoKeepInts
|  3> 
|  4> %scf
|  5>   MaxCore 2000
|  6> end
|  7> %mp2
|  8>   MaxCore 2000
|  9> end
| 10> * xyz 0 1
| 11>    C       -4.29900         5.60800         1.18400
| 12>    C        1.47400         4.04100         0.05700
| 13>    C       -2.80200         4.09300         0.04900
| 14>    C       -2.90700         4.91800        -1.08200
| 15>    C       -3.69500         6.05100        -1.04300
| 16>    C       -5.18400         7.62200         0.09900
| 17>    C        0.13200         4.30700         0.06100
| 18>    C       -0.56900         3.05600         0.04700
| 19>    C        1.64900         2.61800         0.02300
| 20>    C       -3.51900         4.46700         1.19600
| 21>    N       -4.37900         6.38100         0.07700
| 22>    N        0.38800         2.06700         0.02500
| 23>    N       -2.01000         0.39500        -0.07500
| 24>    N       -0.38800        -2.07400        -0.02700
| 25>    N        2.01000        -0.40100         0.06500
| 26>    C       -1.96000         2.86100         0.02400
| 27>    C       -2.62300         1.61500        -0.01800
| 28>    C       -5.57300        -4.32900         1.06600
| 29>    C       -4.07300         1.47100         0.05600
| 30>    C       -4.10600        -2.75600        -0.02600
| 31>    C       -4.99500        -2.75700        -1.11100
| 32>    C       -6.13200        -3.54200        -1.07600
| 33>    C       -7.65100        -5.11300         0.04000
| 34>    C       -4.32400         0.14100         0.03700
| 35>    C       -3.02500        -0.52000        -0.04800
| 36>    C       -4.42200        -3.56600         1.07500
| 37>    N       -6.40700        -4.31300         0.00100
| 38>    C       -2.86700        -1.92200        -0.04000
| 39>    C       -1.65000        -2.62400        -0.02700
| 40>    C        3.56800        -6.14200        -1.04000
| 41>    C       -1.47600        -4.04900        -0.03400
| 42>    C        2.80300        -4.09900        -0.00800
| 43>    C        3.65700        -4.38400         1.06900
| 44>    C        4.42700        -5.53000         1.05900
| 45>    C        5.24500        -7.58800         0.01400
| 46>    C       -0.13400        -4.31500        -0.02200
| 47>    C        0.56800        -3.06400        -0.02700
| 48>    C        2.77500        -5.01200        -1.07400
| 49>    N        4.37600        -6.39100         0.01700
| 50>    C        1.95900        -2.86900        -0.00900
| 51>    C        2.62100        -1.62200         0.00900
| 52>    C        5.54300         4.33900        -1.13000
| 53>    C        4.07000        -1.47900        -0.09400
| 54>    C        4.10400         2.75100        -0.02100
| 55>    C        5.02700         2.72900         1.03600
| 56>    C        6.16600         3.50900         0.97800
| 57>    C        7.61900         5.15300        -0.11500
| 58>    C        4.32100        -0.14800        -0.09200
| 59>    C        3.02500         0.51400         0.01500
| 60>    C        4.38700         3.58200        -1.11500
| 61>    C        2.86600         1.91600         0.01300
| 62>    N        6.41300         4.29600        -0.09500
| 63>    H       -4.87900         5.92800         2.04100
| 64>    H        2.27400         4.76600         0.08100
| 65>    H       -2.37000         4.68700        -1.99400
| 66>    H       -3.80000         6.72100        -1.88600
| 67>    H       -4.53900         8.46000         0.37200
| 68>    H       -5.60800         7.78300        -0.89200
| 69>    H       -5.98200         7.50900         0.83300
| 70>    H       -0.33200         5.28200         0.06900
| 71>    H       -3.49000         3.86500         2.09600
| 72>    H        0.18200         1.07200         0.00500
| 73>    H       -0.18300        -1.08000        -0.02100
| 74>    H       -5.86400        -4.96200         1.89500
| 75>    H       -4.79400         2.27200         0.13900
| 76>    H       -4.80000        -2.16000        -1.99400
| 77>    H       -6.84100        -3.58200        -1.89300
| 78>    H       -8.42800        -4.53600         0.54600
| 79>    H       -7.95600        -5.33700        -0.98100
| 80>    H       -7.45600        -6.03700         0.58400
| 81>    H       -5.28700        -0.34400         0.10000
| 82>    H       -3.78000        -3.60100         1.94700
| 83>    H        3.58700        -6.86800        -1.84300
| 84>    H       -2.27600        -4.77400        -0.05000
| 85>    H        3.71400        -3.72400         1.92600
| 86>    H        5.09200        -5.79500         1.87100
| 87>    H        6.20500        -7.32900        -0.43900
| 88>    H        5.39300        -7.91700         1.04200
| 89>    H        4.75900        -8.37300        -0.56400
| 90>    H        0.32900        -5.29000        -0.00800
| 91>    H        2.14600        -4.84200        -1.94000
| 92>    H        5.80800         4.98600        -1.95600
| 93>    H        4.78800        -2.28100        -0.18500
| 94>    H        4.86000         2.11400         1.91200
| 95>    H        6.90100         3.53100         1.77200
| 96>    H        7.38300         6.10900         0.35600
| 97>    H        8.41400         4.65200         0.43500
| 98>    H        7.92100         5.31000        -1.15000
| 99>    H        5.28300         0.33600        -0.17900
|100>    H        3.72000         3.63200        -1.96700
|101> *
|102> 
|103>                          ****END OF INPUT****
================================================================================

                       ****************************
                       * Single Point Calculation *
                       ****************************

---------------------------------
CARTESIAN COORDINATES (ANGSTROEM)
---------------------------------
  C     -4.299000    5.608000    1.184000
  C      1.474000    4.041000    0.057000
  C     -2.802000    4.093000    0.049000
  C     -2.907000    4.918000   -1.082000
  C     -3.695000    6.051000   -1.043000
  C     -5.184000    7.622000    0.099000
  C      0.132000    4.307000    0.061000
  C     -0.569000    3.056000    0.047000
  C      1.649000    2.618000    0.023000
  C     -3.519000    4.467000    1.196000
  N     -4.379000    6.381000    0.077000
  N      0.388000    2.067000    0.025000
  N     -2.010000    0.395000   -0.075000
  N     -0.388000   -2.074000   -0.027000
  N      2.010000   -0.401000    0.065000
  C     -1.960000    2.861000    0.024000
  C     -2.623000    1.615000   -0.018000
  C     -5.573000   -4.329000    1.066000
  C     -4.073000    1.471000    0.056000
  C     -4.106000   -2.756000   -0.026000
  C     -4.995000   -2.757000   -1.111000
  C     -6.132000   -3.542000   -1.076000
  C     -7.651000   -5.113000    0.040000
  C     -4.324000    0.141000    0.037000
  C     -3.025000   -0.520000   -0.048000
  C     -4.422000   -3.566000    1.075000
  N     -6.407000   -4.313000    0.001000
  C     -2.867000   -1.922000   -0.040000
  C     -1.650000   -2.624000   -0.027000
  C      3.568000   -6.142000   -1.040000
  C     -1.476000   -4.049000   -0.034000
  C      2.803000   -4.099000   -0.008000
  C      3.657000   -4.384000    1.069000
  C      4.427000   -5.530000    1.059000
  C      5.245000   -7.588000    0.014000
  C     -0.134000   -4.315000   -0.022000
  C      0.568000   -3.064000   -0.027000
  C      2.775000   -5.012000   -1.074000
  N      4.376000   -6.391000    0.017000
  C      1.959000   -2.869000   -0.009000
  C      2.621000   -1.622000    0.009000
  C      5.543000    4.339000   -1.130000
  C      4.070000   -1.479000   -0.094000
  C      4.104000    2.751000   -0.021000
  C      5.027000    2.729000    1.036000
  C      6.166000    3.509000    0.978000
  C      7.619000    5.153000   -0.115000
  C      4.321000   -0.148000   -0.092000
  C      3.025000    0.514000    0.015000
  C      4.387000    3.582000   -1.115000
  C      2.866000    1.916000    0.013000
  N      6.413000    4.296000   -0.095000
  H     -4.879000    5.928000    2.041000
  H      2.274000    4.766000    0.081000
  H     -2.370000    4.687000   -1.994000
  H     -3.800000    6.721000   -1.886000
  H     -4.539000    8.460000    0.372000
  H     -5.608000    7.783000   -0.892000
  H     -5.982000    7.509000    0.833000
  H     -0.332000    5.282000    0.069000
  H     -3.490000    3.865000    2.096000
  H      0.182000    1.072000    0.005000
  H     -0.183000   -1.080000   -0.021000
  H     -5.864000   -4.962000    1.895000
  H     -4.794000    2.272000    0.139000
  H     -4.800000   -2.160000   -1.994000
  H     -6.841000   -3.582000   -1.893000
  H     -8.428000   -4.536000    0.546000
  H     -7.956000   -5.337000   -0.981000
  H     -7.456000   -6.037000    0.584000
  H     -5.287000   -0.344000    0.100000
  H     -3.780000   -3.601000    1.947000
  H      3.587000   -6.868000   -1.843000
  H     -2.276000   -4.774000   -0.050000
  H      3.714000   -3.724000    1.926000
  H      5.092000   -5.795000    1.871000
  H      6.205000   -7.329000   -0.439000
  H      5.393000   -7.917000    1.042000
  H      4.759000   -8.373000   -0.564000
  H      0.329000   -5.290000   -0.008000
  H      2.146000   -4.842000   -1.940000
  H      5.808000    4.986000   -1.956000
  H      4.788000   -2.281000   -0.185000
  H      4.860000    2.114000    1.912000
  H      6.901000    3.531000    1.772000
  H      7.383000    6.109000    0.356000
  H      8.414000    4.652000    0.435000
  H      7.921000    5.310000   -1.150000
  H      5.283000    0.336000   -0.179000
  H      3.720000    3.632000   -1.967000

----------------------------
CARTESIAN COORDINATES (A.U.)
----------------------------
  NO LB      ZA    FRAG     MASS         X           Y           Z
   0 C     6.0000    0    12.011   -8.123933   10.597584    2.237436
   1 C     6.0000    0    12.011    2.785456    7.636383    0.107714
   2 C     6.0000    0    12.011   -5.295013    7.734649    0.092597
   3 C     6.0000    0    12.011   -5.493434    9.293673   -2.044684
   4 C     6.0000    0    12.011   -6.982538   11.434733   -1.970984
   5 C     6.0000    0    12.011   -9.796340   14.403493    0.187083
   6 C     6.0000    0    12.011    0.249444    8.139050    0.115273
   7 C     6.0000    0    12.011   -1.075254    5.775003    0.088817
   8 C     6.0000    0    12.011    3.116158    4.947303    0.043464
   9 C     6.0000    0    12.011   -6.649946    8.441407    2.260112
  10 N     7.0000    0    14.007   -8.275111   12.058342    0.145509
  11 N     7.0000    0    14.007    0.733214    3.906064    0.047243
  12 N     7.0000    0    14.007   -3.798350    0.746442   -0.141729
  13 N     7.0000    0    14.007   -0.733214   -3.919292   -0.051023
  14 N     7.0000    0    14.007    3.798350   -0.757780    0.122832
  15 C     6.0000    0    12.011   -3.703863    5.406506    0.045353
  16 C     6.0000    0    12.011   -4.956752    3.051908   -0.034015
  17 C     6.0000    0    12.011  -10.531444   -8.180624    2.014448
  18 C     6.0000    0    12.011   -7.696855    2.779787    0.105825
  19 C     6.0000    0    12.011   -7.759216   -5.208085   -0.049133
  20 C     6.0000    0    12.011   -9.439182   -5.209975   -2.099486
  21 C     6.0000    0    12.011  -11.587801   -6.693410   -2.033345
  22 C     6.0000    0    12.011  -14.458295   -9.662170    0.075589
  23 C     6.0000    0    12.011   -8.171176    0.266451    0.069920
  24 C     6.0000    0    12.011   -5.716422   -0.982658   -0.090707
  25 C     6.0000    0    12.011   -8.356369   -6.738763    2.031456
  26 N     7.0000    0    14.007  -12.107475   -8.150389    0.001890
  27 C     6.0000    0    12.011   -5.417845   -3.632054   -0.075589
  28 C     6.0000    0    12.011   -3.118048   -4.958641   -0.051023
  29 C     6.0000    0    12.011    6.742543  -11.606698   -1.965315
  30 C     6.0000    0    12.011   -2.789236   -7.651501   -0.064251
  31 C     6.0000    0    12.011    5.296902   -7.745987   -0.015118
  32 C     6.0000    0    12.011    6.910728   -8.284559    2.020117
  33 C     6.0000    0    12.011    8.365818  -10.450186    2.001220
  34 C     6.0000    0    12.011    9.911614  -14.339242    0.026456
  35 C     6.0000    0    12.011   -0.253223   -8.154168   -0.041574
  36 C     6.0000    0    12.011    1.073364   -5.790121   -0.051023
  37 C     6.0000    0    12.011    5.243990   -9.471307   -2.029566
  38 N     7.0000    0    14.007    8.269442  -12.077240    0.032125
  39 C     6.0000    0    12.011    3.701973   -5.421624   -0.017008
  40 C     6.0000    0    12.011    4.952972   -3.065136    0.017008
  41 C     6.0000    0    12.011   10.474752    8.199522   -2.135391
  42 C     6.0000    0    12.011    7.691185   -2.794905   -0.177634
  43 C     6.0000    0    12.011    7.755436    5.198637   -0.039684
  44 C     6.0000    0    12.011    9.499653    5.157063    1.957756
  45 C     6.0000    0    12.011   11.652051    6.631049    1.848152
  46 C     6.0000    0    12.011   14.397823    9.737759   -0.217319
  47 C     6.0000    0    12.011    8.165507   -0.279679   -0.173855
  48 C     6.0000    0    12.011    5.716422    0.971319    0.028346
  49 C     6.0000    0    12.011    8.290229    6.768999   -2.107045
  50 C     6.0000    0    12.011    5.415955    3.620715    0.024566
  51 N     7.0000    0    14.007   12.118814    8.118263   -0.179524
  52 H     1.0000    0     1.008   -9.219974   11.202297    3.856931
  53 H     1.0000    0     1.008    4.297237    9.006435    0.153068
  54 H     1.0000    0     1.008   -4.478651    8.857146   -3.768114
  55 H     1.0000    0     1.008   -7.180959   12.700849   -3.564023
  56 H     1.0000    0     1.008   -8.577467   15.987083    0.702978
  57 H     1.0000    0     1.008  -10.597584   14.707739   -1.685636
  58 H     1.0000    0     1.008  -11.304342   14.189954    1.574142
  59 H     1.0000    0     1.008   -0.627389    9.981533    0.130391
  60 H     1.0000    0     1.008   -6.595144    7.303792    3.960866
  61 H     1.0000    0     1.008    0.343930    2.025786    0.009449
  62 H     1.0000    0     1.008   -0.345820   -2.040904   -0.039684
  63 H     1.0000    0     1.008  -11.081354   -9.376821    3.581031
  64 H     1.0000    0     1.008   -9.059347    4.293458    0.262672
  65 H     1.0000    0     1.008   -9.070685   -4.081808   -3.768114
  66 H     1.0000    0     1.008  -12.927616   -6.768999   -3.577252
  67 H     1.0000    0     1.008  -15.926612   -8.571798    1.031790
  68 H     1.0000    0     1.008  -15.034661  -10.085468   -1.853821
  69 H     1.0000    0     1.008  -14.089798  -11.408277    1.103600
  70 H     1.0000    0     1.008   -9.990982   -0.650066    0.188973
  71 H     1.0000    0     1.008   -7.143165   -6.804904    3.679297
  72 H     1.0000    0     1.008    6.778448  -12.978639   -3.482765
  73 H     1.0000    0     1.008   -4.301017   -9.021553   -0.094486
  74 H     1.0000    0     1.008    7.018443   -7.037340    3.639613
  75 H     1.0000    0     1.008    9.622485  -10.950963    3.535678
  76 H     1.0000    0     1.008   11.725751  -13.849803   -0.829590
  77 H     1.0000    0     1.008   10.191293  -14.960962    1.969095
  78 H     1.0000    0     1.008    8.993207  -15.822677   -1.065806
  79 H     1.0000    0     1.008    0.621720   -9.996651   -0.015118
  80 H     1.0000    0     1.008    4.055352   -9.150054   -3.666069
  81 H     1.0000    0     1.008   10.975529    9.422175   -3.696304
  82 H     1.0000    0     1.008    9.048009   -4.310465   -0.349599
  83 H     1.0000    0     1.008    9.184069    3.994881    3.613156
  84 H     1.0000    0     1.008   13.041000    6.672623    3.348595
  85 H     1.0000    0     1.008   13.951848   11.544337    0.672743
  86 H     1.0000    0     1.008   15.900156    8.791006    0.822031
  87 H     1.0000    0     1.008   14.968521   10.034446   -2.173185
  88 H     1.0000    0     1.008    9.983423    0.634948   -0.338261
  89 H     1.0000    0     1.008    7.029781    6.863485   -3.717091

--------------------------------
INTERNAL COORDINATES (ANGSTROEM)
--------------------------------
 C      0   0   0     0.000000000000     0.00000000     0.00000000
 C      1   0   0     6.087129619123     0.00000000     0.00000000
 C      1   2   0     2.413391596903    33.18049147     0.00000000
 C      3   1   2     1.403855761822    87.91312930   265.53478710
 C      4   3   1     1.380635360984   120.14516147     0.10210334
 C      5   4   3     2.447309951763   152.52729683     1.73100380
 C      2   1   3     1.368114030335    11.22081254    33.23465273
 C      7   2   3     1.434084376876   108.05010202     0.84668783
 C      2   1   3     1.434123425651   112.05828884   321.21943400
 C      1   2   3     1.382181247160    41.74593938    48.86341730
 N      1   2   3     1.352545008493    92.96274550   273.43191337
 N      9   2   1     1.376127174356   106.58526707    10.47368105
 N     12   9   2     2.925062050624   168.53581413   171.12065651
 N     13  12   9     2.954513327098    91.55032014    11.12112580
 N     14  13  12     2.925371258490    88.43092389   359.84326247
 C      8   7   2     1.404790019896   127.24786865   181.11170171
 C     13  12   9     1.366535034311    81.72106996   188.00453233
 C     14  13  12     5.758810554272    80.56209567   166.76250791
 C     17  13  12     1.459010623676   111.08861209   183.82872609
 C     18  14  13     2.412235892279    27.27532823    36.33507194
 C     20  18  14     1.402692767501    87.95206320   148.94598259
 C     21  20  18     1.382106725257   120.14573887   359.70382047
 C     18  14  13     2.446510985056   144.15733107    82.80075377
 C     19  17  13     1.353610726908   106.29293361   359.75308708
 C     13  12   9     1.366813447402   172.21332906    33.46711076
 C     18  14  13     1.380960173213    15.08449437   309.23336894
 N     22  21  20     1.352773077792   120.73759875     0.27865223
 C     25  13  17     1.410897586645   125.60330303   182.37774668
 C     14  13  12     1.376642291955    80.24689249   177.85461986
 C     14  13  12     5.764089607215   164.51507311   312.20821879
 C     29  14  13     1.435600919476   106.58649366   178.76395472
 C     30  14  13     2.413316804732    27.10625047    82.12560436
 C     32  30  14     1.403734305344    87.90059683   149.76154742
 C     33  32  30     1.380694028378   120.14881443   359.74174632
 C     34  33  32     2.448777858443   152.49203239     2.45173620
 C     31  29  14     1.368160809262   108.16950133     0.70383075
 C     14  13  12     1.376239804685   169.26375223   353.09862627
 C     30  14  13     1.380907310430    14.68948582   353.70041132
 N     34  33  32     1.352658863128   120.85575621     0.19603406
 C     37  14  29     1.404717053360   126.01551127   180.90772073
 C     15  14  13     1.366491126938    81.61824056   183.09049352
 C      2   1   3     4.249062720177   160.36822801   125.56484910
 C     41  15  14     1.459677704153   111.05201287   175.08990246
 C     42   2   1     2.412953791518    41.78584867   170.85983907
 C     44  42   2     1.403446472082    87.95153797   233.97558675
 C     45  44  42     1.381696421071   120.11137308     0.19721020
 C     42   2   1     2.450019795838   135.97209175    81.17468818
 C     43  41  15     1.354461516618   106.26758155     0.30894352
 C     15  14  13     1.367461151185   171.87382904   332.35056460
 C     42   2   1     1.381886391857    32.59078432   219.71511827
 C      9   2   1     1.404988612053   126.98745415   191.47801858
 N     42   2   1     1.352765315936   113.57249190   108.91127737
 H      1   2   3     1.083166192235   136.91763967   138.13949703
 H      2   1   3     1.079907866440   121.71094713   152.32439277
 H      4   3   1     1.083270049434   121.05563220   179.57948147
 H      5   4   3     1.081930681698   122.79066454   179.46659793
 H      6   5   4     1.092152919696   104.46975963   100.05175843
 H      6   5   4     1.089852283569    84.67662254   209.46962583
 H      6   5   4     1.090105040810   133.87176055   322.29768315
 H      7   2  54     1.079807853278   126.66122480     1.30600390
 H     10   1   2     1.083164345794   118.75871105   126.15155505
 H     12   9   2     1.016297692608   125.29023241   180.00180175
 H     14  13  12     1.014936943854    44.97226959   359.42596618
 H     18  14  13     1.082871645210   128.03556573   234.20482432
 H     19  17  13     1.080893611786   126.41830519   178.11313280
 H     21  20  18     1.083569563987   121.05669627   180.67006309
 H     22  21  20     1.082483256222   122.73097286   180.59748951
 H     23  18  14     1.092105306278   103.92715769   234.93429879
 H     23  18  14     1.088871893291   134.19244188    12.25587044
 H     23  18  14     1.089833473518    84.85857450   125.45241208
 H     24  19  17     1.080075460327   127.28078426   178.44613241
 H     26  18  14     1.083408048706   118.76995697   244.94906660
 H     30  14  13     1.082703098730   127.99711412   279.66882698
 H     31  29  14     1.079759695488   125.22293469   180.92530585
 H     33  32  30     1.083188810873   121.01964473   180.74284758
 H     34  33  32     1.082494341787   122.70821597   180.59516895
 H     35  34  33     1.092652735319   105.73575241    97.19771933
 H     35  34  33     1.089462711615    84.05943581   206.43036958
 H     35  34  33     1.089268102902   133.08365142   318.50306270
 H     36  31  29     1.079439669458   126.61599965   178.98859863
 H     38  30  73     1.083742127999   118.77264435   359.90091293
 H     42   2   1     1.082178358682   119.31790784   325.54280782
 H     43  41  15     1.080281907652   126.36969097   182.06329380
 H     45  44  42     1.083277434455   121.10105945   179.58025624
 H     46  45  44     1.082194529648   122.72144639   179.46906377
 H     47  42   2     1.091546151109   106.65128841   315.16475048
 H     47  42   2     1.088818625851   132.46019523    94.52397119
 H     47  42   2     1.089531091801    83.63838232   206.04504406
 H     48  43  41     1.080402239909   127.23657387   181.62955349
 H     50  42   2     1.083186502870   118.77001737    94.71359229

---------------------------
INTERNAL COORDINATES (A.U.)
---------------------------
 C      0   0   0     0.000000000000     0.00000000     0.00000000
 C      1   0   0    11.503007921822     0.00000000     0.00000000
 C      1   2   0     4.560649172053    33.18049147     0.00000000
 C      3   1   2     2.652902921370    87.91312930   265.53478710
 C      4   3   1     2.609022723068   120.14516147     0.10210334
 C      5   4   3     4.624745573653   152.52729683     1.73100380
 C      2   1   3     2.585360837309    11.22081254    33.23465273
 C      7   2   3     2.710026725231   108.05010202     0.84668783
 C      2   1   3     2.710100516721   112.05828884   321.21943400
 C      1   2   3     2.611944024574    41.74593938    48.86341730
 N      1   2   3     2.555939649854    92.96274550   273.43191337
 N      9   2   1     2.600503484979   106.58526707    10.47368105
 N     12   9   2     5.527566200405   168.53581413   171.12065651
 N     13  12   9     5.583221047236    91.55032014    11.12112580
 N     14  13  12     5.528150518591    88.43092389   359.84326247
 C      8   7   2     2.654668413270   127.24786865   181.11170171
 C     13  12   9     2.582376967257    81.72106996   188.00453233
 C     14  13  12    10.882574804710    80.56209567   166.76250791
 C     17  13  12     2.757130505230   111.08861209   183.82872609
 C     18  14  13     4.558465206823    27.27532823    36.33507194
 C     20  18  14     2.650705180609    87.95206320   148.94598259
 C     21  20  18     2.611803198586   120.14573887   359.70382047
 C     18  14  13     4.623235745386   144.15733107    82.80075377
 C     19  17  13     2.557953565794   106.29293361   359.75308708
 C     13  12   9     2.582903091751   172.21332906    33.46711076
 C     18  14  13     2.609636529225    15.08449437   309.23336894
 N     22  21  20     2.556370638369   120.73759875     0.27865223
 C     25  13  17     2.666210041769   125.60330303   182.37774668
 C     14  13  12     2.601476916169    80.24689249   177.85461986
 C     14  13  12    10.892550769017   164.51507311   312.20821879
 C     29  14  13     2.712892575415   106.58649366   178.76395472
 C     30  14  13     4.560507835333    27.10625047    82.12560436
 C     32  30  14     2.652673401891    87.90059683   149.76154742
 C     33  32  30     2.609133588376   120.14881443   359.74174632
 C     34  33  32     4.627519515267   152.49203239     2.45173620
 C     31  29  14     2.585449236669   108.16950133     0.70383075
 C     14  13  12     2.600716325456   169.26375223   353.09862627
 C     30  14  13     2.609536633043    14.68948582   353.70041132
 N     34  33  32     2.556154803934   120.85575621     0.19603406
 C     37  14  29     2.654530526499   126.01551127   180.90772073
 C     15  14  13     2.582293994346    81.61824056   183.09049352
 C      2   1   3     8.029564866989   160.36822801   125.56484910
 C     41  15  14     2.758391104639   111.05201287   175.08990246
 C     42   2   1     4.559821839776    41.78584867   170.85983907
 C     44  42   2     2.652129475853    87.95153797   233.97558675
 C     45  44  42     2.611027836043   120.11137308     0.19721020
 C     42   2   1     4.629866436820   135.97209175    81.17468818
 C     43  41  15     2.559561325344   106.26758155     0.30894352
 C     15  14  13     2.584127074516   171.87382904   332.35056460
 C     42   2   1     2.611386828803    32.59078432   219.71511827
 C      9   2   1     2.655043698059   126.98745415   191.47801858
 N     42   2   1     2.556355970587   113.57249190   108.91127737
 H      1   2   3     2.046887460846   136.91763967   138.13949703
 H      2   1   3     2.040730117440   121.71094713   152.32439277
 H      4   3   1     2.047083722509   121.05563220   179.57948147
 H      5   4   3     2.044552684296   122.79066454   179.46659793
 H      6   5   4     2.063869914588   104.46975963   100.05175843
 H      6   5   4     2.059522342374    84.67662254   209.46962583
 H      6   5   4     2.059999984338   133.87176055   322.29768315
 H      7   2  54     2.040541119952   126.66122480     1.30600390
 H     10   1   2     2.046883971579   118.75871105   126.15155505
 H     12   9   2     1.920524309565   125.29023241   180.00180175
 H     14  13  12     1.917952867083    44.97226959   359.42596618
 H     18  14  13     2.046330847636   128.03556573   234.20482432
 H     19  17  13     2.042592906181   126.41830519   178.11313280
 H     21  20  18     2.047649722989   121.05669627   180.67006309
 H     22  21  20     2.045596898814   122.73097286   180.59748951
 H     23  18  14     2.063779938267   103.92715769   234.93429879
 H     23  18  14     2.057669673245   134.19244188    12.25587044
 H     23  18  14     2.059486796529    84.85857450   125.45241208
 H     24  19  17     2.041046823986   127.28078426   178.44613241
 H     26  18  14     2.047344503340   118.76995697   244.94906660
 H     30  14  13     2.046012340948   127.99711412   279.66882698
 H     31  29  14     2.040450114918   125.22293469   180.92530585
 H     33  32  30     2.046930203877   121.01964473   180.74284758
 H     34  33  32     2.045617847496   122.70821597   180.59516895
 H     35  34  33     2.064814429233   105.73575241    97.19771933
 H     35  34  33     2.058786158072    84.05943581   206.43036958
 H     35  34  33     2.058418400901   133.08365142   318.50306270
 H     36  31  29     2.039845353366   126.61599965   178.98859863
 H     38  30  73     2.047975821711   118.77264435   359.90091293
 H     42   2   1     2.045020725966   119.31790784   325.54280782
 H     43  41  15     2.041436952892   126.36969097   182.06329380
 H     45  44  42     2.047097678177   121.10105945   179.58025624
 H     46  45  44     2.045051284662   122.72144639   179.46906377
 H     47  42   2     2.062723288131   106.65128841   315.16475048
 H     47  42   2     2.057569012371   132.46019523    94.52397119
 H     47  42   2     2.058915377895    83.63838232   206.04504406
 H     48  43  41     2.041664347903   127.23657387   181.62955349
 H     50  42   2     2.046925842384   118.77001737    94.71359229

---------------------
BASIS SET INFORMATION
---------------------
There are 3 groups of distinct atoms

 Group   1 Type C   : 17s4p1d contracted to 3s2p1d pattern {881/31/1}
 Group   2 Type N   : 17s4p1d contracted to 3s2p1d pattern {881/31/1}
 Group   3 Type H   : 4s1p contracted to 2s1p pattern {31/1}

Atom   0C    basis set group =>   1
Atom   1N    basis set group =>   2
Atom   2C    basis set group =>   1
Atom   3N    basis set group =>   2
Atom   4C    basis set group =>   1
Atom   5N    basis set group =>   2
Atom   6C    basis set group =>   1
Atom   7N    basis set group =>   2
Atom   8C    basis set group =>   1
Atom   9N    basis set group =>   2
Atom  10C    basis set group =>   1
Atom  11N    basis set group =>   2
Atom  12C    basis set group =>   1
Atom  13N    basis set group =>   2
Atom  14C    basis set group =>   1
Atom  15N    basis set group =>   2
Atom  16C    basis set group =>   1
Atom  17C    basis set group =>   1
Atom  18C    basis set group =>   1
Atom  19C    basis set group =>   1
Atom  20C    basis set group =>   1
Atom  21C    basis set group =>   1
Atom  22C    basis set group =>   1
Atom  23C    basis set group =>   1
Atom  24C    basis set group =>   1
Atom  25C    basis set group =>   1
Atom  26C    basis set group =>   1
Atom  27C    basis set group =>   1
Atom  28C    basis set group =>   1
Atom  29C    basis set group =>   1
Atom  30C    basis set group =>   1
Atom  31C    basis set group =>   1
Atom  32C    basis set group =>   1
Atom  33C    basis set group =>   1
Atom  34C    basis set group =>   1
Atom  35C    basis set group =>   1
Atom  36C    basis set group =>   1
Atom  37C    basis set group =>   1
Atom  38C    basis set group =>   1
Atom  39C    basis set group =>   1
Atom  40C    basis set group =>   1
Atom  41C    basis set group =>   1
Atom  42C    basis set group =>   1
Atom  43C    basis set group =>   1
Atom  44C    basis set group =>   1
Atom  45C    basis set group =>   1
Atom  46C    basis set group =>   1
Atom  47C    basis set group =>   1
Atom  48C    basis set group =>   1
Atom  49C    basis set group =>   1
Atom  50C    basis set group =>   1
Atom  51C    basis set group =>   1
Atom  52H    basis set group =>   3
Atom  53H    basis set group =>   3
Atom  54H    basis set group =>   3
Atom  55H    basis set group =>   3
Atom  56H    basis set group =>   3
Atom  57H    basis set group =>   3
Atom  58H    basis set group =>   3
Atom  59H    basis set group =>   3
Atom  60H    basis set group =>   3
Atom  61H    basis set group =>   3
Atom  62H    basis set group =>   3
Atom  63H    basis set group =>   3
Atom  64H    basis set group =>   3
Atom  65H    basis set group =>   3
Atom  66H    basis set group =>   3
Atom  67H    basis set group =>   3
Atom  68H    basis set group =>   3
Atom  69H    basis set group =>   3
Atom  70H    basis set group =>   3
Atom  71H    basis set group =>   3
Atom  72H    basis set group =>   3
Atom  73H    basis set group =>   3
Atom  74H    basis set group =>   3
Atom  75H    basis set group =>   3
Atom  76H    basis set group =>   3
Atom  77H    basis set group =>   3
Atom  78H    basis set group =>   3
Atom  79H    basis set group =>   3
Atom  80H    basis set group =>   3
Atom  81H    basis set group =>   3
Atom  82H    basis set group =>   3
Atom  83H    basis set group =>   3
Atom  84H    basis set group =>   3
Atom  85H    basis set group =>   3
Atom  86H    basis set group =>   3
Atom  87H    basis set group =>   3
Atom  88H    basis set group =>   3
Atom  89H    basis set group =>   3


           ************************************************************
           *        Program running with 16 parallel MPI-processes    *
           *              working on a common directory               *
           ************************************************************
------------------------------------------------------------------------------
                           ORCA GTO INTEGRAL CALCULATION
------------------------------------------------------------------------------
------------------------------------------------------------------------------
                   ___                                                        
                  /   \      - P O W E R E D   B Y -                         
                 /     \                                                     
                 |  |  |   _    _      __       _____    __    __             
                 |  |  |  | |  | |    /  \     |  _  \  |  |  /  |          
                  \  \/   | |  | |   /    \    | | | |  |  | /  /          
                 / \  \   | |__| |  /  /\  \   | |_| |  |  |/  /          
                |  |  |   |  __  | /  /__\  \  |    /   |      \           
                |  |  |   | |  | | |   __   |  |    \   |  |\   \          
                \     /   | |  | | |  |  |  |  | |\  \  |  | \   \       
                 \___/    |_|  |_| |__|  |__|  |_| \__\ |__|  \__/        
                                                                              
                      - O R C A' S   B I G   F R I E N D -                    
                                      &                                       
                       - I N T E G R A L  F E E D E R -                       
                                                                              
 v1 FN, 2020, v2 2021                                                         
------------------------------------------------------------------------------


Reading SHARK input file /scratch/allen/tmpyp4_amber_gaff2/conf1/conf1/Conf254.orca.SHARKINP.tmp ... ok
----------------------
SHARK INTEGRAL PACKAGE
----------------------

Number of atoms                             ...     90
Number of basis functions                   ...   1230
Number of shells                            ...    738
Maximum angular momentum                    ...      2
Integral batch strategy                     ... SHARK/LIBINT Hybrid
RI-J (if used) integral strategy            ... SPLIT-RIJ (Revised 2003 algorithm where possible)
Printlevel                                  ...      1
Contraction scheme used                     ... PARTIAL GENERAL contraction
Coulomb Range Separation                    ... NOT USED
Exchange Range Separation                   ... NOT USED
Finite Nucleus Model                        ... NOT USED
Auxiliary Coulomb fitting basis             ... NOT available
Auxiliary J/K fitting basis                 ... NOT available
Auxiliary Correlation fitting basis         ... NOT available
Auxiliary 'external' fitting basis          ... NOT available
Integral threshold                          ...     2.500000e-11
Primitive cut-off                           ...     2.500000e-12
Primitive pair pre-selection threshold      ...     2.500000e-12

Calculating pre-screening integrals         ... done (  0.1 sec) Dimension = 738
Calculating pre-screening integrals (ORCA)  ... done (  0.3 sec) Dimension = 426
Organizing shell pair data                  ... done (  0.7 sec)
Shell pair information
Total number of shell pairs                 ...    272691
Shell pairs after pre-screening             ...     71584
Total number of primitive shell pairs       ...    422091
Primitive shell pairs kept                  ...     92344
          la=0 lb=0:  29408 shell pairs
          la=1 lb=0:  25956 shell pairs
          la=1 lb=1:   4684 shell pairs
          la=2 lb=0:   7880 shell pairs
          la=2 lb=1:   3125 shell pairs
          la=2 lb=2:    531 shell pairs

Calculating one electron integrals          ... done (  0.2 sec)
Calculating Nuclear repulsion               ... done (  0.0 sec) ENN=   6222.950526654110 Eh

SHARK setup successfully completed in   2.1 seconds

Maximum memory used throughout the entire GTOINT-calculation: 99.0 MB


           ************************************************************
           *        Program running with 16 parallel MPI-processes    *
           *              working on a common directory               *
           ************************************************************
-------------------------------------------------------------------------------
                                 ORCA SCF
-------------------------------------------------------------------------------

------------
SCF SETTINGS
------------
Hamiltonian:
 Ab initio Hamiltonian  Method          .... Hartree-Fock(GTOs)


General Settings:
 Integral files         IntName         .... /scratch/allen/tmpyp4_amber_gaff2/conf1/conf1/Conf254.orca
 Hartree-Fock type      HFTyp           .... RHF
 Total Charge           Charge          ....    0
 Multiplicity           Mult            ....    1
 Number of Electrons    NEL             ....  358
 Basis Dimension        Dim             ....  918
 Nuclear Repulsion      ENuc            ....   6222.9505266541 Eh

Convergence Acceleration:
 DIIS                   CNVDIIS         .... on
   Start iteration      DIISMaxIt       ....    12
   Startup error        DIISStart       ....  0.200000
   # of expansion vecs  DIISMaxEq       ....     5
   Bias factor          DIISBfac        ....   1.050
   Max. coefficient     DIISMaxC        ....  10.000
 Trust-Rad. Augm. Hess. CNVTRAH         .... auto
   Auto Start mean grad. ratio tolernc. ....  1.125000
   Auto Start start iteration           ....    20
   Auto Start num. interpolation iter.  ....    10
   Max. Number of Micro iterations      ....    16
   Max. Number of Macro iterations      .... Maxiter - #DIIS iter
   Number of Davidson start vectors     ....     2
   Converg. threshold I  (grad. norm)   ....   1.000e-05
   Converg. threshold II (energy diff.) ....   1.000e-08
   Grad. Scal. Fac. for Micro threshold ....   0.100
   Minimum threshold for Micro iter.    ....   0.010
   NR start threshold (gradient norm)   ....   0.001
   Initial trust radius                 ....   0.400
   Minimum AH scaling param. (alpha)    ....   1.000
   Maximum AH scaling param. (alpha)    .... 1000.000
   Orbital update algorithm             .... Taylor
   White noise on init. David. guess    .... on
   Maximum white noise                  ....   0.010
   Quad. conv. algorithm                .... NR
 SOSCF                  CNVSOSCF        .... on
   Start iteration      SOSCFMaxIt      ....   150
   Startup grad/error   SOSCFStart      ....  0.003300
 Level Shifting         CNVShift        .... on
   Level shift para.    LevelShift      ....    0.2500
   Turn off err/grad.   ShiftErr        ....    0.0010
 Zerner damping         CNVZerner       .... off
 Static damping         CNVDamp         .... on
   Fraction old density DampFac         ....    0.7000
   Max. Damping (<1)    DampMax         ....    0.9800
   Min. Damping (>=0)   DampMin         ....    0.0000
   Turn off err/grad.   DampErr         ....    0.1000
 Fernandez-Rico         CNVRico         .... off

SCF Procedure:
 Maximum # iterations   MaxIter         ....   125
 SCF integral mode      SCFMode         .... Direct
   Integral package                     .... SHARK and LIBINT hybrid scheme
 Reset frequency        DirectResetFreq ....    20
 Integral Threshold     Thresh          ....  2.500e-11 Eh
 Primitive CutOff       TCut            ....  2.500e-12 Eh

Convergence Tolerance:
 Convergence Check Mode ConvCheckMode   .... Total+1el-Energy
 Convergence forced     ConvForced      .... 1
 Energy Change          TolE            ....  1.000e-08 Eh
 1-El. energy change                    ....  1.000e-05 Eh
 Orbital Gradient       TolG            ....  1.000e-05
 Orbital Rotation angle TolX            ....  1.000e-05
 DIIS Error             TolErr          ....  5.000e-07


Diagonalization of the overlap matrix:
Smallest eigenvalue                        ... 2.258e-04
Time for diagonalization                   ...    0.454 sec
Threshold for overlap eigenvalues          ... 1.000e-08
Number of eigenvalues below threshold      ... 0
Time for construction of square roots      ...    0.268 sec
Total time needed                          ...    0.729 sec

Time for model grid setup =    1.300 sec

------------------------------
INITIAL GUESS: MODEL POTENTIAL
------------------------------
Loading Hartree-Fock densities                     ... done
Calculating cut-offs                               ... done
Initializing the effective Hamiltonian             ... done
Setting up the integral package (SHARK)            ... done
Starting the Coulomb interaction                   ... done (   1.5 sec)
Reading the grid                                   ... done
Mapping shells                                     ... done
Starting the XC term evaluation                    ... done (   0.2 sec)
Transforming the Hamiltonian                       ... done (   0.3 sec)
Diagonalizing the Hamiltonian                      ... done (   0.4 sec)
Back transforming the eigenvectors                 ... done (   0.1 sec)
Now organizing SCF variables                       ... done
                      ------------------
                      INITIAL GUESS DONE (   3.8 sec)
                      ------------------
--------------
SCF ITERATIONS
--------------
ITER       Energy         Delta-E        Max-DP      RMS-DP      [F,P]     Damp
               ***  Starting incremental Fock matrix formation  ***
  0  -2121.6502680368   0.000000000000 0.06926803  0.00121281  0.2343755 0.7000
  1  -2122.3189220459  -0.668654009054 0.05262102  0.00098359  0.1449139 0.7000
                               ***Turning on DIIS***
  2  -2122.7346557757  -0.415733729797 0.11702107  0.00222516  0.0804356 0.0000
  3  -2117.7015643714   5.033091404332 0.03315482  0.00068890  0.0444220 0.0000
  4  -2123.4014068793  -5.699842507966 0.00894531  0.00023056  0.0071310 0.0000
  5  -2123.5813755779  -0.179968698603 0.00518971  0.00013828  0.0050435 0.0000
  6  -2123.5633118765   0.018063701427 0.00375697  0.00009258  0.0021851 0.0000
  7  -2123.6702163616  -0.106904485088 0.00327313  0.00007608  0.0016701 0.0000
  8  -2123.6978199596  -0.027603597991 0.00305902  0.00007515  0.0015560 0.0000
  9  -2123.6572692315   0.040550728121 0.00266327  0.00005349  0.0012247 0.0000
 10  -2123.6795739175  -0.022304686077 0.00678890  0.00011928  0.0009223 0.0000
                      *** Initiating the SOSCF procedure ***
                           *** Shutting down DIIS ***
                      *** Re-Reading the Fockian *** 
                      *** Removing any level shift *** 
ITER      Energy       Delta-E        Grad      Rot      Max-DP    RMS-DP
 11  -2123.51936511   0.1602088094  0.000243  0.000243  0.000262  0.000006
               *** Restarting incremental Fock matrix formation ***
 12  -2123.61411990  -0.0947547876  0.000954  0.007847  0.001697  0.000041
 13  -2123.61426601  -0.0001461127  0.001243  0.032138  0.008970  0.000152
 14  -2123.61451661  -0.0002506002  0.000414  0.003617  0.001078  0.000020
 15  -2123.61454789  -0.0000312766  0.000369  0.011146  0.002605  0.000048
 16  -2123.61458377  -0.0000358801  0.000243  0.005774  0.001220  0.000027
 17  -2123.61459845  -0.0000146849  0.000323  0.007934  0.001273  0.000028
 18  -2123.61461240  -0.0000139518  0.000225  0.006025  0.001210  0.000022
 19  -2123.61461959  -0.0000071877  0.000137  0.002319  0.000488  0.000008
 20  -2123.61462148  -0.0000018909  0.000091  0.001812  0.000379  0.000007
 21  -2123.61462296  -0.0000014806  0.000060  0.001769  0.000287  0.000007
 22  -2123.61462393  -0.0000009669  0.000043  0.001393  0.000250  0.000005
 23  -2123.61462440  -0.0000004672  0.000032  0.000925  0.000177  0.000003
 24  -2123.61462462  -0.0000002219  0.000016  0.000436  0.000087  0.000002
 25  -2123.61462471  -0.0000000881  0.000014  0.000297  0.000066  0.000001
 26  -2123.61462475  -0.0000000412  0.000012  0.000415  0.000087  0.000002
 27  -2123.61462478  -0.0000000304  0.000010  0.000340  0.000072  0.000001
 28  -2123.61462479  -0.0000000161  0.000008  0.000261  0.000050  0.000001
 29  -2123.61462480  -0.0000000104  0.000004  0.000100  0.000020  0.000000
                  ***Gradient check signals convergence***
              ***Rediagonalizing the Fockian in SOSCF/NRSCF***

               *****************************************************
               *                     SUCCESS                       *
               *           SCF CONVERGED AFTER  30 CYCLES          *
               *****************************************************


----------------
TOTAL SCF ENERGY
----------------

Total Energy       :        -2123.61462480 Eh          -57786.49175 eV

Components:
Nuclear Repulsion  :         6222.95052665 Eh          169335.09266 eV
Electronic Energy  :        -8346.56515146 Eh         -227121.58441 eV
One Electron Energy:       -15287.28701064 Eh         -415988.22799 eV
Two Electron Energy:         6940.72185918 Eh          188866.64358 eV

Virial components:
Potential Energy   :        -4245.60184915 Eh         -115528.69968 eV
Kinetic Energy     :         2121.98722434 Eh           57742.20793 eV
Virial Ratio       :            2.00076692


---------------
SCF CONVERGENCE
---------------

  Last Energy change         ...    4.9113e-11  Tolerance :   1.0000e-08
  Last MAX-Density change    ...    9.5252e-06  Tolerance :   1.0000e-07
  Last RMS-Density change    ...    1.9763e-07  Tolerance :   5.0000e-09
  Last Orbital Gradient      ...    1.9689e-06  Tolerance :   1.0000e-05
  Last Orbital Rotation      ...    3.4279e-05  Tolerance :   1.0000e-05

             **** THE GBW FILE WAS UPDATED (/scratch/allen/tmpyp4_amber_gaff2/conf1/conf1/Conf254.orca.gbw) ****
             **** DENSITY /scratch/allen/tmpyp4_amber_gaff2/conf1/conf1/Conf254.orca.scfp WAS UPDATED ****
             **** ENERGY FILE WAS UPDATED (/scratch/allen/tmpyp4_amber_gaff2/conf1/conf1/Conf254.orca.en.tmp) ****
             **** THE GBW FILE WAS UPDATED (/scratch/allen/tmpyp4_amber_gaff2/conf1/conf1/Conf254.orca.gbw) ****
             **** DENSITY /scratch/allen/tmpyp4_amber_gaff2/conf1/conf1/Conf254.orca.scfp WAS UPDATED ****
----------------
ORBITAL ENERGIES
----------------

  NO   OCC          E(Eh)            E(eV) 
   0   2.0000     -15.675593      -426.5546 
   1   2.0000     -15.636574      -425.4928 
   2   2.0000     -15.624154      -425.1548 
   3   2.0000     -15.601243      -424.5314 
   4   2.0000     -15.518578      -422.2820 
   5   2.0000     -15.510317      -422.0572 
   6   2.0000     -15.447895      -420.3586 
   7   2.0000     -15.433902      -419.9778 
   8   2.0000     -11.324453      -308.1540 
   9   2.0000     -11.324019      -308.1422 
  10   2.0000     -11.323011      -308.1148 
  11   2.0000     -11.301053      -307.5173 
  12   2.0000     -11.294826      -307.3478 
  13   2.0000     -11.293029      -307.2990 
  14   2.0000     -11.289461      -307.2018 
  15   2.0000     -11.284273      -307.0607 
  16   2.0000     -11.278861      -306.9134 
  17   2.0000     -11.278456      -306.9024 
  18   2.0000     -11.275026      -306.8090 
  19   2.0000     -11.263895      -306.5062 
  20   2.0000     -11.260866      -306.4238 
  21   2.0000     -11.259327      -306.3819 
  22   2.0000     -11.258654      -306.3635 
  23   2.0000     -11.239877      -305.8526 
  24   2.0000     -11.232210      -305.6440 
  25   2.0000     -11.231348      -305.6205 
  26   2.0000     -11.228387      -305.5400 
  27   2.0000     -11.223060      -305.3950 
  28   2.0000     -11.222795      -305.3878 
  29   2.0000     -11.207586      -304.9739 
  30   2.0000     -11.206355      -304.9404 
  31   2.0000     -11.205538      -304.9182 
  32   2.0000     -11.202932      -304.8473 
  33   2.0000     -11.202683      -304.8405 
  34   2.0000     -11.188118      -304.4442 
  35   2.0000     -11.187812      -304.4359 
  36   2.0000     -11.184133      -304.3357 
  37   2.0000     -11.183428      -304.3166 
  38   2.0000     -11.182259      -304.2847 
  39   2.0000     -11.167775      -303.8906 
  40   2.0000     -11.166202      -303.8478 
  41   2.0000     -11.163392      -303.7713 
  42   2.0000     -11.159149      -303.6559 
  43   2.0000     -11.157397      -303.6082 
  44   2.0000     -11.155969      -303.5694 
  45   2.0000     -11.155738      -303.5631 
  46   2.0000     -11.153469      -303.5013 
  47   2.0000     -11.151219      -303.4401 
  48   2.0000     -11.148129      -303.3560 
  49   2.0000     -11.142045      -303.1905 
  50   2.0000     -11.127592      -302.7972 
  51   2.0000     -11.124403      -302.7104 
  52   2.0000      -1.355880       -36.8954 
  53   2.0000      -1.323459       -36.0132 
  54   2.0000      -1.312450       -35.7136 
  55   2.0000      -1.293128       -35.1878 
  56   2.0000      -1.219104       -33.1735 
  57   2.0000      -1.206924       -32.8421 
  58   2.0000      -1.168816       -31.8051 
  59   2.0000      -1.146208       -31.1899 
  60   2.0000      -1.138228       -30.9728 
  61   2.0000      -1.111375       -30.2421 
  62   2.0000      -1.101914       -29.9846 
  63   2.0000      -1.084661       -29.5151 
  64   2.0000      -1.077282       -29.3143 
  65   2.0000      -1.047333       -28.4994 
  66   2.0000      -1.037171       -28.2229 
  67   2.0000      -1.035907       -28.1885 
  68   2.0000      -1.019173       -27.7331 
  69   2.0000      -1.013521       -27.5793 
  70   2.0000      -1.005865       -27.3710 
  71   2.0000      -0.989816       -26.9343 
  72   2.0000      -0.984397       -26.7868 
  73   2.0000      -0.976557       -26.5735 
  74   2.0000      -0.969655       -26.3857 
  75   2.0000      -0.959674       -26.1141 
  76   2.0000      -0.950974       -25.8773 
  77   2.0000      -0.945977       -25.7413 
  78   2.0000      -0.928523       -25.2664 
  79   2.0000      -0.919570       -25.0228 
  80   2.0000      -0.904611       -24.6157 
  81   2.0000      -0.888762       -24.1845 
  82   2.0000      -0.874871       -23.8065 
  83   2.0000      -0.868447       -23.6316 
  84   2.0000      -0.864238       -23.5171 
  85   2.0000      -0.852715       -23.2036 
  86   2.0000      -0.845503       -23.0073 
  87   2.0000      -0.832733       -22.6598 
  88   2.0000      -0.822423       -22.3793 
  89   2.0000      -0.796498       -21.6738 
  90   2.0000      -0.793122       -21.5820 
  91   2.0000      -0.749049       -20.3827 
  92   2.0000      -0.734162       -19.9776 
  93   2.0000      -0.727046       -19.7839 
  94   2.0000      -0.722024       -19.6473 
  95   2.0000      -0.716341       -19.4926 
  96   2.0000      -0.711207       -19.3529 
  97   2.0000      -0.706955       -19.2372 
  98   2.0000      -0.700578       -19.0637 
  99   2.0000      -0.694382       -18.8951 
 100   2.0000      -0.693743       -18.8777 
 101   2.0000      -0.683568       -18.6008 
 102   2.0000      -0.679772       -18.4975 
 103   2.0000      -0.677936       -18.4476 
 104   2.0000      -0.672184       -18.2911 
 105   2.0000      -0.668786       -18.1986 
 106   2.0000      -0.666260       -18.1299 
 107   2.0000      -0.656770       -17.8716 
 108   2.0000      -0.654797       -17.8179 
 109   2.0000      -0.652309       -17.7502 
 110   2.0000      -0.648482       -17.6461 
 111   2.0000      -0.646348       -17.5880 
 112   2.0000      -0.641729       -17.4623 
 113   2.0000      -0.640027       -17.4160 
 114   2.0000      -0.634439       -17.2640 
 115   2.0000      -0.630126       -17.1466 
 116   2.0000      -0.622536       -16.9401 
 117   2.0000      -0.616080       -16.7644 
 118   2.0000      -0.613882       -16.7046 
 119   2.0000      -0.609962       -16.5979 
 120   2.0000      -0.607006       -16.5175 
 121   2.0000      -0.604946       -16.4614 
 122   2.0000      -0.596064       -16.2197 
 123   2.0000      -0.589815       -16.0497 
 124   2.0000      -0.588116       -16.0034 
 125   2.0000      -0.582989       -15.8639 
 126   2.0000      -0.575644       -15.6641 
 127   2.0000      -0.573319       -15.6008 
 128   2.0000      -0.567324       -15.4377 
 129   2.0000      -0.560612       -15.2550 
 130   2.0000      -0.557223       -15.1628 
 131   2.0000      -0.547407       -14.8957 
 132   2.0000      -0.542213       -14.7544 
 133   2.0000      -0.539111       -14.6700 
 134   2.0000      -0.534700       -14.5499 
 135   2.0000      -0.531634       -14.4665 
 136   2.0000      -0.521639       -14.1945 
 137   2.0000      -0.519247       -14.1294 
 138   2.0000      -0.515147       -14.0179 
 139   2.0000      -0.512268       -13.9395 
 140   2.0000      -0.511129       -13.9085 
 141   2.0000      -0.507669       -13.8144 
 142   2.0000      -0.502890       -13.6843 
 143   2.0000      -0.499752       -13.5989 
 144   2.0000      -0.496486       -13.5101 
 145   2.0000      -0.495234       -13.4760 
 146   2.0000      -0.493521       -13.4294 
 147   2.0000      -0.486040       -13.2258 
 148   2.0000      -0.482775       -13.1370 
 149   2.0000      -0.464956       -12.6521 
 150   2.0000      -0.462750       -12.5921 
 151   2.0000      -0.455305       -12.3895 
 152   2.0000      -0.449460       -12.2304 
 153   2.0000      -0.442348       -12.0369 
 154   2.0000      -0.439954       -11.9718 
 155   2.0000      -0.438579       -11.9343 
 156   2.0000      -0.428122       -11.6498 
 157   2.0000      -0.421574       -11.4716 
 158   2.0000      -0.400395       -10.8953 
 159   2.0000      -0.383141       -10.4258 
 160   2.0000      -0.382872       -10.4185 
 161   2.0000      -0.373278       -10.1574 
 162   2.0000      -0.361974        -9.8498 
 163   2.0000      -0.358058        -9.7432 
 164   2.0000      -0.349406        -9.5078 
 165   2.0000      -0.338934        -9.2229 
 166   2.0000      -0.336739        -9.1631 
 167   2.0000      -0.334051        -9.0900 
 168   2.0000      -0.319767        -8.7013 
 169   2.0000      -0.299512        -8.1501 
 170   2.0000      -0.297611        -8.0984 
 171   2.0000      -0.285712        -7.7746 
 172   2.0000      -0.282761        -7.6943 
 173   2.0000      -0.261322        -7.1109 
 174   2.0000      -0.238445        -6.4884 
 175   2.0000      -0.185434        -5.0459 
 176   2.0000      -0.175308        -4.7704 
 177   2.0000      -0.062941        -1.7127 
 178   2.0000      -0.051578        -1.4035 
 179   0.0000       0.033654         0.9158 
 180   0.0000       0.063739         1.7344 
 181   0.0000       0.091959         2.5023 
 182   0.0000       0.096407         2.6234 
 183   0.0000       0.110623         3.0102 
 184   0.0000       0.136201         3.7062 
 185   0.0000       0.144271         3.9258 
 186   0.0000       0.145221         3.9517 
 187   0.0000       0.160690         4.3726 
 188   0.0000       0.163393         4.4461 
 189   0.0000       0.163655         4.4533 
 190   0.0000       0.170386         4.6364 
 191   0.0000       0.182465         4.9651 
 192   0.0000       0.183782         5.0010 
 193   0.0000       0.186906         5.0860 
 194   0.0000       0.202827         5.5192 
 195   0.0000       0.207816         5.6550 
 196   0.0000       0.210003         5.7145 
 197   0.0000       0.214402         5.8342 
 198   0.0000       0.219815         5.9815 
 199   0.0000       0.223061         6.0698 
 200   0.0000       0.226211         6.1555 
 201   0.0000       0.236951         6.4478 
 202   0.0000       0.238086         6.4786 
 203   0.0000       0.244118         6.6428 
 204   0.0000       0.248307         6.7568 
 205   0.0000       0.255003         6.9390 
 206   0.0000       0.255970         6.9653 
 207   0.0000       0.257372         7.0034 
 208   0.0000       0.261495         7.1156 
 209   0.0000       0.263107         7.1595 
 210   0.0000       0.266292         7.2462 
 211   0.0000       0.268238         7.2991 
 212   0.0000       0.271070         7.3762 
 213   0.0000       0.271721         7.3939 
 214   0.0000       0.274415         7.4672 
 215   0.0000       0.277007         7.5377 
 216   0.0000       0.280009         7.6194 
 217   0.0000       0.284193         7.7333 
 218   0.0000       0.286542         7.7972 
 219   0.0000       0.288572         7.8524 
 220   0.0000       0.291838         7.9413 
 221   0.0000       0.294179         8.0050 
 222   0.0000       0.295764         8.0482 
 223   0.0000       0.296098         8.0572 
 224   0.0000       0.297302         8.0900 
 225   0.0000       0.302896         8.2422 
 226   0.0000       0.304158         8.2766 
 227   0.0000       0.306115         8.3298 
 228   0.0000       0.309517         8.4224 
 229   0.0000       0.313948         8.5430 
 230   0.0000       0.317348         8.6355 
 231   0.0000       0.321497         8.7484 
 232   0.0000       0.325058         8.8453 
 233   0.0000       0.329799         8.9743 
 234   0.0000       0.334547         9.1035 
 235   0.0000       0.346873         9.4389 
 236   0.0000       0.358238         9.7482 
 237   0.0000       0.374082        10.1793 
 238   0.0000       0.395188        10.7536 
 239   0.0000       0.397896        10.8273 
 240   0.0000       0.401622        10.9287 
 241   0.0000       0.410151        11.1608 
 242   0.0000       0.414538        11.2802 
 243   0.0000       0.416985        11.3467 
 244   0.0000       0.423565        11.5258 
 245   0.0000       0.431546        11.7430 
 246   0.0000       0.434180        11.8146 
 247   0.0000       0.439143        11.9497 
 248   0.0000       0.442253        12.0343 
 249   0.0000       0.447146        12.1675 
 250   0.0000       0.448203        12.1962 
 251   0.0000       0.455349        12.3907 
 252   0.0000       0.457818        12.4578 
 253   0.0000       0.462891        12.5959 
 254   0.0000       0.469837        12.7849 
 255   0.0000       0.477340        12.9891 
 256   0.0000       0.481462        13.1012 
 257   0.0000       0.486798        13.2464 
 258   0.0000       0.487240        13.2585 
 259   0.0000       0.494561        13.4577 
 260   0.0000       0.499826        13.6010 
 261   0.0000       0.503814        13.7095 
 262   0.0000       0.506005        13.7691 
 263   0.0000       0.507386        13.8067 
 264   0.0000       0.512951        13.9581 
 265   0.0000       0.516993        14.0681 
 266   0.0000       0.522466        14.2170 
 267   0.0000       0.526596        14.3294 
 268   0.0000       0.531682        14.4678 
 269   0.0000       0.537363        14.6224 
 270   0.0000       0.542739        14.7687 
 271   0.0000       0.545412        14.8414 
 272   0.0000       0.546123        14.8608 
 273   0.0000       0.554662        15.0931 
 274   0.0000       0.562373        15.3030 
 275   0.0000       0.565461        15.3870 
 276   0.0000       0.566956        15.4276 
 277   0.0000       0.572516        15.5790 
 278   0.0000       0.578258        15.7352 
 279   0.0000       0.580178        15.7875 
 280   0.0000       0.588097        16.0029 
 281   0.0000       0.591608        16.0985 
 282   0.0000       0.593945        16.1621 
 283   0.0000       0.597420        16.2566 
 284   0.0000       0.600602        16.3432 
 285   0.0000       0.601808        16.3760 
 286   0.0000       0.606966        16.5164 
 287   0.0000       0.613569        16.6960 
 288   0.0000       0.615579        16.7508 
 289   0.0000       0.616847        16.7853 
 290   0.0000       0.623978        16.9793 
 291   0.0000       0.625091        17.0096 
 292   0.0000       0.629976        17.1425 
 293   0.0000       0.633404        17.2358 
 294   0.0000       0.645737        17.5714 
 295   0.0000       0.649190        17.6653 
 296   0.0000       0.653883        17.7931 
 297   0.0000       0.658611        17.9217 
 298   0.0000       0.664571        18.0839 
 299   0.0000       0.666461        18.1353 
 300   0.0000       0.670677        18.2501 
 301   0.0000       0.673201        18.3187 
 302   0.0000       0.676054        18.3964 
 303   0.0000       0.678032        18.4502 
 304   0.0000       0.682698        18.5771 
 305   0.0000       0.685439        18.6517 
 306   0.0000       0.685998        18.6670 
 307   0.0000       0.688573        18.7370 
 308   0.0000       0.691223        18.8091 
 309   0.0000       0.694510        18.8986 
 310   0.0000       0.701917        19.1001 
 311   0.0000       0.704130        19.1604 
 312   0.0000       0.707865        19.2620 
 313   0.0000       0.710357        19.3298 
 314   0.0000       0.711948        19.3731 
 315   0.0000       0.714632        19.4461 
 316   0.0000       0.717136        19.5143 
 317   0.0000       0.718832        19.5604 
 318   0.0000       0.721274        19.6269 
 319   0.0000       0.724425        19.7126 
 320   0.0000       0.725263        19.7354 
 321   0.0000       0.728792        19.8314 
 322   0.0000       0.732381        19.9291 
 323   0.0000       0.733800        19.9677 
 324   0.0000       0.738137        20.0857 
 325   0.0000       0.738653        20.0998 
 326   0.0000       0.741551        20.1786 
 327   0.0000       0.741863        20.1871 
 328   0.0000       0.750136        20.4122 
 329   0.0000       0.750968        20.4349 
 330   0.0000       0.755595        20.5608 
 331   0.0000       0.757089        20.6014 
 332   0.0000       0.758250        20.6330 
 333   0.0000       0.762947        20.7609 
 334   0.0000       0.765564        20.8321 
 335   0.0000       0.770273        20.9602 
 336   0.0000       0.774514        21.0756 
 337   0.0000       0.778527        21.1848 
 338   0.0000       0.784695        21.3526 
 339   0.0000       0.786391        21.3988 
 340   0.0000       0.788634        21.4598 
 341   0.0000       0.792231        21.5577 
 342   0.0000       0.795275        21.6405 
 343   0.0000       0.795956        21.6591 
 344   0.0000       0.800954        21.7951 
 345   0.0000       0.805483        21.9183 
 346   0.0000       0.809661        22.0320 
 347   0.0000       0.810851        22.0644 
 348   0.0000       0.812396        22.1064 
 349   0.0000       0.816532        22.2190 
 350   0.0000       0.818507        22.2727 
 351   0.0000       0.818880        22.2828 
 352   0.0000       0.823768        22.4159 
 353   0.0000       0.824952        22.4481 
 354   0.0000       0.829730        22.5781 
 355   0.0000       0.831522        22.6269 
 356   0.0000       0.833542        22.6818 
 357   0.0000       0.834461        22.7068 
 358   0.0000       0.837194        22.7812 
 359   0.0000       0.839284        22.8381 
 360   0.0000       0.841172        22.8895 
 361   0.0000       0.845259        23.0007 
 362   0.0000       0.847339        23.0573 
 363   0.0000       0.848652        23.0930 
 364   0.0000       0.849610        23.1191 
 365   0.0000       0.850882        23.1537 
 366   0.0000       0.853158        23.2156 
 367   0.0000       0.858652        23.3651 
 368   0.0000       0.859167        23.3791 
 369   0.0000       0.862829        23.4788 
 370   0.0000       0.863502        23.4971 
 371   0.0000       0.867385        23.6027 
 372   0.0000       0.871788        23.7226 
 373   0.0000       0.872495        23.7418 
 374   0.0000       0.878344        23.9009 
 375   0.0000       0.881944        23.9989 
 376   0.0000       0.883817        24.0499 
 377   0.0000       0.886222        24.1153 
 378   0.0000       0.889709        24.2102 
 379   0.0000       0.892171        24.2772 
 380   0.0000       0.893032        24.3006 
 381   0.0000       0.897283        24.4163 
 382   0.0000       0.899192        24.4683 
 383   0.0000       0.903483        24.5850 
 384   0.0000       0.904300        24.6073 
 385   0.0000       0.907609        24.6973 
 386   0.0000       0.908979        24.7346 
 387   0.0000       0.912145        24.8207 
 388   0.0000       0.914286        24.8790 
 389   0.0000       0.917943        24.9785 
 390   0.0000       0.920470        25.0473 
 391   0.0000       0.921820        25.0840 
 392   0.0000       0.923258        25.1231 
 393   0.0000       0.926956        25.2237 
 394   0.0000       0.928863        25.2757 
 395   0.0000       0.931428        25.3455 
 396   0.0000       0.932865        25.3845 
 397   0.0000       0.934259        25.4225 
 398   0.0000       0.939215        25.5573 
 399   0.0000       0.943460        25.6729 
 400   0.0000       0.945806        25.7367 
 401   0.0000       0.949049        25.8249 
 402   0.0000       0.952067        25.9071 
 403   0.0000       0.954504        25.9734 
 404   0.0000       0.956446        26.0262 
 405   0.0000       0.958190        26.0737 
 406   0.0000       0.959392        26.1064 
 407   0.0000       0.965325        26.2678 
 408   0.0000       0.967441        26.3254 
 409   0.0000       0.969963        26.3940 
 410   0.0000       0.974573        26.5195 
 411   0.0000       0.978162        26.6171 
 412   0.0000       0.984364        26.7859 
 413   0.0000       0.992219        26.9996 
 414   0.0000       0.994100        27.0508 
 415   0.0000       0.994299        27.0562 
 416   0.0000       0.998919        27.1820 
 417   0.0000       1.001766        27.2594 
 418   0.0000       1.007813        27.4240 
 419   0.0000       1.015753        27.6400 
 420   0.0000       1.024350        27.8740 
 421   0.0000       1.028560        27.9885 
 422   0.0000       1.032912        28.1070 
 423   0.0000       1.034929        28.1618 
 424   0.0000       1.039493        28.2860 
 425   0.0000       1.051044        28.6004 
 426   0.0000       1.054598        28.6971 
 427   0.0000       1.059774        28.8379 
 428   0.0000       1.069113        29.0920 
 429   0.0000       1.075439        29.2642 
 430   0.0000       1.076967        29.3058 
 431   0.0000       1.083714        29.4893 
 432   0.0000       1.084380        29.5075 
 433   0.0000       1.091232        29.6939 
 434   0.0000       1.097165        29.8554 
 435   0.0000       1.098511        29.8920 
 436   0.0000       1.104509        30.0552 
 437   0.0000       1.111845        30.2548 
 438   0.0000       1.115039        30.3417 
 439   0.0000       1.117029        30.3959 
 440   0.0000       1.120098        30.4794 
 441   0.0000       1.120638        30.4941 
 442   0.0000       1.128201        30.6999 
 443   0.0000       1.131427        30.7877 
 444   0.0000       1.134299        30.8658 
 445   0.0000       1.137554        30.9544 
 446   0.0000       1.138301        30.9748 
 447   0.0000       1.141937        31.0737 
 448   0.0000       1.144404        31.1408 
 449   0.0000       1.148150        31.2428 
 450   0.0000       1.153172        31.3794 
 451   0.0000       1.156255        31.4633 
 452   0.0000       1.159317        31.5466 
 453   0.0000       1.160401        31.5761 
 454   0.0000       1.161714        31.6119 
 455   0.0000       1.167111        31.7587 
 456   0.0000       1.168865        31.8064 
 457   0.0000       1.175933        31.9988 
 458   0.0000       1.181982        32.1634 
 459   0.0000       1.187427        32.3115 
 460   0.0000       1.189112        32.3574 
 461   0.0000       1.190875        32.4053 
 462   0.0000       1.201556        32.6960 
 463   0.0000       1.204939        32.7880 
 464   0.0000       1.209147        32.9026 
 465   0.0000       1.211343        32.9623 
 466   0.0000       1.213460        33.0199 
 467   0.0000       1.216114        33.0921 
 468   0.0000       1.225263        33.3411 
 469   0.0000       1.226623        33.3781 
 470   0.0000       1.228153        33.4197 
 471   0.0000       1.231620        33.5141 
 472   0.0000       1.235064        33.6078 
 473   0.0000       1.239952        33.7408 
 474   0.0000       1.241819        33.7916 
 475   0.0000       1.246543        33.9202 
 476   0.0000       1.250192        34.0195 
 477   0.0000       1.252200        34.0741 
 478   0.0000       1.254200        34.1285 
 479   0.0000       1.257470        34.2175 
 480   0.0000       1.259851        34.2823 
 481   0.0000       1.262828        34.3633 
 482   0.0000       1.268626        34.5211 
 483   0.0000       1.270075        34.5605 
 484   0.0000       1.273819        34.6624 
 485   0.0000       1.274202        34.6728 
 486   0.0000       1.278022        34.7767 
 487   0.0000       1.283457        34.9246 
 488   0.0000       1.286782        35.0151 
 489   0.0000       1.292826        35.1796 
 490   0.0000       1.294912        35.2364 
 491   0.0000       1.296542        35.2807 
 492   0.0000       1.306582        35.5539 
 493   0.0000       1.308545        35.6073 
 494   0.0000       1.309431        35.6314 
 495   0.0000       1.315555        35.7981 
 496   0.0000       1.320681        35.9376 
 497   0.0000       1.322673        35.9918 
 498   0.0000       1.325543        36.0699 
 499   0.0000       1.332614        36.2623 
 500   0.0000       1.334754        36.3205 
 501   0.0000       1.338374        36.4190 
 502   0.0000       1.341339        36.4997 
 503   0.0000       1.342577        36.5334 
 504   0.0000       1.343829        36.5675 
 505   0.0000       1.349666        36.7263 
[...]
      pz      :     0.021831  p :     0.079362
      px      :     0.042990
      py      :     0.014541
 77 H s       :     0.893537  s :     0.893537
      pz      :     0.047279  p :     0.078509
      px      :     0.015005
      py      :     0.016225
 78 H s       :     0.893929  s :     0.893929
      pz      :     0.025527  p :     0.078431
      px      :     0.020660
      py      :     0.032244
 79 H s       :     0.907847  s :     0.907847
      pz      :     0.022453  p :     0.087088
      px      :     0.021863
      py      :     0.042772
 80 H s       :     0.876899  s :     0.876899
      pz      :     0.038376  p :     0.083459
      px      :     0.029608
      py      :     0.015475
 81 H s       :     0.888070  s :     0.888070
      pz      :     0.037628  p :     0.083489
      px      :     0.016092
      py      :     0.029769
 82 H s       :     0.914294  s :     0.914294
      pz      :     0.022326  p :     0.087052
      px      :     0.031075
      py      :     0.033650
 83 H s       :     0.872126  s :     0.872126
      pz      :     0.039222  p :     0.083774
      px      :     0.015240
      py      :     0.029312
 84 H s       :     0.887957  s :     0.887957
      pz      :     0.035818  p :     0.084186
      px      :     0.031784
      py      :     0.016584
 85 H s       :     0.895019  s :     0.895019
      pz      :     0.022510  p :     0.079658
      px      :     0.014124
      py      :     0.043024
 86 H s       :     0.890615  s :     0.890615
      pz      :     0.024714  p :     0.078893
      px      :     0.033003
      py      :     0.021176
 87 H s       :     0.890816  s :     0.890816
      pz      :     0.047867  p :     0.078636
      px      :     0.015642
      py      :     0.015128
 88 H s       :     0.916794  s :     0.916794
      pz      :     0.022345  p :     0.086851
      px      :     0.042172
      py      :     0.022334
 89 H s       :     0.874240  s :     0.874240
      pz      :     0.037836  p :     0.083987
      px      :     0.030484
      py      :     0.015667


                      *****************************
                      * MAYER POPULATION ANALYSIS *
                      *****************************

  NA   - Mulliken gross atomic population
  ZA   - Total nuclear charge
  QA   - Mulliken gross atomic charge
  VA   - Mayer's total valence
  BVA  - Mayer's bonded valence
  FA   - Mayer's free valence

  ATOM       NA         ZA         QA         VA         BVA        FA
  0 C      5.7772     6.0000     0.2228     3.8136     3.8136     0.0000
  1 N      7.4268     7.0000    -0.4268     3.4285     3.4285    -0.0000
  2 C      6.0664     6.0000    -0.0664     3.9185     3.9185    -0.0000
  3 N      7.3406     7.0000    -0.3406     3.4315     3.4315    -0.0000
  4 C      6.0735     6.0000    -0.0735     3.9730     3.9730     0.0000
  5 N      7.5651     7.0000    -0.5651     3.0740     3.0740    -0.0000
  6 C      6.0380     6.0000    -0.0380     3.9756     3.9756     0.0000
  7 N      7.3370     7.0000    -0.3370     3.4449     3.4449     0.0000
  8 C      5.7798     6.0000     0.2202     3.8151     3.8151     0.0000
  9 N      7.5652     7.0000    -0.5652     3.0887     3.0887    -0.0000
 10 C      5.8915     6.0000     0.1085     3.8753     3.8753    -0.0000
 11 N      7.4381     7.0000    -0.4381     3.3813     3.3813    -0.0000
 12 C      6.0624     6.0000    -0.0624     3.9124     3.9124     0.0000
 13 N      7.4470     7.0000    -0.4470     3.3407     3.3407     0.0000
 14 C      5.7701     6.0000     0.2299     3.8022     3.8022    -0.0000
 15 N      7.4411     7.0000    -0.4411     3.3677     3.3677     0.0000
 16 C      5.7527     6.0000     0.2473     3.8020     3.8020    -0.0000
 17 C      6.0432     6.0000    -0.0432     3.9770     3.9770     0.0000
 18 C      6.1944     6.0000    -0.1944     3.7101     3.7101    -0.0000
 19 C      5.7633     6.0000     0.2367     3.8873     3.8873     0.0000
 20 C      5.8023     6.0000     0.1977     3.8223     3.8223    -0.0000
 21 C      6.0738     6.0000    -0.0738     3.8990     3.8990    -0.0000
 22 C      6.0870     6.0000    -0.0870     3.9852     3.9852    -0.0000
 23 C      6.0596     6.0000    -0.0596     3.9882     3.9882     0.0000
 24 C      5.7855     6.0000     0.2145     3.8269     3.8269     0.0000
 25 C      5.8859     6.0000     0.1141     3.8910     3.8910    -0.0000
 26 C      6.0690     6.0000    -0.0690     3.9076     3.9076     0.0000
 27 C      5.7616     6.0000     0.2384     3.8977     3.8977    -0.0000
 28 C      6.0444     6.0000    -0.0444     3.9884     3.9884    -0.0000
 29 C      6.1930     6.0000    -0.1930     3.7277     3.7277    -0.0000
 30 C      5.7736     6.0000     0.2264     3.7854     3.7854    -0.0000
 31 C      5.8042     6.0000     0.1958     3.8316     3.8316    -0.0000
 32 C      6.0663     6.0000    -0.0663     3.9137     3.9137    -0.0000
 33 C      6.0951     6.0000    -0.0951     3.9860     3.9860     0.0000
 34 C      6.0508     6.0000    -0.0508     3.9969     3.9969     0.0000
 35 C      5.8119     6.0000     0.1881     3.8288     3.8288     0.0000
 36 C      5.8815     6.0000     0.1185     3.9036     3.9036     0.0000
 37 C      6.0692     6.0000    -0.0692     3.9159     3.9159     0.0000
 38 C      5.7588     6.0000     0.2412     3.7962     3.7962    -0.0000
 39 C      6.0635     6.0000    -0.0635     3.9962     3.9962     0.0000
 40 C      6.1989     6.0000    -0.1989     3.7486     3.7486    -0.0000
 41 C      5.7813     6.0000     0.2187     3.8772     3.8772    -0.0000
 42 C      5.7908     6.0000     0.2092     3.8306     3.8306     0.0000
 43 C      6.0754     6.0000    -0.0754     3.9048     3.9048     0.0000
 44 C      6.0901     6.0000    -0.0901     3.9842     3.9842     0.0000
 45 C      6.0436     6.0000    -0.0436     3.9949     3.9949     0.0000
 46 C      5.8079     6.0000     0.1921     3.8222     3.8222    -0.0000
 47 C      5.8838     6.0000     0.1162     3.8955     3.8955     0.0000
 48 C      6.0790     6.0000    -0.0790     3.8999     3.8999     0.0000
 49 C      5.7847     6.0000     0.2153     3.8717     3.8717    -0.0000
 50 C      6.0616     6.0000    -0.0616     3.9900     3.9900     0.0000
 51 C      6.1892     6.0000    -0.1892     3.7392     3.7392     0.0000
 52 H      0.9293     1.0000     0.0707     0.9835     0.9835     0.0000
 53 H      1.0102     1.0000    -0.0102     1.0010     1.0010     0.0000
 54 H      0.9430     1.0000     0.0570     1.0059     1.0059     0.0000
 55 H      0.9316     1.0000     0.0684     0.9845     0.9845     0.0000
 56 H      0.9265     1.0000     0.0735     0.9724     0.9724    -0.0000
 57 H      0.9323     1.0000     0.0677     0.9847     0.9847    -0.0000
 58 H      0.9334     1.0000     0.0666     0.9862     0.9862    -0.0000
 59 H      1.0226     1.0000    -0.0226     0.9971     0.9971     0.0000
 60 H      0.9423     1.0000     0.0577     1.0075     1.0075    -0.0000
 61 H      0.8245     1.0000     0.1755     1.0433     1.0433    -0.0000
 62 H      0.8303     1.0000     0.1697     1.0433     1.0433     0.0000
 63 H      0.9447     1.0000     0.0553     0.9858     0.9858    -0.0000
 64 H      1.0279     1.0000    -0.0279     0.9935     0.9935     0.0000
 65 H      0.9554     1.0000     0.0446     1.0082     1.0082     0.0000
 66 H      0.9429     1.0000     0.0571     0.9847     0.9847     0.0000
 67 H      0.9391     1.0000     0.0609     0.9718     0.9718    -0.0000
 68 H      0.9425     1.0000     0.0575     0.9866     0.9866    -0.0000
 69 H      0.9404     1.0000     0.0596     0.9830     0.9830     0.0000
 70 H      1.0186     1.0000    -0.0186     0.9965     0.9965     0.0000
 71 H      0.9519     1.0000     0.0481     1.0073     1.0073    -0.0000
 72 H      0.9556     1.0000     0.0444     0.9857     0.9857    -0.0000
 73 H      1.0184     1.0000    -0.0184     0.9970     0.9970     0.0000
 74 H      0.9643     1.0000     0.0357     1.0094     1.0094    -0.0000
 75 H      0.9567     1.0000     0.0433     0.9864     0.9864     0.0000
 76 H      0.9481     1.0000     0.0519     0.9708     0.9708     0.0000
 77 H      0.9495     1.0000     0.0505     0.9846     0.9846    -0.0000
 78 H      0.9503     1.0000     0.0497     0.9840     0.9840    -0.0000
 79 H      1.0126     1.0000    -0.0126     1.0009     1.0009     0.0000
 80 H      0.9643     1.0000     0.0357     1.0066     1.0066     0.0000
 81 H      0.9482     1.0000     0.0518     0.9853     0.9853     0.0000
 82 H      1.0228     1.0000    -0.0228     0.9949     0.9949     0.0000
 83 H      0.9567     1.0000     0.0433     1.0102     1.0102     0.0000
 84 H      0.9488     1.0000     0.0512     0.9861     0.9861     0.0000
 85 H      0.9435     1.0000     0.0565     0.9714     0.9714    -0.0000
 86 H      0.9434     1.0000     0.0566     0.9841     0.9841    -0.0000
 87 H      0.9446     1.0000     0.0554     0.9853     0.9853     0.0000
 88 H      1.0271     1.0000    -0.0271     0.9924     0.9924     0.0000
 89 H      0.9590     1.0000     0.0410     1.0064     1.0064     0.0000

  Mayer bond orders larger than 0.100000
B(  0-C ,  1-N ) :   1.1611 B(  0-C , 17-C ) :   1.5726 B(  0-C , 52-H ) :   0.9683 
B(  1-N ,  8-C ) :   1.1562 B(  1-N , 10-C ) :   0.9429 B(  2-C , 12-C ) :   1.5576 
B(  2-C , 16-C ) :   1.2985 B(  2-C , 53-H ) :   0.9786 B(  3-N , 14-C ) :   1.1857 
B(  3-N , 16-C ) :   1.2018 B(  3-N , 61-H ) :   0.8965 B(  4-C ,  6-C ) :   1.3135 
B(  4-C , 17-C ) :   1.3190 B(  4-C , 18-C ) :   1.1463 B(  5-N , 19-C ) :   1.3864 
B(  5-N , 27-C ) :   1.4311 B(  6-C ,  8-C ) :   1.5781 B(  6-C , 54-H ) :   0.9713 
B(  7-N , 30-C ) :   1.1889 B(  7-N , 38-C ) :   1.2098 B(  7-N , 62-H ) :   0.9001 
B(  8-C , 55-H ) :   0.9689 B(  9-N , 41-C ) :   1.4249 B(  9-N , 49-C ) :   1.4010 
B( 10-C , 56-H ) :   0.9764 B( 10-C , 57-H ) :   0.9812 B( 10-C , 58-H ) :   0.9826 
B( 11-N , 20-C ) :   1.1118 B( 11-N , 24-C ) :   1.1330 B( 11-N , 25-C ) :   0.9591 
B( 12-C , 14-C ) :   1.2986 B( 12-C , 59-H ) :   0.9772 B( 13-N , 31-C ) :   1.0976 
B( 13-N , 35-C ) :   1.0893 B( 13-N , 36-C ) :   0.9735 B( 14-C , 18-C ) :   1.2319 
B( 15-N , 42-C ) :   1.1229 B( 15-N , 46-C ) :   1.1005 B( 15-N , 47-C ) :   0.9642 
B( 16-C , 51-C ) :   1.2222 B( 17-C , 60-H ) :   0.9713 B( 18-C , 19-C ) :   1.2711 
B( 19-C , 21-C ) :   1.1821 B( 20-C , 28-C ) :   1.6235 B( 20-C , 63-H ) :   0.9705 
B( 21-C , 26-C ) :   1.6660 B( 21-C , 64-H ) :   0.9724 B( 22-C , 23-C ) :   1.2700 
B( 22-C , 28-C ) :   1.2801 B( 22-C , 29-C ) :   1.2434 B( 23-C , 24-C ) :   1.6247 
B( 23-C , 65-H ) :   0.9716 B( 24-C , 66-H ) :   0.9689 B( 25-C , 67-H ) :   0.9763 
B( 25-C , 68-H ) :   0.9831 B( 25-C , 69-H ) :   0.9819 B( 26-C , 27-C ) :   1.1875 
B( 26-C , 70-H ) :   0.9746 B( 27-C , 29-C ) :   1.2384 B( 28-C , 71-H ) :   0.9711 
B( 29-C , 30-C ) :   1.1876 B( 30-C , 32-C ) :   1.3377 B( 31-C , 39-C ) :   1.6631 
B( 31-C , 72-H ) :   0.9705 B( 32-C , 37-C ) :   1.5210 B( 32-C , 73-H ) :   0.9773 
B( 33-C , 34-C ) :   1.2491 B( 33-C , 39-C ) :   1.2420 B( 33-C , 40-C ) :   1.3135 
B( 34-C , 35-C ) :   1.6610 B( 34-C , 74-H ) :   0.9708 B( 35-C , 75-H ) :   0.9704 
B( 36-C , 76-H ) :   0.9758 B( 36-C , 77-H ) :   0.9824 B( 36-C , 78-H ) :   0.9835 
B( 37-C , 38-C ) :   1.3353 B( 37-C , 79-H ) :   0.9787 B( 38-C , 40-C ) :   1.1883 
B( 39-C , 80-H ) :   0.9719 B( 40-C , 41-C ) :   1.1898 B( 41-C , 43-C ) :   1.2371 
B( 42-C , 50-C ) :   1.6376 B( 42-C , 81-H ) :   0.9696 B( 43-C , 48-C ) :   1.6141 
B( 43-C , 82-H ) :   0.9749 B( 44-C , 45-C ) :   1.2778 B( 44-C , 50-C ) :   1.2572 
B( 44-C , 51-C ) :   1.2503 B( 45-C , 46-C ) :   1.6318 B( 45-C , 83-H ) :   0.9706 
B( 46-C , 84-H ) :   0.9706 B( 47-C , 85-H ) :   0.9760 B( 47-C , 86-H ) :   0.9826 
B( 47-C , 87-H ) :   0.9828 B( 48-C , 49-C ) :   1.2334 B( 48-C , 88-H ) :   0.9731 
B( 49-C , 51-C ) :   1.2056 B( 50-C , 89-H ) :   0.9719 

-------
TIMINGS
-------

Total SCF time: 0 days 0 hours 30 min 49 sec 

Total time                  ....    1849.560 sec
Sum of individual times     ....    1844.739 sec  ( 99.7%)

Fock matrix formation       ....    1815.791 sec  ( 98.2%)
Diagonalization             ....       8.790 sec  (  0.5%)
Density matrix formation    ....       0.561 sec  (  0.0%)
Population analysis         ....       0.586 sec  (  0.0%)
Initial guess               ....       2.535 sec  (  0.1%)
Orbital Transformation      ....       0.000 sec  (  0.0%)
Orbital Orthonormalization  ....       0.000 sec  (  0.0%)
DIIS solution               ....       3.978 sec  (  0.2%)
SOSCF solution              ....      11.197 sec  (  0.6%)

Maximum memory used throughout the entire SCF-calculation: 302.6 MB


           ************************************************************
           *        Program running with 16 parallel MPI-processes    *
           *              working on a common directory               *
           ************************************************************

------------------------------------------------------------------------------
                                ORCA  MP2 
------------------------------------------------------------------------------

Freezing NCore=104 chemical core electrons

----------
MP2 ENERGY (disk based algorithm)
----------

Dimension of the basis                    ...  918
Memory devoted to MP2                     ... 2000 MB   
Data format for buffers                   ... DOUBLE
Compression type for matrix containers    ... UNCOMPRESSED

-------------------------------
PARTIAL EXCHANGE TRANSFORMATION
-------------------------------

Transformation type                        ... one-operator
Generation of integrals (i,mue|j,nue)      ... ON
Generation of integrals (mue,kappa|nue,tau)... OFF
Generation of integrals (i,mue|a,nue)      ... OFF
Dimension of the basis                     ...  918
Number of internal MOs                     ...  127 (  52- 178)
Pair cutoff                                ... 2.500e-12 Eh
Number of AO pairs in the trafo            ... 421821
Total Number of distinct AO pairs          ... 421821
Memory devoted for trafo                   ... 2000.0 MB 
Max. Number of MO pairs treated together   ...  311      
Number Format for Storage                  ... Double (8 Byte)
Integral package used                      ... LIBINT

Starting integral evaluation:
    ... done with AO integral generation
Closing buffer AOK     (38.00 GB; CompressionRatio= 1.33)
Collecting buffer AOK 
Number of MO pairs included in the trafo   ... 8128
------------------------
SORTING OF (i,mue|j,nue)
------------------------

IBATCH = 1 of  2
IBATCH = 2 of  2
Closing buffer KAO     (51.03 GB; CompressionRatio= 1.00)
Collecting buffer KAO 
N(AO-Batches) Done                         ...  85702262 
N(AO-Batches) Skipped                      ...  81920400 
N(IJ)-pairs Skipped                        ...         0 
TOTAL TIME for half transformation         ...  2743.418 sec
AO-integral generation                     ...   210.297 sec
Half transformation                        ...   425.771 sec
K-integral sorting                         ...  1887.824 sec
Process 10:   Internal MO 132
Process 13:   Internal MO 156
Process  7:   Internal MO 108
Process  1:   Internal MO  60

Finished integral transformation - now doing MP2 part

OPERATOR COMBINATION   0   0: ij=( 52..178, 52..178)
Process  4:   Internal MO  84
Process  0:   Internal MO  54
Process  2:   Internal MO  69
Process  1:   Internal MO  63
Process  0:   Internal MO  57
Process  5:   Internal MO  93
Process  3:   Internal MO  78
Process  1:   Internal MO  66
Process  8:   Internal MO 117
Process  2:   Internal MO  72
Process 11:   Internal MO 141
Process  4:   Internal MO  87
Process 14:   Internal MO 165
Process  6:   Internal MO 102
Process  2:   Internal MO  75
Process  3:   Internal MO  81
Process  5:   Internal MO  96
Process  9:   Internal MO 126
Process  7:   Internal MO 111
Process 12:   Internal MO 150
Process  4:   Internal MO  90
Process 10:   Internal MO 135
Process 15:   Internal MO 174
Process  6:   Internal MO 105
Process  8:   Internal MO 120
Process  5:   Internal MO  99
Process 11:   Internal MO 144
Process  7:   Internal MO 114
Process  9:   Internal MO 129
Process 14:   Internal MO 168
Process 13:   Internal MO 159
Process  8:   Internal MO 123
Process 12:   Internal MO 153
Process 10:   Internal MO 138
Process 11:   Internal MO 147
Process 15:   Internal MO 177
Process 13:   Internal MO 162
Process 14:   Internal MO 171
-----------------------------------------------
 MP2 CORRELATION ENERGY   :     -7.281789032 Eh
-----------------------------------------------


-------
TIMINGS
-------
Total time                : 3011.512 sec
Integral trafo            : 2745.904 sec ( 91.2%)
K(i,j)                    :   10.425 sec (  0.3%)
T(i,j)                    :    1.009 sec (  0.0%)

---------------------------------------
MP2 TOTAL ENERGY:    -2130.896413835 Eh
---------------------------------------

Maximum memory used throughout the entire MP2-calculation: 2275.2 MB

-------------------------   --------------------
FINAL SINGLE POINT ENERGY     -2130.896413835136
-------------------------   --------------------


                            ***************************************
                            *     ORCA property calculations      *
                            ***************************************


  WARNING: The energy has been calculated at the MP2 level but the densities
           used in the property calculations are still SCF densities
           MP2 response densities have not been calculated 
           use %mp2 Density relaxed end
           or  %mp2 Density unrelaxed end

                                    ---------------------
                                    Active property flags
                                    ---------------------
   (+) Dipole Moment


------------------------------------------------------------------------------
                       ORCA ELECTRIC PROPERTIES CALCULATION
------------------------------------------------------------------------------

Dipole Moment Calculation                       ... on
Quadrupole Moment Calculation                   ... off
Polarizability Calculation                      ... off
GBWName                                         ... /scratch/allen/tmpyp4_amber_gaff2/conf1/conf1/Conf254.orca.gbw
Electron density                                ... /scratch/allen/tmpyp4_amber_gaff2/conf1/conf1/Conf254.orca.scfp
The origin for moment calculation is the CENTER OF MASS  = ( 0.001049, -0.003320 -0.001748)

-------------
DIPOLE MOMENT
-------------
                                X             Y             Z
Electronic contribution:     -2.85443       2.57418      -0.08998
Nuclear contribution   :      0.06838       0.23417       0.10801
                        -----------------------------------------
Total Dipole Moment    :     -2.78605       2.80836       0.01803
                        -----------------------------------------
Magnitude (a.u.)       :      3.95592
Magnitude (Debye)      :     10.05514



--------------------
Rotational spectrum 
--------------------
 
Rotational constants in cm-1:     0.001498     0.001473     0.000763 
Rotational constants in MHz :    44.913440    44.159559    22.859260 

 Dipole components along the rotational axes: 
x,y,z [a.u.] :    -3.624786     1.584266     0.017310 
x,y,z [Debye]:    -9.213475     4.026885     0.043998 

 

Timings for individual modules:

Sum of individual times         ...     4886.748 sec (=  81.446 min)
GTO integral calculation        ...        3.412 sec (=   0.057 min)   0.1 %
SCF iterations                  ...     1850.819 sec (=  30.847 min)  37.9 %
MP2 module                      ...     3032.517 sec (=  50.542 min)  62.1 %
                             ****ORCA TERMINATED NORMALLY****
TOTAL RUN TIME: 0 days 1 hours 21 minutes 30 seconds 328 msec
# of primitive gaussian functions

