
                                 *****************
                                 * O   R   C   A *
                                 *****************

                                            #,                                       
                                            ###                                      
                                            ####                                     
                                            #####                                    
                                            ######                                   
                                           ########,                                 
                                     ,,################,,,,,                         
                               ,,#################################,,                 
                          ,,##########################################,,             
                       ,#########################################, ''#####,          
                    ,#############################################,,   '####,        
                  ,##################################################,,,,####,       
                ,###########''''           ''''###############################       
              ,#####''   ,,,,##########,,,,          '''####'''          '####       
            ,##' ,,,,###########################,,,                        '##       
           ' ,,###''''                  '''############,,,                           
         ,,##''                                '''############,,,,        ,,,,,,###''
      ,#''                                            '''#######################'''  
     '                                                          ''''####''''         
             ,#######,   #######,   ,#######,      ##                                
            ,#'     '#,  ##    ##  ,#'     '#,    #''#        ######   ,####,        
            ##       ##  ##   ,#'  ##            #'  '#       #        #'  '#        
            ##       ##  #######   ##           ,######,      #####,   #    #        
            '#,     ,#'  ##    ##  '#,     ,#' ,#      #,         ##   #,  ,#        
             '#######'   ##     ##  '#######'  #'      '#     #####' # '####'        



                  #######################################################
                  #                        -***-                        #
                  #          Department of theory and spectroscopy      #
                  #    Directorship and core code : Frank Neese         #
                  #        Max Planck Institute fuer Kohlenforschung    #
                  #                Kaiser Wilhelm Platz 1               #
                  #                 D-45470 Muelheim/Ruhr               #
                  #                      Germany                        #
                  #                                                     #
                  #                  All rights reserved                #
                  #                        -***-                        #
                  #######################################################


                         Program Version 5.0.4 -  RELEASE  -


 With contributions from (in alphabetic order):
   Daniel Aravena         : Magnetic Suceptibility
   Michael Atanasov       : Ab Initio Ligand Field Theory (pilot matlab implementation)
   Alexander A. Auer      : GIAO ZORA, VPT2 properties, NMR spectrum
   Ute Becker             : Parallelization
   Giovanni Bistoni       : ED, misc. LED, open-shell LED, HFLD
   Martin Brehm           : Molecular dynamics
   Dmytro Bykov           : SCF Hessian
   Vijay G. Chilkuri      : MRCI spin determinant printing, contributions to CSF-ICE
   Dipayan Datta          : RHF DLPNO-CCSD density
   Achintya Kumar Dutta   : EOM-CC, STEOM-CC
   Dmitry Ganyushin       : Spin-Orbit,Spin-Spin,Magnetic field MRCI
   Miquel Garcia          : C-PCM and meta-GGA Hessian, CC/C-PCM, Gaussian charge scheme
   Yang Guo               : DLPNO-NEVPT2, F12-NEVPT2, CIM, IAO-localization
   Andreas Hansen         : Spin unrestricted coupled pair/coupled cluster methods
   Benjamin Helmich-Paris : MC-RPA, TRAH-SCF, COSX integrals
   Lee Huntington         : MR-EOM, pCC
   Robert Izsak           : Overlap fitted RIJCOSX, COSX-SCS-MP3, EOM
   Marcus Kettner         : VPT2
   Christian Kollmar      : KDIIS, OOCD, Brueckner-CCSD(T), CCSD density, CASPT2, CASPT2-K
   Simone Kossmann        : Meta GGA functionals, TD-DFT gradient, OOMP2, MP2 Hessian
   Martin Krupicka        : Initial AUTO-CI
   Lucas Lang             : DCDCAS
   Marvin Lechner         : AUTO-CI (C++ implementation), FIC-MRCC
   Dagmar Lenk            : GEPOL surface, SMD
   Dimitrios Liakos       : Extrapolation schemes; Compound Job, initial MDCI parallelization
   Dimitrios Manganas     : Further ROCIS development; embedding schemes
   Dimitrios Pantazis     : SARC Basis sets
   Anastasios Papadopoulos: AUTO-CI, single reference methods and gradients
   Taras Petrenko         : DFT Hessian,TD-DFT gradient, ASA, ECA, R-Raman, ABS, FL, XAS/XES, NRVS
   Peter Pinski           : DLPNO-MP2, DLPNO-MP2 Gradient
   Christoph Reimann      : Effective Core Potentials
   Marius Retegan         : Local ZFS, SOC
   Christoph Riplinger    : Optimizer, TS searches, QM/MM, DLPNO-CCSD(T), (RO)-DLPNO pert. Triples
   Tobias Risthaus        : Range-separated hybrids, TD-DFT gradient, RPA, STAB
   Michael Roemelt        : Original ROCIS implementation
   Masaaki Saitow         : Open-shell DLPNO-CCSD energy and density
   Barbara Sandhoefer     : DKH picture change effects
   Avijit Sen             : IP-ROCIS
   Kantharuban Sivalingam : CASSCF convergence, NEVPT2, FIC-MRCI
   Bernardo de Souza      : ESD, SOC TD-DFT
   Georgi Stoychev        : AutoAux, RI-MP2 NMR, DLPNO-MP2 response
   Willem Van den Heuvel  : Paramagnetic NMR
   Boris Wezisla          : Elementary symmetry handling
   Frank Wennmohs         : Technical directorship


 We gratefully acknowledge several colleagues who have allowed us to
 interface, adapt or use parts of their codes:
   Stefan Grimme, W. Hujo, H. Kruse, P. Pracht,  : VdW corrections, initial TS optimization,
                  C. Bannwarth, S. Ehlert          DFT functionals, gCP, sTDA/sTD-DF
   Ed Valeev, F. Pavosevic, A. Kumar             : LibInt (2-el integral package), F12 methods
   Garnet Chan, S. Sharma, J. Yang, R. Olivares  : DMRG
   Ulf Ekstrom                                   : XCFun DFT Library
   Mihaly Kallay                                 : mrcc  (arbitrary order and MRCC methods)
   Jiri Pittner, Ondrej Demel                    : Mk-CCSD
   Frank Weinhold                                : gennbo (NPA and NBO analysis)
   Christopher J. Cramer and Donald G. Truhlar   : smd solvation model
   Lars Goerigk                                  : TD-DFT with DH, B97 family of functionals
   V. Asgeirsson, H. Jonsson                     : NEB implementation
   FAccTs GmbH                                   : IRC, NEB, NEB-TS, DLPNO-Multilevel, CI-OPT
                                                   MM, QMMM, 2- and 3-layer-ONIOM, Crystal-QMMM,
                                                   LR-CPCM, SF, NACMEs, symmetry and pop. for TD-DFT,
                                                   nearIR, NL-DFT gradient (VV10), updates on ESD,
                                                   ML-optimized integration grids
   S Lehtola, MJT Oliveira, MAL Marques          : LibXC Library
   Liviu Ungur et al                             : ANISO software


 Your calculation uses the libint2 library for the computation of 2-el integrals
 For citations please refer to: http://libint.valeyev.net

 Your ORCA version has been built with support for libXC version: 5.1.0
 For citations please refer to: https://tddft.org/programs/libxc/

 This ORCA versions uses:
   CBLAS   interface :  Fast vector & matrix operations
   LAPACKE interface :  Fast linear algebra routines
   SCALAPACK package :  Parallel linear algebra routines
   Shared memory     :  Shared parallel matrices
   BLAS/LAPACK       :  OpenBLAS 0.3.15  USE64BITINT DYNAMIC_ARCH NO_AFFINITY Sandybridge SINGLE_THREADED
        Core in use  :  Sandybridge
   Copyright (c) 2011-2014, The OpenBLAS Project


================================================================================

----- Orbital basis set information -----
Your calculation utilizes the basis: cc-pVDZ 
       H, B-Ne : Obtained from the ccRepo (grant-hill.group.shef.ac.uk/ccrepo) Feb. 2017
                 T. H. Dunning, Jr., J. Chem. Phys. 90, 1007 (1989)
            He : Obtained from the ccRepo (grant-hill.group.shef.ac.uk/ccrepo) Feb. 2017
                 D. E. Woon, T. H. Dunning, Jr., J. Chem. Phys. 100, 2975 (1994)
  Li-Be, Na-Mg : Obtained from the ccRepo (grant-hill.group.shef.ac.uk/ccrepo) Feb. 2017
                 B. P. Prascher, D. E. Woon, K. A. Peterson, T. H. Dunning, Jr., A. K. Wilson, Theor. Chem. Acc. 128, 69 (2011)
         Al-Ar : Obtained from the ccRepo (grant-hill.group.shef.ac.uk/ccrepo) Feb. 2017
                 D. E. Woon, T. H. Dunning, Jr., J. Chem. Phys. 98, 1358 (1993)
            Ca : Obtained from the Peterson Research Group Website (tyr0.chem.wsu.edu/~kipeters) Feb. 2017
                 J. Koput, K. A. Peterson, J. Phys. Chem. 106, 9595 (2002)
         Sc-Zn : Obtained from the ccRepo (grant-hill.group.shef.ac.uk/ccrepo) Feb. 2017
                 N. B. Balabanov, K. A. Peterson, J. Chem. Phys. 123, 064107 (2005)
                 N. B. Balabanov, K. A. Peterson, J. Chem. Phys. 125, 074110 (2006)
         Ga-Kr : Obtained from the ccRepo (grant-hill.group.shef.ac.uk/ccrepo) Feb. 2017
                 A. K. Wilson, D. E. Woon, K. A. Peterson, T. H. Dunning, Jr., J. Chem. Phys. 110, 7667 (1999)

================================================================================
                                        WARNINGS
                       Please study these warnings very carefully!
================================================================================


WARNING: No MP2 level density has been requested!
         To caclulate MP2 level properties use
         %mp2 Density relaxed end
         or
         %mp2 Density unrelaxed end

WARNING: Post HF methods need fully converged wavefunctions
  ===> : Setting SCFConvForced true
         You can overwrite this default with %scf ConvForced false 


INFO   : the flag for use of the SHARK integral package has been found!

================================================================================
                                       INPUT FILE
================================================================================
NAME = /scratch/allen/tmpyp4_amber_gaff2/2.Mdgx/conf11/conf11/Conf284.orca
|  1> ! PAL2
|  2> ! mp2 cc-pvdz TightSCF  NoKeepInts
|  3> 
|  4> %scf
|  5>   MaxCore 2000
|  6> end
|  7> %mp2
|  8>   MaxCore 2000
|  9> end
| 10> * xyz 0 1
| 11>    C       -3.78900         5.95600         1.22400
| 12>    C        1.47400         4.04100         0.05700
| 13>    C       -2.80200         4.09300         0.04900
| 14>    C       -3.43500         4.55800        -1.11400
| 15>    C       -4.21400         5.69600        -1.07200
| 16>    C       -5.19600         7.61400         0.08900
| 17>    C        0.13200         4.30700         0.06100
| 18>    C       -0.56900         3.05600         0.04700
| 19>    C        1.64900         2.61800         0.02300
| 20>    C       -2.99500         4.82500         1.23100
| 21>    N       -4.38600         6.37600         0.08600
| 22>    N        0.38800         2.06700         0.02500
| 23>    N       -2.01000         0.39500        -0.07500
| 24>    N       -0.38800        -2.07400        -0.02700
| 25>    N        2.01000        -0.40100         0.06500
| 26>    C       -1.96000         2.86100         0.02400
| 27>    C       -2.62300         1.61500        -0.01800
| 28>    C       -5.57300        -4.32900         1.06600
| 29>    C       -4.07300         1.47100         0.05600
| 30>    C       -4.10600        -2.75600        -0.02600
| 31>    C       -4.99500        -2.75700        -1.11100
| 32>    C       -6.13200        -3.54200        -1.07600
| 33>    C       -7.65100        -5.11300         0.04000
| 34>    C       -4.32400         0.14100         0.03700
| 35>    C       -3.02500        -0.52000        -0.04800
| 36>    C       -4.42200        -3.56600         1.07500
| 37>    N       -6.40700        -4.31300         0.00100
| 38>    C       -2.86700        -1.92200        -0.04000
| 39>    C       -1.65000        -2.62400        -0.02700
| 40>    C        3.56800        -6.14200        -1.04000
| 41>    C       -1.47600        -4.04900        -0.03400
| 42>    C        2.80300        -4.09900        -0.00800
| 43>    C        3.65700        -4.38400         1.06900
| 44>    C        4.42700        -5.53000         1.05900
| 45>    C        5.24500        -7.58800         0.01400
| 46>    C       -0.13400        -4.31500        -0.02200
| 47>    C        0.56800        -3.06400        -0.02700
| 48>    C        2.77500        -5.01200        -1.07400
| 49>    N        4.37600        -6.39100         0.01700
| 50>    C        1.95900        -2.86900        -0.00900
| 51>    C        2.62100        -1.62200         0.00900
| 52>    C        5.54300         4.33900        -1.13000
| 53>    C        4.07000        -1.47900        -0.09400
| 54>    C        4.10400         2.75100        -0.02100
| 55>    C        5.02700         2.72900         1.03600
| 56>    C        6.16600         3.50900         0.97800
| 57>    C        7.61900         5.15300        -0.11500
| 58>    C        4.32100        -0.14800        -0.09200
| 59>    C        3.02500         0.51400         0.01500
| 60>    C        4.38700         3.58200        -1.11500
| 61>    C        2.86600         1.91600         0.01300
| 62>    N        6.41300         4.29600        -0.09500
| 63>    H       -3.97600         6.54400         2.11400
| 64>    H        2.27400         4.76600         0.08100
| 65>    H       -3.31600         4.04100        -2.05900
| 66>    H       -4.71400         6.09700        -1.94400
| 67>    H       -4.56000         8.45700        -0.19000
| 68>    H       -6.00900         7.50400        -0.62800
| 69>    H       -5.60000         7.76500         1.09000
| 70>    H       -0.33200         5.28200         0.06900
| 71>    H       -2.54500         4.50900         2.16500
| 72>    H        0.18200         1.07200         0.00500
| 73>    H       -0.18300        -1.08000        -0.02100
| 74>    H       -5.86400        -4.96200         1.89500
| 75>    H       -4.79400         2.27200         0.13900
| 76>    H       -4.80000        -2.16000        -1.99400
| 77>    H       -6.84100        -3.58200        -1.89300
| 78>    H       -8.42800        -4.53600         0.54600
| 79>    H       -7.95600        -5.33700        -0.98100
| 80>    H       -7.45600        -6.03700         0.58400
| 81>    H       -5.28700        -0.34400         0.10000
| 82>    H       -3.78000        -3.60100         1.94700
| 83>    H        3.58700        -6.86800        -1.84300
| 84>    H       -2.27600        -4.77400        -0.05000
| 85>    H        3.71400        -3.72400         1.92600
| 86>    H        5.09200        -5.79500         1.87100
| 87>    H        6.20500        -7.32900        -0.43900
| 88>    H        5.39300        -7.91700         1.04200
| 89>    H        4.75900        -8.37300        -0.56400
| 90>    H        0.32900        -5.29000        -0.00800
| 91>    H        2.14600        -4.84200        -1.94000
| 92>    H        5.80800         4.98600        -1.95600
| 93>    H        4.78800        -2.28100        -0.18500
| 94>    H        4.86000         2.11400         1.91200
| 95>    H        6.90100         3.53100         1.77200
| 96>    H        7.38300         6.10900         0.35600
| 97>    H        8.41400         4.65200         0.43500
| 98>    H        7.92100         5.31000        -1.15000
| 99>    H        5.28300         0.33600        -0.17900
|100>    H        3.72000         3.63200        -1.96700
|101> *
|102> 
|103>                          ****END OF INPUT****
================================================================================

                       ****************************
                       * Single Point Calculation *
                       ****************************

---------------------------------
CARTESIAN COORDINATES (ANGSTROEM)
---------------------------------
  C     -3.789000    5.956000    1.224000
  C      1.474000    4.041000    0.057000
  C     -2.802000    4.093000    0.049000
  C     -3.435000    4.558000   -1.114000
  C     -4.214000    5.696000   -1.072000
  C     -5.196000    7.614000    0.089000
  C      0.132000    4.307000    0.061000
  C     -0.569000    3.056000    0.047000
  C      1.649000    2.618000    0.023000
  C     -2.995000    4.825000    1.231000
  N     -4.386000    6.376000    0.086000
  N      0.388000    2.067000    0.025000
  N     -2.010000    0.395000   -0.075000
  N     -0.388000   -2.074000   -0.027000
  N      2.010000   -0.401000    0.065000
  C     -1.960000    2.861000    0.024000
  C     -2.623000    1.615000   -0.018000
  C     -5.573000   -4.329000    1.066000
  C     -4.073000    1.471000    0.056000
  C     -4.106000   -2.756000   -0.026000
  C     -4.995000   -2.757000   -1.111000
  C     -6.132000   -3.542000   -1.076000
  C     -7.651000   -5.113000    0.040000
  C     -4.324000    0.141000    0.037000
  C     -3.025000   -0.520000   -0.048000
  C     -4.422000   -3.566000    1.075000
  N     -6.407000   -4.313000    0.001000
  C     -2.867000   -1.922000   -0.040000
  C     -1.650000   -2.624000   -0.027000
  C      3.568000   -6.142000   -1.040000
  C     -1.476000   -4.049000   -0.034000
  C      2.803000   -4.099000   -0.008000
  C      3.657000   -4.384000    1.069000
  C      4.427000   -5.530000    1.059000
  C      5.245000   -7.588000    0.014000
  C     -0.134000   -4.315000   -0.022000
  C      0.568000   -3.064000   -0.027000
  C      2.775000   -5.012000   -1.074000
  N      4.376000   -6.391000    0.017000
  C      1.959000   -2.869000   -0.009000
  C      2.621000   -1.622000    0.009000
  C      5.543000    4.339000   -1.130000
  C      4.070000   -1.479000   -0.094000
  C      4.104000    2.751000   -0.021000
  C      5.027000    2.729000    1.036000
  C      6.166000    3.509000    0.978000
  C      7.619000    5.153000   -0.115000
  C      4.321000   -0.148000   -0.092000
  C      3.025000    0.514000    0.015000
  C      4.387000    3.582000   -1.115000
  C      2.866000    1.916000    0.013000
  N      6.413000    4.296000   -0.095000
  H     -3.976000    6.544000    2.114000
  H      2.274000    4.766000    0.081000
  H     -3.316000    4.041000   -2.059000
  H     -4.714000    6.097000   -1.944000
  H     -4.560000    8.457000   -0.190000
  H     -6.009000    7.504000   -0.628000
  H     -5.600000    7.765000    1.090000
  H     -0.332000    5.282000    0.069000
  H     -2.545000    4.509000    2.165000
  H      0.182000    1.072000    0.005000
  H     -0.183000   -1.080000   -0.021000
  H     -5.864000   -4.962000    1.895000
  H     -4.794000    2.272000    0.139000
  H     -4.800000   -2.160000   -1.994000
  H     -6.841000   -3.582000   -1.893000
  H     -8.428000   -4.536000    0.546000
  H     -7.956000   -5.337000   -0.981000
  H     -7.456000   -6.037000    0.584000
  H     -5.287000   -0.344000    0.100000
  H     -3.780000   -3.601000    1.947000
  H      3.587000   -6.868000   -1.843000
  H     -2.276000   -4.774000   -0.050000
  H      3.714000   -3.724000    1.926000
  H      5.092000   -5.795000    1.871000
  H      6.205000   -7.329000   -0.439000
  H      5.393000   -7.917000    1.042000
  H      4.759000   -8.373000   -0.564000
  H      0.329000   -5.290000   -0.008000
  H      2.146000   -4.842000   -1.940000
  H      5.808000    4.986000   -1.956000
  H      4.788000   -2.281000   -0.185000
  H      4.860000    2.114000    1.912000
  H      6.901000    3.531000    1.772000
  H      7.383000    6.109000    0.356000
  H      8.414000    4.652000    0.435000
  H      7.921000    5.310000   -1.150000
  H      5.283000    0.336000   -0.179000
  H      3.720000    3.632000   -1.967000

----------------------------
CARTESIAN COORDINATES (A.U.)
----------------------------
  NO LB      ZA    FRAG     MASS         X           Y           Z
   0 C     6.0000    0    12.011   -7.160172   11.255209    2.313025
   1 C     6.0000    0    12.011    2.785456    7.636383    0.107714
   2 C     6.0000    0    12.011   -5.295013    7.734649    0.092597
   3 C     6.0000    0    12.011   -6.491209    8.613372   -2.105155
   4 C     6.0000    0    12.011   -7.963306   10.763880   -2.025786
   5 C     6.0000    0    12.011   -9.819017   14.388375    0.168186
   6 C     6.0000    0    12.011    0.249444    8.139050    0.115273
   7 C     6.0000    0    12.011   -1.075254    5.775003    0.088817
   8 C     6.0000    0    12.011    3.116158    4.947303    0.043464
   9 C     6.0000    0    12.011   -5.659730    9.117929    2.326253
  10 N     7.0000    0    14.007   -8.288339   12.048894    0.162516
  11 N     7.0000    0    14.007    0.733214    3.906064    0.047243
  12 N     7.0000    0    14.007   -3.798350    0.746442   -0.141729
  13 N     7.0000    0    14.007   -0.733214   -3.919292   -0.051023
  14 N     7.0000    0    14.007    3.798350   -0.757780    0.122832
  15 C     6.0000    0    12.011   -3.703863    5.406506    0.045353
  16 C     6.0000    0    12.011   -4.956752    3.051908   -0.034015
  17 C     6.0000    0    12.011  -10.531444   -8.180624    2.014448
  18 C     6.0000    0    12.011   -7.696855    2.779787    0.105825
  19 C     6.0000    0    12.011   -7.759216   -5.208085   -0.049133
  20 C     6.0000    0    12.011   -9.439182   -5.209975   -2.099486
  21 C     6.0000    0    12.011  -11.587801   -6.693410   -2.033345
  22 C     6.0000    0    12.011  -14.458295   -9.662170    0.075589
  23 C     6.0000    0    12.011   -8.171176    0.266451    0.069920
  24 C     6.0000    0    12.011   -5.716422   -0.982658   -0.090707
  25 C     6.0000    0    12.011   -8.356369   -6.738763    2.031456
  26 N     7.0000    0    14.007  -12.107475   -8.150389    0.001890
  27 C     6.0000    0    12.011   -5.417845   -3.632054   -0.075589
  28 C     6.0000    0    12.011   -3.118048   -4.958641   -0.051023
  29 C     6.0000    0    12.011    6.742543  -11.606698   -1.965315
  30 C     6.0000    0    12.011   -2.789236   -7.651501   -0.064251
  31 C     6.0000    0    12.011    5.296902   -7.745987   -0.015118
  32 C     6.0000    0    12.011    6.910728   -8.284559    2.020117
  33 C     6.0000    0    12.011    8.365818  -10.450186    2.001220
  34 C     6.0000    0    12.011    9.911614  -14.339242    0.026456
  35 C     6.0000    0    12.011   -0.253223   -8.154168   -0.041574
  36 C     6.0000    0    12.011    1.073364   -5.790121   -0.051023
  37 C     6.0000    0    12.011    5.243990   -9.471307   -2.029566
  38 N     7.0000    0    14.007    8.269442  -12.077240    0.032125
  39 C     6.0000    0    12.011    3.701973   -5.421624   -0.017008
  40 C     6.0000    0    12.011    4.952972   -3.065136    0.017008
  41 C     6.0000    0    12.011   10.474752    8.199522   -2.135391
  42 C     6.0000    0    12.011    7.691185   -2.794905   -0.177634
  43 C     6.0000    0    12.011    7.755436    5.198637   -0.039684
  44 C     6.0000    0    12.011    9.499653    5.157063    1.957756
  45 C     6.0000    0    12.011   11.652051    6.631049    1.848152
  46 C     6.0000    0    12.011   14.397823    9.737759   -0.217319
  47 C     6.0000    0    12.011    8.165507   -0.279679   -0.173855
  48 C     6.0000    0    12.011    5.716422    0.971319    0.028346
  49 C     6.0000    0    12.011    8.290229    6.768999   -2.107045
  50 C     6.0000    0    12.011    5.415955    3.620715    0.024566
  51 N     7.0000    0    14.007   12.118814    8.118263   -0.179524
  52 H     1.0000    0     1.008   -7.513551   12.366368    3.994881
  53 H     1.0000    0     1.008    4.297237    9.006435    0.153068
  54 H     1.0000    0     1.008   -6.266332    7.636383   -3.890946
  55 H     1.0000    0     1.008   -8.908169   11.521660   -3.673628
  56 H     1.0000    0     1.008   -8.617151   15.981414   -0.359048
  57 H     1.0000    0     1.008  -11.355364   14.180505   -1.186748
  58 H     1.0000    0     1.008  -10.582466   14.673723    2.059801
  59 H     1.0000    0     1.008   -0.627389    9.981533    0.130391
  60 H     1.0000    0     1.008   -4.809353    8.520775    4.091257
  61 H     1.0000    0     1.008    0.343930    2.025786    0.009449
  62 H     1.0000    0     1.008   -0.345820   -2.040904   -0.039684
  63 H     1.0000    0     1.008  -11.081354   -9.376821    3.581031
  64 H     1.0000    0     1.008   -9.059347    4.293458    0.262672
  65 H     1.0000    0     1.008   -9.070685   -4.081808   -3.768114
  66 H     1.0000    0     1.008  -12.927616   -6.768999   -3.577252
  67 H     1.0000    0     1.008  -15.926612   -8.571798    1.031790
  68 H     1.0000    0     1.008  -15.034661  -10.085468   -1.853821
  69 H     1.0000    0     1.008  -14.089798  -11.408277    1.103600
  70 H     1.0000    0     1.008   -9.990982   -0.650066    0.188973
  71 H     1.0000    0     1.008   -7.143165   -6.804904    3.679297
  72 H     1.0000    0     1.008    6.778448  -12.978639   -3.482765
  73 H     1.0000    0     1.008   -4.301017   -9.021553   -0.094486
  74 H     1.0000    0     1.008    7.018443   -7.037340    3.639613
  75 H     1.0000    0     1.008    9.622485  -10.950963    3.535678
  76 H     1.0000    0     1.008   11.725751  -13.849803   -0.829590
  77 H     1.0000    0     1.008   10.191293  -14.960962    1.969095
  78 H     1.0000    0     1.008    8.993207  -15.822677   -1.065806
  79 H     1.0000    0     1.008    0.621720   -9.996651   -0.015118
  80 H     1.0000    0     1.008    4.055352   -9.150054   -3.666069
  81 H     1.0000    0     1.008   10.975529    9.422175   -3.696304
  82 H     1.0000    0     1.008    9.048009   -4.310465   -0.349599
  83 H     1.0000    0     1.008    9.184069    3.994881    3.613156
  84 H     1.0000    0     1.008   13.041000    6.672623    3.348595
  85 H     1.0000    0     1.008   13.951848   11.544337    0.672743
  86 H     1.0000    0     1.008   15.900156    8.791006    0.822031
  87 H     1.0000    0     1.008   14.968521   10.034446   -2.173185
  88 H     1.0000    0     1.008    9.983423    0.634948   -0.338261
  89 H     1.0000    0     1.008    7.029781    6.863485   -3.717091

--------------------------------
INTERNAL COORDINATES (ANGSTROEM)
--------------------------------
 C      0   0   0     0.000000000000     0.00000000     0.00000000
 C      1   0   0     5.720863833373     0.00000000     0.00000000
 C      1   2   0     2.413620309825    42.78708747     0.00000000
 C      3   1   2     1.403382699053    87.89288707   240.92878783
 C      4   3   1     1.379727871720   120.18084282     0.12758053
 C      5   4   3     2.447645603432   152.53357063     1.63850132
 C      2   1   3     1.368114030335    14.51426732    22.00328091
 C      7   2   3     1.434084376876   108.05010202     0.84668783
 C      2   1   3     1.434123425651   116.69487251   325.08468907
 C      1   2   3     1.381899417469    36.72480909    47.19605942
 N      1   2   3     1.351981138922   109.78658887   291.84606556
 N      9   2   1     1.376127174356   106.58526707    12.01000637
 N     12   9   2     2.925062050624   168.53581413   171.12065651
 N     13  12   9     2.954513327098    91.55032014    11.12112580
 N     14  13  12     2.925371258490    88.43092389   359.84326247
 C      8   7   2     1.404790019896   127.24786865   181.11170171
 C     13  12   9     1.366535034311    81.72106996   188.00453233
 C     14  13  12     5.758810554272    80.56209567   166.76250791
 C     17  13  12     1.459010623676   111.08861209   183.82872609
 C     18  14  13     2.412235892279    27.27532823    36.33507194
 C     20  18  14     1.402692767501    87.95206320   148.94598259
 C     21  20  18     1.382106725257   120.14573887   359.70382047
 C     18  14  13     2.446510985056   144.15733107    82.80075377
 C     19  17  13     1.353610726908   106.29293361   359.75308708
 C     13  12   9     1.366813447402   172.21332906    33.46711076
 C     18  14  13     1.380960173213    15.08449437   309.23336894
 N     22  21  20     1.352773077792   120.73759875     0.27865223
 C     25  13  17     1.410897586645   125.60330303   182.37774668
 C     14  13  12     1.376642291955    80.24689249   177.85461986
 C     14  13  12     5.764089607215   164.51507311   312.20821879
 C     29  14  13     1.435600919476   106.58649366   178.76395472
 C     30  14  13     2.413316804732    27.10625047    82.12560436
 C     32  30  14     1.403734305344    87.90059683   149.76154742
 C     33  32  30     1.380694028378   120.14881443   359.74174632
 C     34  33  32     2.448777858443   152.49203239     2.45173620
 C     31  29  14     1.368160809262   108.16950133     0.70383075
 C     14  13  12     1.376239804685   169.26375223   353.09862627
 C     30  14  13     1.380907310430    14.68948582   353.70041132
 N     34  33  32     1.352658863128   120.85575621     0.19603406
 C     37  14  29     1.404717053360   126.01551127   180.90772073
 C     15  14  13     1.366491126938    81.61824056   183.09049352
 C      2   1   3     4.249062720177   156.13340545   135.98864613
 C     41  15  14     1.459677704153   111.05201287   175.08990246
 C     42   2   1     2.412953791518    41.78584867   164.48717485
 C     44  42   2     1.403446472082    87.95153797   233.97558675
 C     45  44  42     1.381696421071   120.11137308     0.19721020
 C     42   2   1     2.450019795838   135.97209175    74.80202395
 C     43  41  15     1.354461516618   106.26758155     0.30894352
 C     15  14  13     1.367461151185   171.87382904   332.35056460
 C     42   2   1     1.381886391857    32.59078432   213.34245404
 C      9   2   1     1.404988612053   126.98745415   193.01434390
 N     42   2   1     1.352765315936   113.57249190   102.53861314
 H      1   2   3     1.082964911712   120.54701939   152.05456263
 H      2   1   3     1.079907866440   116.88827754   157.07324666
 H      4   3   1     1.083731977936   120.99940129   179.53403310
 H      5   4   3     1.082213010456   122.81631076   179.44577093
 H      6   5   4     1.092238984838   104.47860813   100.08659382
 H      6   5   4     1.089567804223    84.72783063   209.55510926
 H      6   5   4     1.089962384672   133.85890422   322.34314364
 H      7   2  54     1.079807853278   126.66122480     1.30600390
 H     10   1   2     1.083841316799   118.78615251    99.02356672
 H     12   9   2     1.016297692608   125.29023241   180.00180175
 H     14  13  12     1.014936943854    44.97226959   359.42596618
 H     18  14  13     1.082871645210   128.03556573   234.20482432
 H     19  17  13     1.080893611786   126.41830519   178.11313280
 H     21  20  18     1.083569563987   121.05669627   180.67006309
 H     22  21  20     1.082483256222   122.73097286   180.59748951
 H     23  18  14     1.092105306278   103.92715769   234.93429879
 H     23  18  14     1.088871893291   134.19244188    12.25587044
 H     23  18  14     1.089833473518    84.85857450   125.45241208
 H     24  19  17     1.080075460327   127.28078426   178.44613241
 H     26  18  14     1.083408048706   118.76995697   244.94906660
 H     30  14  13     1.082703098730   127.99711412   279.66882698
 H     31  29  14     1.079759695488   125.22293469   180.92530585
 H     33  32  30     1.083188810873   121.01964473   180.74284758
 H     34  33  32     1.082494341787   122.70821597   180.59516895
 H     35  34  33     1.092652735319   105.73575241    97.19771933
 H     35  34  33     1.089462711615    84.05943581   206.43036958
 H     35  34  33     1.089268102902   133.08365142   318.50306270
 H     36  31  29     1.079439669458   126.61599965   178.98859863
 H     38  30  73     1.083742127999   118.77264435   359.90091293
 H     42   2   1     1.082178358682   119.31790784   319.17014360
 H     43  41  15     1.080281907652   126.36969097   182.06329380
 H     45  44  42     1.083277434455   121.10105945   179.58025624
 H     46  45  44     1.082194529648   122.72144639   179.46906377
 H     47  42   2     1.091546151109   106.65128841   315.16475048
 H     47  42   2     1.088818625851   132.46019523    94.52397119
 H     47  42   2     1.089531091801    83.63838232   206.04504406
 H     48  43  41     1.080402239909   127.23657387   181.62955349
 H     50  42   2     1.083186502870   118.77001737    94.71359229

---------------------------
INTERNAL COORDINATES (A.U.)
---------------------------
 C      0   0   0     0.000000000000     0.00000000     0.00000000
 C      1   0   0    10.810865894531     0.00000000     0.00000000
 C      1   2   0     4.561081376840    42.78708747     0.00000000
 C      3   1   2     2.652008962293    87.89288707   240.92878783
 C      4   3   1     2.607307816888   120.18084282     0.12758053
 C      5   4   3     4.625379863383   152.53357063     1.63850132
 C      2   1   3     2.585360837309    14.51426732    22.00328091
 C      7   2   3     2.710026725231   108.05010202     0.84668783
 C      2   1   3     2.710100516721   116.69487251   325.08468907
 C      1   2   3     2.611411443641    36.72480909    47.19605942
 N      1   2   3     2.554874090789   109.78658887   291.84606556
 N      9   2   1     2.600503484979   106.58526707    12.01000637
 N     12   9   2     5.527566200405   168.53581413   171.12065651
 N     13  12   9     5.583221047236    91.55032014    11.12112580
 N     14  13  12     5.528150518591    88.43092389   359.84326247
 C      8   7   2     2.654668413270   127.24786865   181.11170171
 C     13  12   9     2.582376967257    81.72106996   188.00453233
 C     14  13  12    10.882574804710    80.56209567   166.76250791
 C     17  13  12     2.757130505230   111.08861209   183.82872609
 C     18  14  13     4.558465206823    27.27532823    36.33507194
 C     20  18  14     2.650705180609    87.95206320   148.94598259
 C     21  20  18     2.611803198586   120.14573887   359.70382047
 C     18  14  13     4.623235745386   144.15733107    82.80075377
 C     19  17  13     2.557953565794   106.29293361   359.75308708
 C     13  12   9     2.582903091751   172.21332906    33.46711076
 C     18  14  13     2.609636529225    15.08449437   309.23336894
 N     22  21  20     2.556370638369   120.73759875     0.27865223
 C     25  13  17     2.666210041769   125.60330303   182.37774668
 C     14  13  12     2.601476916169    80.24689249   177.85461986
 C     14  13  12    10.892550769017   164.51507311   312.20821879
 C     29  14  13     2.712892575415   106.58649366   178.76395472
 C     30  14  13     4.560507835333    27.10625047    82.12560436
 C     32  30  14     2.652673401891    87.90059683   149.76154742
 C     33  32  30     2.609133588376   120.14881443   359.74174632
 C     34  33  32     4.627519515267   152.49203239     2.45173620
 C     31  29  14     2.585449236669   108.16950133     0.70383075
 C     14  13  12     2.600716325456   169.26375223   353.09862627
 C     30  14  13     2.609536633043    14.68948582   353.70041132
 N     34  33  32     2.556154803934   120.85575621     0.19603406
 C     37  14  29     2.654530526499   126.01551127   180.90772073
 C     15  14  13     2.582293994346    81.61824056   183.09049352
 C      2   1   3     8.029564866989   156.13340545   135.98864613
 C     41  15  14     2.758391104639   111.05201287   175.08990246
 C     42   2   1     4.559821839776    41.78584867   164.48717485
 C     44  42   2     2.652129475853    87.95153797   233.97558675
 C     45  44  42     2.611027836043   120.11137308     0.19721020
 C     42   2   1     4.629866436820   135.97209175    74.80202395
 C     43  41  15     2.559561325344   106.26758155     0.30894352
 C     15  14  13     2.584127074516   171.87382904   332.35056460
 C     42   2   1     2.611386828803    32.59078432   213.34245404
 C      9   2   1     2.655043698059   126.98745415   193.01434390
 N     42   2   1     2.556355970587   113.57249190   102.53861314
 H      1   2   3     2.046507095782   120.54701939   152.05456263
 H      2   1   3     2.040730117440   116.88827754   157.07324666
 H      4   3   1     2.047956640871   120.99940129   179.53403310
 H      5   4   3     2.045086208328   122.81631076   179.44577093
 H      6   5   4     2.064032554136   104.47860813   100.08659382
 H      6   5   4     2.058984754320    84.72783063   209.55510926
 H      6   5   4     2.059730403306   133.85890422   322.34314364
 H      7   2  54     2.040541119952   126.66122480     1.30600390
 H     10   1   2     2.048163261378   118.78615251    99.02356672
 H     12   9   2     1.920524309565   125.29023241   180.00180175
 H     14  13  12     1.917952867083    44.97226959   359.42596618
 H     18  14  13     2.046330847636   128.03556573   234.20482432
 H     19  17  13     2.042592906181   126.41830519   178.11313280
 H     21  20  18     2.047649722989   121.05669627   180.67006309
 H     22  21  20     2.045596898814   122.73097286   180.59748951
 H     23  18  14     2.063779938267   103.92715769   234.93429879
 H     23  18  14     2.057669673245   134.19244188    12.25587044
 H     23  18  14     2.059486796529    84.85857450   125.45241208
 H     24  19  17     2.041046823986   127.28078426   178.44613241
 H     26  18  14     2.047344503340   118.76995697   244.94906660
 H     30  14  13     2.046012340948   127.99711412   279.66882698
 H     31  29  14     2.040450114918   125.22293469   180.92530585
 H     33  32  30     2.046930203877   121.01964473   180.74284758
 H     34  33  32     2.045617847496   122.70821597   180.59516895
 H     35  34  33     2.064814429233   105.73575241    97.19771933
 H     35  34  33     2.058786158072    84.05943581   206.43036958
 H     35  34  33     2.058418400901   133.08365142   318.50306270
 H     36  31  29     2.039845353366   126.61599965   178.98859863
 H     38  30  73     2.047975821711   118.77264435   359.90091293
 H     42   2   1     2.045020725966   119.31790784   319.17014360
 H     43  41  15     2.041436952892   126.36969097   182.06329380
 H     45  44  42     2.047097678177   121.10105945   179.58025624
 H     46  45  44     2.045051284662   122.72144639   179.46906377
 H     47  42   2     2.062723288131   106.65128841   315.16475048
 H     47  42   2     2.057569012371   132.46019523    94.52397119
 H     47  42   2     2.058915377895    83.63838232   206.04504406
 H     48  43  41     2.041664347903   127.23657387   181.62955349
 H     50  42   2     2.046925842384   118.77001737    94.71359229

---------------------
BASIS SET INFORMATION
---------------------
There are 3 groups of distinct atoms

 Group   1 Type C   : 17s4p1d contracted to 3s2p1d pattern {881/31/1}
 Group   2 Type N   : 17s4p1d contracted to 3s2p1d pattern {881/31/1}
 Group   3 Type H   : 4s1p contracted to 2s1p pattern {31/1}

Atom   0C    basis set group =>   1
Atom   1N    basis set group =>   2
Atom   2C    basis set group =>   1
Atom   3N    basis set group =>   2
Atom   4C    basis set group =>   1
Atom   5N    basis set group =>   2
Atom   6C    basis set group =>   1
Atom   7N    basis set group =>   2
Atom   8C    basis set group =>   1
Atom   9N    basis set group =>   2
Atom  10C    basis set group =>   1
Atom  11N    basis set group =>   2
Atom  12C    basis set group =>   1
Atom  13N    basis set group =>   2
Atom  14C    basis set group =>   1
Atom  15N    basis set group =>   2
Atom  16C    basis set group =>   1
Atom  17C    basis set group =>   1
Atom  18C    basis set group =>   1
Atom  19C    basis set group =>   1
Atom  20C    basis set group =>   1
Atom  21C    basis set group =>   1
Atom  22C    basis set group =>   1
Atom  23C    basis set group =>   1
Atom  24C    basis set group =>   1
Atom  25C    basis set group =>   1
Atom  26C    basis set group =>   1
Atom  27C    basis set group =>   1
Atom  28C    basis set group =>   1
Atom  29C    basis set group =>   1
Atom  30C    basis set group =>   1
Atom  31C    basis set group =>   1
Atom  32C    basis set group =>   1
Atom  33C    basis set group =>   1
Atom  34C    basis set group =>   1
Atom  35C    basis set group =>   1
Atom  36C    basis set group =>   1
Atom  37C    basis set group =>   1
Atom  38C    basis set group =>   1
Atom  39C    basis set group =>   1
Atom  40C    basis set group =>   1
Atom  41C    basis set group =>   1
Atom  42C    basis set group =>   1
Atom  43C    basis set group =>   1
Atom  44C    basis set group =>   1
Atom  45C    basis set group =>   1
Atom  46C    basis set group =>   1
Atom  47C    basis set group =>   1
Atom  48C    basis set group =>   1
Atom  49C    basis set group =>   1
Atom  50C    basis set group =>   1
Atom  51C    basis set group =>   1
Atom  52H    basis set group =>   3
Atom  53H    basis set group =>   3
Atom  54H    basis set group =>   3
Atom  55H    basis set group =>   3
Atom  56H    basis set group =>   3
Atom  57H    basis set group =>   3
Atom  58H    basis set group =>   3
Atom  59H    basis set group =>   3
Atom  60H    basis set group =>   3
Atom  61H    basis set group =>   3
Atom  62H    basis set group =>   3
Atom  63H    basis set group =>   3
Atom  64H    basis set group =>   3
Atom  65H    basis set group =>   3
Atom  66H    basis set group =>   3
Atom  67H    basis set group =>   3
Atom  68H    basis set group =>   3
Atom  69H    basis set group =>   3
Atom  70H    basis set group =>   3
Atom  71H    basis set group =>   3
Atom  72H    basis set group =>   3
Atom  73H    basis set group =>   3
Atom  74H    basis set group =>   3
Atom  75H    basis set group =>   3
Atom  76H    basis set group =>   3
Atom  77H    basis set group =>   3
Atom  78H    basis set group =>   3
Atom  79H    basis set group =>   3
Atom  80H    basis set group =>   3
Atom  81H    basis set group =>   3
Atom  82H    basis set group =>   3
Atom  83H    basis set group =>   3
Atom  84H    basis set group =>   3
Atom  85H    basis set group =>   3
Atom  86H    basis set group =>   3
Atom  87H    basis set group =>   3
Atom  88H    basis set group =>   3
Atom  89H    basis set group =>   3


           ************************************************************
           *        Program running with 8 parallel MPI-processes     *
           *              working on a common directory               *
           ************************************************************
------------------------------------------------------------------------------
                           ORCA GTO INTEGRAL CALCULATION
------------------------------------------------------------------------------
------------------------------------------------------------------------------
                   ___                                                        
                  /   \      - P O W E R E D   B Y -                         
                 /     \                                                     
                 |  |  |   _    _      __       _____    __    __             
                 |  |  |  | |  | |    /  \     |  _  \  |  |  /  |          
                  \  \/   | |  | |   /    \    | | | |  |  | /  /          
                 / \  \   | |__| |  /  /\  \   | |_| |  |  |/  /          
                |  |  |   |  __  | /  /__\  \  |    /   |      \           
                |  |  |   | |  | | |   __   |  |    \   |  |\   \          
                \     /   | |  | | |  |  |  |  | |\  \  |  | \   \       
                 \___/    |_|  |_| |__|  |__|  |_| \__\ |__|  \__/        
                                                                              
                      - O R C A' S   B I G   F R I E N D -                    
                                      &                                       
                       - I N T E G R A L  F E E D E R -                       
                                                                              
 v1 FN, 2020, v2 2021                                                         
------------------------------------------------------------------------------


Reading SHARK input file /scratch/chu_02/allen/tmpyp4_amber_gaff2/conf1/conf1/Conf284.orca.SHARKINP.tmp ... ok
----------------------
SHARK INTEGRAL PACKAGE
----------------------

Number of atoms                             ...     90
Number of basis functions                   ...   1230
Number of shells                            ...    738
Maximum angular momentum                    ...      2
Integral batch strategy                     ... SHARK/LIBINT Hybrid
RI-J (if used) integral strategy            ... SPLIT-RIJ (Revised 2003 algorithm where possible)
Printlevel                                  ...      1
Contraction scheme used                     ... PARTIAL GENERAL contraction
Coulomb Range Separation                    ... NOT USED
Exchange Range Separation                   ... NOT USED
Finite Nucleus Model                        ... NOT USED
Auxiliary Coulomb fitting basis             ... NOT available
Auxiliary J/K fitting basis                 ... NOT available
Auxiliary Correlation fitting basis         ... NOT available
Auxiliary 'external' fitting basis          ... NOT available
Integral threshold                          ...     2.500000e-11
Primitive cut-off                           ...     2.500000e-12
Primitive pair pre-selection threshold      ...     2.500000e-12

Calculating pre-screening integrals         ... done (  0.1 sec) Dimension = 738
Calculating pre-screening integrals (ORCA)  ... done (  0.3 sec) Dimension = 426
Organizing shell pair data                  ... done (  0.6 sec)
Shell pair information
Total number of shell pairs                 ...    272691
Shell pairs after pre-screening             ...     71601
Total number of primitive shell pairs       ...    422091
Primitive shell pairs kept                  ...     92350
          la=0 lb=0:  29414 shell pairs
          la=1 lb=0:  25960 shell pairs
          la=1 lb=1:   4684 shell pairs
          la=2 lb=0:   7889 shell pairs
          la=2 lb=1:   3123 shell pairs
          la=2 lb=2:    531 shell pairs

Calculating one electron integrals          ... done (  0.2 sec)
Calculating Nuclear repulsion               ... done (  0.0 sec) ENN=   6222.364909306026 Eh

SHARK setup successfully completed in   1.7 seconds

Maximum memory used throughout the entire GTOINT-calculation: 99.0 MB


           ************************************************************
           *        Program running with 8 parallel MPI-processes     *
           *              working on a common directory               *
           ************************************************************
-------------------------------------------------------------------------------
                                 ORCA SCF
-------------------------------------------------------------------------------

------------
SCF SETTINGS
------------
Hamiltonian:
 Ab initio Hamiltonian  Method          .... Hartree-Fock(GTOs)


General Settings:
 Integral files         IntName         .... /scratch/chu_02/allen/tmpyp4_amber_gaff2/conf1/conf1/Conf284.orca
 Hartree-Fock type      HFTyp           .... RHF
 Total Charge           Charge          ....    0
 Multiplicity           Mult            ....    1
 Number of Electrons    NEL             ....  358
 Basis Dimension        Dim             ....  918
 Nuclear Repulsion      ENuc            ....   6222.3649093060 Eh

Convergence Acceleration:
 DIIS                   CNVDIIS         .... on
   Start iteration      DIISMaxIt       ....    12
   Startup error        DIISStart       ....  0.200000
   # of expansion vecs  DIISMaxEq       ....     5
   Bias factor          DIISBfac        ....   1.050
   Max. coefficient     DIISMaxC        ....  10.000
 Trust-Rad. Augm. Hess. CNVTRAH         .... auto
   Auto Start mean grad. ratio tolernc. ....  1.125000
   Auto Start start iteration           ....    20
   Auto Start num. interpolation iter.  ....    10
   Max. Number of Micro iterations      ....    16
   Max. Number of Macro iterations      .... Maxiter - #DIIS iter
   Number of Davidson start vectors     ....     2
   Converg. threshold I  (grad. norm)   ....   1.000e-05
   Converg. threshold II (energy diff.) ....   1.000e-08
   Grad. Scal. Fac. for Micro threshold ....   0.100
   Minimum threshold for Micro iter.    ....   0.010
   NR start threshold (gradient norm)   ....   0.001
   Initial trust radius                 ....   0.400
   Minimum AH scaling param. (alpha)    ....   1.000
   Maximum AH scaling param. (alpha)    .... 1000.000
   Orbital update algorithm             .... Taylor
   White noise on init. David. guess    .... on
   Maximum white noise                  ....   0.010
   Quad. conv. algorithm                .... NR
 SOSCF                  CNVSOSCF        .... on
   Start iteration      SOSCFMaxIt      ....   150
   Startup grad/error   SOSCFStart      ....  0.003300
 Level Shifting         CNVShift        .... on
   Level shift para.    LevelShift      ....    0.2500
   Turn off err/grad.   ShiftErr        ....    0.0010
 Zerner damping         CNVZerner       .... off
 Static damping         CNVDamp         .... on
   Fraction old density DampFac         ....    0.7000
   Max. Damping (<1)    DampMax         ....    0.9800
   Min. Damping (>=0)   DampMin         ....    0.0000
   Turn off err/grad.   DampErr         ....    0.1000
 Fernandez-Rico         CNVRico         .... off

SCF Procedure:
 Maximum # iterations   MaxIter         ....   125
 SCF integral mode      SCFMode         .... Direct
   Integral package                     .... SHARK and LIBINT hybrid scheme
 Reset frequency        DirectResetFreq ....    20
 Integral Threshold     Thresh          ....  2.500e-11 Eh
 Primitive CutOff       TCut            ....  2.500e-12 Eh

Convergence Tolerance:
 Convergence Check Mode ConvCheckMode   .... Total+1el-Energy
 Convergence forced     ConvForced      .... 1
 Energy Change          TolE            ....  1.000e-08 Eh
 1-El. energy change                    ....  1.000e-05 Eh
 Orbital Gradient       TolG            ....  1.000e-05
 Orbital Rotation angle TolX            ....  1.000e-05
 DIIS Error             TolErr          ....  5.000e-07


Diagonalization of the overlap matrix:
Smallest eigenvalue                        ... 2.262e-04
Time for diagonalization                   ...    0.217 sec
Threshold for overlap eigenvalues          ... 1.000e-08
Number of eigenvalues below threshold      ... 0
Time for construction of square roots      ...    0.132 sec
Total time needed                          ...    0.353 sec

Time for model grid setup =    1.331 sec

------------------------------
INITIAL GUESS: MODEL POTENTIAL
------------------------------
Loading Hartree-Fock densities                     ... done
Calculating cut-offs                               ... done
Initializing the effective Hamiltonian             ... done
Setting up the integral package (SHARK)            ... done
Starting the Coulomb interaction                   ... done (   1.6 sec)
Reading the grid                                   ... done
Mapping shells                                     ... done
Starting the XC term evaluation                    ... done (   0.3 sec)
Transforming the Hamiltonian                       ... done (   0.1 sec)
Diagonalizing the Hamiltonian                      ... done (   0.2 sec)
Back transforming the eigenvectors                 ... done (   0.0 sec)
Now organizing SCF variables                       ... done
                      ------------------
                      INITIAL GUESS DONE (   3.7 sec)
                      ------------------
--------------
SCF ITERATIONS
--------------
ITER       Energy         Delta-E        Max-DP      RMS-DP      [F,P]     Damp
               ***  Starting incremental Fock matrix formation  ***
  0  -2121.6494083055   0.000000000000 0.06928123  0.00121134  0.2345866 0.7000
  1  -2122.3182835060  -0.668875200534 0.05264073  0.00098170  0.1450763 0.7000
                               ***Turning on DIIS***
  2  -2122.7341670467  -0.415883540689 0.11694870  0.00222065  0.0805523 0.0000
  3  -2117.7037482684   5.030418778324 0.03321357  0.00068686  0.0444189 0.0000
  4  -2123.4023891270  -5.698640858573 0.00896709  0.00023004  0.0071569 0.0000
  5  -2123.5822451091  -0.179855982102 0.00520698  0.00013754  0.0050630 0.0000
  6  -2123.5638140449   0.018431064182 0.00386663  0.00009208  0.0022146 0.0000
  7  -2123.6693344003  -0.105520355432 0.00338322  0.00007568  0.0017109 0.0000
  8  -2123.6963240064  -0.026989606105 0.00318838  0.00007505  0.0015977 0.0000
  9  -2123.6562316255   0.040092380874 0.00269728  0.00005375  0.0012656 0.0000
 10  -2123.6778170578  -0.021585432287 0.00691049  0.00012158  0.0009576 0.0000
                      *** Initiating the SOSCF procedure ***
                           *** Shutting down DIIS ***
                      *** Re-Reading the Fockian *** 
                      *** Removing any level shift *** 
ITER      Energy       Delta-E        Grad      Rot      Max-DP    RMS-DP
 11  -2123.51639431   0.1614227513  0.000201  0.000201  0.000250  0.000006
               *** Restarting incremental Fock matrix formation ***
 12  -2123.61377608  -0.0973817709  0.000929  0.007969  0.001762  0.000043
 13  -2123.61393454  -0.0001584663  0.001178  0.031699  0.009454  0.000160
 14  -2123.61423046  -0.0002959148  0.000357  0.006398  0.002012  0.000031
 15  -2123.61427303  -0.0000425675  0.000438  0.018328  0.004354  0.000069
 16  -2123.61432710  -0.0000540773  0.000251  0.006897  0.001406  0.000031
 17  -2123.61434941  -0.0000223040  0.000350  0.010351  0.001792  0.000036
 18  -2123.61437055  -0.0000211435  0.000219  0.007314  0.001357  0.000024
 19  -2123.61438006  -0.0000095047  0.000141  0.003531  0.000611  0.000011
 20  -2123.61438319  -0.0000031319  0.000110  0.002539  0.000444  0.000009
 21  -2123.61438556  -0.0000023726  0.000078  0.002881  0.000440  0.000010
 22  -2123.61438732  -0.0000017614  0.000057  0.002148  0.000375  0.000008
 23  -2123.61438820  -0.0000008822  0.000051  0.001377  0.000260  0.000005
 24  -2123.61438865  -0.0000004426  0.000023  0.000585  0.000149  0.000003
 25  -2123.61438885  -0.0000002012  0.000021  0.000580  0.000129  0.000002
 26  -2123.61438897  -0.0000001188  0.000018  0.000737  0.000158  0.000003
 27  -2123.61438906  -0.0000000952  0.000017  0.000586  0.000122  0.000002
 28  -2123.61438912  -0.0000000597  0.000011  0.000329  0.000062  0.000001
 29  -2123.61438916  -0.0000000342  0.000006  0.000104  0.000023  0.000001
 30  -2123.61438917  -0.0000000128  0.000003  0.000043  0.000014  0.000000
 31  -2123.61438917  -0.0000000049  0.000003  0.000049  0.000018  0.000000
               *** Restarting incremental Fock matrix formation ***
                  ***Gradient check signals convergence***
              ***Rediagonalizing the Fockian in SOSCF/NRSCF***

               *****************************************************
               *                     SUCCESS                       *
               *           SCF CONVERGED AFTER  32 CYCLES          *
               *****************************************************


----------------
TOTAL SCF ENERGY
----------------

Total Energy       :        -2123.61438917 Eh          -57786.48534 eV

Components:
Nuclear Repulsion  :         6222.36490931 Eh          169319.15720 eV
Electronic Energy  :        -8345.97929847 Eh         -227105.64254 eV
One Electron Energy:       -15286.17680222 Eh         -415958.01769 eV
Two Electron Energy:         6940.19750375 Eh          188852.37515 eV

Virial components:
Potential Energy   :        -4245.59656175 Eh         -115528.55580 eV
Kinetic Energy     :         2121.98217258 Eh           57742.07047 eV
Virial Ratio       :            2.00076919


---------------
SCF CONVERGENCE
---------------

  Last Energy change         ...    7.1759e-09  Tolerance :   1.0000e-08
  Last MAX-Density change    ...    1.5133e-05  Tolerance :   1.0000e-07
  Last RMS-Density change    ...    2.0299e-07  Tolerance :   5.0000e-09
  Last Orbital Gradient      ...    1.6242e-06  Tolerance :   1.0000e-05
  Last Orbital Rotation      ...    4.3530e-05  Tolerance :   1.0000e-05

             **** THE GBW FILE WAS UPDATED (/scratch/chu_02/allen/tmpyp4_amber_gaff2/conf1/conf1/Conf284.orca.gbw) ****
             **** DENSITY /scratch/chu_02/allen/tmpyp4_amber_gaff2/conf1/conf1/Conf284.orca.scfp WAS UPDATED ****
             **** ENERGY FILE WAS UPDATED (/scratch/chu_02/allen/tmpyp4_amber_gaff2/conf1/conf1/Conf284.orca.en.tmp) ****
             **** THE GBW FILE WAS UPDATED (/scratch/chu_02/allen/tmpyp4_amber_gaff2/conf1/conf1/Conf284.orca.gbw) ****
             **** DENSITY /scratch/chu_02/allen/tmpyp4_amber_gaff2/conf1/conf1/Conf284.orca.scfp WAS UPDATED ****
----------------
ORBITAL ENERGIES
----------------

  NO   OCC          E(Eh)            E(eV) 
   0   2.0000     -15.683918      -426.7811 
   1   2.0000     -15.635028      -425.4507 
   2   2.0000     -15.623664      -425.1415 
   3   2.0000     -15.596458      -424.4012 
   4   2.0000     -15.518127      -422.2697 
   5   2.0000     -15.509091      -422.0238 
   6   2.0000     -15.448485      -420.3747 
   7   2.0000     -15.432263      -419.9332 
   8   2.0000     -11.330088      -308.3074 
   9   2.0000     -11.329228      -308.2840 
  10   2.0000     -11.329131      -308.2813 
  11   2.0000     -11.300150      -307.4927 
  12   2.0000     -11.294237      -307.3318 
  13   2.0000     -11.292673      -307.2892 
  14   2.0000     -11.287594      -307.1510 
  15   2.0000     -11.284028      -307.0540 
  16   2.0000     -11.281801      -306.9934 
  17   2.0000     -11.277636      -306.8801 
  18   2.0000     -11.275801      -306.8302 
  19   2.0000     -11.264264      -306.5162 
  20   2.0000     -11.263939      -306.5074 
  21   2.0000     -11.259983      -306.3997 
  22   2.0000     -11.256538      -306.3060 
  23   2.0000     -11.238484      -305.8147 
  24   2.0000     -11.231220      -305.6170 
  25   2.0000     -11.230388      -305.5944 
  26   2.0000     -11.227807      -305.5242 
  27   2.0000     -11.222415      -305.3774 
  28   2.0000     -11.222226      -305.3723 
  29   2.0000     -11.203946      -304.8749 
  30   2.0000     -11.203587      -304.8651 
  31   2.0000     -11.203424      -304.8607 
  32   2.0000     -11.202581      -304.8377 
  33   2.0000     -11.201678      -304.8132 
  34   2.0000     -11.186761      -304.4072 
  35   2.0000     -11.186715      -304.4060 
  36   2.0000     -11.185689      -304.3781 
  37   2.0000     -11.185239      -304.3658 
  38   2.0000     -11.183856      -304.3282 
  39   2.0000     -11.168161      -303.9011 
  40   2.0000     -11.167587      -303.8855 
  41   2.0000     -11.162341      -303.7427 
  42   2.0000     -11.160012      -303.6794 
  43   2.0000     -11.159535      -303.6664 
  44   2.0000     -11.154441      -303.5278 
  45   2.0000     -11.153172      -303.4932 
  46   2.0000     -11.152578      -303.4771 
  47   2.0000     -11.148558      -303.3677 
  48   2.0000     -11.147323      -303.3341 
  49   2.0000     -11.140375      -303.1450 
  50   2.0000     -11.124617      -302.7162 
  51   2.0000     -11.121110      -302.6208 
  52   2.0000      -1.362539       -37.0766 
  53   2.0000      -1.322182       -35.9784 
  54   2.0000      -1.311962       -35.7003 
  55   2.0000      -1.288987       -35.0751 
  56   2.0000      -1.219532       -33.1851 
  57   2.0000      -1.205793       -32.8113 
  58   2.0000      -1.170041       -31.8384 
  59   2.0000      -1.144177       -31.1346 
  60   2.0000      -1.143046       -31.1039 
  61   2.0000      -1.110422       -30.2161 
  62   2.0000      -1.101232       -29.9660 
  63   2.0000      -1.083234       -29.4763 
  64   2.0000      -1.081016       -29.4160 
  65   2.0000      -1.046194       -28.4684 
  66   2.0000      -1.039317       -28.2812 
  67   2.0000      -1.036595       -28.2072 
  68   2.0000      -1.015272       -27.6270 
  69   2.0000      -1.013637       -27.5825 
  70   2.0000      -1.005438       -27.3594 
  71   2.0000      -0.988530       -26.8993 
  72   2.0000      -0.984972       -26.8024 
  73   2.0000      -0.978043       -26.6139 
  74   2.0000      -0.968519       -26.3547 
  75   2.0000      -0.959574       -26.1113 
  76   2.0000      -0.951353       -25.8876 
  77   2.0000      -0.944740       -25.7077 
  78   2.0000      -0.926145       -25.2017 
  79   2.0000      -0.918250       -24.9868 
  80   2.0000      -0.909799       -24.7569 
  81   2.0000      -0.888771       -24.1847 
  82   2.0000      -0.875079       -23.8121 
  83   2.0000      -0.870716       -23.6934 
  84   2.0000      -0.863751       -23.5038 
  85   2.0000      -0.851428       -23.1685 
  86   2.0000      -0.842106       -22.9149 
  87   2.0000      -0.831254       -22.6196 
  88   2.0000      -0.822247       -22.3745 
  89   2.0000      -0.795940       -21.6586 
  90   2.0000      -0.791688       -21.5429 
  91   2.0000      -0.753229       -20.4964 
  92   2.0000      -0.733760       -19.9666 
  93   2.0000      -0.726999       -19.7826 
  94   2.0000      -0.721520       -19.6335 
  95   2.0000      -0.716621       -19.5002 
  96   2.0000      -0.714846       -19.4520 
  97   2.0000      -0.708038       -19.2667 
  98   2.0000      -0.699193       -19.0260 
  99   2.0000      -0.695392       -18.9226 
 100   2.0000      -0.693816       -18.8797 
 101   2.0000      -0.686799       -18.6888 
 102   2.0000      -0.681848       -18.5540 
 103   2.0000      -0.676980       -18.4216 
 104   2.0000      -0.672034       -18.2870 
 105   2.0000      -0.669082       -18.2066 
 106   2.0000      -0.666241       -18.1293 
 107   2.0000      -0.655577       -17.8392 
 108   2.0000      -0.653578       -17.7848 
 109   2.0000      -0.650409       -17.6985 
 110   2.0000      -0.647121       -17.6090 
 111   2.0000      -0.646336       -17.5877 
 112   2.0000      -0.645745       -17.5716 
 113   2.0000      -0.639001       -17.3881 
 114   2.0000      -0.633996       -17.2519 
 115   2.0000      -0.627226       -17.0677 
 116   2.0000      -0.622663       -16.9435 
 117   2.0000      -0.615872       -16.7587 
 118   2.0000      -0.613142       -16.6844 
 119   2.0000      -0.613046       -16.6818 
 120   2.0000      -0.609035       -16.5727 
 121   2.0000      -0.604437       -16.4476 
 122   2.0000      -0.594133       -16.1672 
 123   2.0000      -0.588266       -16.0075 
 124   2.0000      -0.584569       -15.9069 
 125   2.0000      -0.581963       -15.8360 
 126   2.0000      -0.575843       -15.6695 
 127   2.0000      -0.573648       -15.6098 
 128   2.0000      -0.571576       -15.5534 
 129   2.0000      -0.558865       -15.2075 
 130   2.0000      -0.555385       -15.1128 
 131   2.0000      -0.547851       -14.9078 
 132   2.0000      -0.545229       -14.8364 
 133   2.0000      -0.538567       -14.6552 
 134   2.0000      -0.534740       -14.5510 
 135   2.0000      -0.531469       -14.4620 
 136   2.0000      -0.520454       -14.1623 
 137   2.0000      -0.518159       -14.0998 
 138   2.0000      -0.513952       -13.9853 
 139   2.0000      -0.512653       -13.9500 
 140   2.0000      -0.509512       -13.8645 
 141   2.0000      -0.508268       -13.8307 
 142   2.0000      -0.502110       -13.6631 
 143   2.0000      -0.500264       -13.6129 
 144   2.0000      -0.495675       -13.4880 
 145   2.0000      -0.494028       -13.4432 
 146   2.0000      -0.493462       -13.4278 
 147   2.0000      -0.482981       -13.1426 
 148   2.0000      -0.480864       -13.0850 
 149   2.0000      -0.463973       -12.6253 
 150   2.0000      -0.462972       -12.5981 
 151   2.0000      -0.456660       -12.4264 
 152   2.0000      -0.449855       -12.2412 
 153   2.0000      -0.442003       -12.0275 
 154   2.0000      -0.438405       -11.9296 
 155   2.0000      -0.436878       -11.8880 
 156   2.0000      -0.426103       -11.5948 
 157   2.0000      -0.419188       -11.4067 
 158   2.0000      -0.402371       -10.9491 
 159   2.0000      -0.388392       -10.5687 
 160   2.0000      -0.383757       -10.4426 
 161   2.0000      -0.372225       -10.1288 
 162   2.0000      -0.359365        -9.7788 
 163   2.0000      -0.357154        -9.7186 
 164   2.0000      -0.348922        -9.4946 
 165   2.0000      -0.339237        -9.2311 
 166   2.0000      -0.337463        -9.1828 
 167   2.0000      -0.330717        -8.9993 
 168   2.0000      -0.317854        -8.6492 
 169   2.0000      -0.299324        -8.1450 
 170   2.0000      -0.298457        -8.1214 
 171   2.0000      -0.284901        -7.7525 
 172   2.0000      -0.281596        -7.6626 
 173   2.0000      -0.262064        -7.1311 
 174   2.0000      -0.236052        -6.4233 
 175   2.0000      -0.184861        -5.0303 
 176   2.0000      -0.174666        -4.7529 
 177   2.0000      -0.062260        -1.6942 
 178   2.0000      -0.051677        -1.4062 
 179   0.0000       0.033936         0.9234 
 180   0.0000       0.062127         1.6906 
 181   0.0000       0.090721         2.4687 
 182   0.0000       0.096938         2.6378 
 183   0.0000       0.107124         2.9150 
 184   0.0000       0.137155         3.7322 
 185   0.0000       0.140410         3.8208 
 186   0.0000       0.145758         3.9663 
 187   0.0000       0.162268         4.4155 
 188   0.0000       0.164330         4.4716 
 189   0.0000       0.166058         4.5187 
 190   0.0000       0.170731         4.6458 
 191   0.0000       0.179760         4.8915 
 192   0.0000       0.183214         4.9855 
 193   0.0000       0.185068         5.0359 
 194   0.0000       0.203311         5.5324 
 195   0.0000       0.208703         5.6791 
 196   0.0000       0.210424         5.7259 
 197   0.0000       0.214860         5.8466 
 198   0.0000       0.216220         5.8836 
 199   0.0000       0.225742         6.1428 
 200   0.0000       0.228900         6.2287 
 201   0.0000       0.233409         6.3514 
 202   0.0000       0.238663         6.4944 
 203   0.0000       0.243366         6.6223 
 204   0.0000       0.245883         6.6908 
 205   0.0000       0.253628         6.9016 
 206   0.0000       0.255592         6.9550 
 207   0.0000       0.258069         7.0224 
 208   0.0000       0.260333         7.0840 
 209   0.0000       0.262392         7.1400 
 210   0.0000       0.264258         7.1908 
 211   0.0000       0.265953         7.2369 
 212   0.0000       0.267395         7.2762 
 213   0.0000       0.272433         7.4133 
 214   0.0000       0.276394         7.5211 
 215   0.0000       0.277089         7.5400 
 216   0.0000       0.280134         7.6228 
 217   0.0000       0.284951         7.7539 
 218   0.0000       0.286930         7.8078 
 219   0.0000       0.288049         7.8382 
 220   0.0000       0.292319         7.9544 
 221   0.0000       0.294492         8.0135 
 222   0.0000       0.296549         8.0695 
 223   0.0000       0.297400         8.0927 
 224   0.0000       0.297899         8.1062 
 225   0.0000       0.303010         8.2453 
 226   0.0000       0.304396         8.2830 
 227   0.0000       0.304989         8.2992 
 228   0.0000       0.310785         8.4569 
 229   0.0000       0.314063         8.5461 
 230   0.0000       0.320247         8.7144 
 231   0.0000       0.323596         8.8055 
 232   0.0000       0.324818         8.8387 
 233   0.0000       0.331045         9.0082 
 234   0.0000       0.335457         9.1283 
 235   0.0000       0.349303         9.5050 
 236   0.0000       0.358634         9.7589 
 237   0.0000       0.369470        10.0538 
 238   0.0000       0.393120        10.6973 
 239   0.0000       0.396020        10.7763 
 240   0.0000       0.403872        10.9899 
 241   0.0000       0.408265        11.1095 
 242   0.0000       0.409876        11.1533 
 243   0.0000       0.417530        11.3616 
 244   0.0000       0.424263        11.5448 
 245   0.0000       0.431061        11.7298 
 246   0.0000       0.435040        11.8380 
 247   0.0000       0.439743        11.9660 
 248   0.0000       0.440844        11.9960 
 249   0.0000       0.446123        12.1396 
 250   0.0000       0.448202        12.1962 
 251   0.0000       0.455546        12.3960 
 252   0.0000       0.459663        12.5081 
 253   0.0000       0.466193        12.6858 
 254   0.0000       0.470303        12.7976 
 255   0.0000       0.476935        12.9781 
 256   0.0000       0.477705        12.9990 
 257   0.0000       0.485457        13.2099 
 258   0.0000       0.487945        13.2777 
 259   0.0000       0.494932        13.4678 
 260   0.0000       0.500455        13.6181 
 261   0.0000       0.503587        13.7033 
 262   0.0000       0.505993        13.7688 
 263   0.0000       0.507198        13.8016 
 264   0.0000       0.513280        13.9670 
 265   0.0000       0.517255        14.0752 
 266   0.0000       0.522802        14.2262 
 267   0.0000       0.528131        14.3712 
 268   0.0000       0.528803        14.3895 
 269   0.0000       0.537065        14.6143 
 270   0.0000       0.543399        14.7866 
 271   0.0000       0.545258        14.8372 
 272   0.0000       0.547204        14.8902 
 273   0.0000       0.555422        15.1138 
 274   0.0000       0.560171        15.2430 
 275   0.0000       0.565903        15.3990 
 276   0.0000       0.566743        15.4219 
 277   0.0000       0.568679        15.4745 
 278   0.0000       0.578524        15.7424 
 279   0.0000       0.581495        15.8233 
 280   0.0000       0.588488        16.0136 
 281   0.0000       0.592184        16.1141 
 282   0.0000       0.593072        16.1383 
 283   0.0000       0.597966        16.2715 
 284   0.0000       0.600644        16.3443 
 285   0.0000       0.602080        16.3834 
 286   0.0000       0.607387        16.5278 
 287   0.0000       0.613755        16.7011 
 288   0.0000       0.615953        16.7609 
 289   0.0000       0.619257        16.8508 
 290   0.0000       0.621251        16.9051 
 291   0.0000       0.626119        17.0376 
 292   0.0000       0.630692        17.1620 
 293   0.0000       0.631395        17.1811 
 294   0.0000       0.645291        17.5592 
 295   0.0000       0.648956        17.6590 
 296   0.0000       0.655256        17.8304 
 297   0.0000       0.658619        17.9219 
 298   0.0000       0.665383        18.1060 
 299   0.0000       0.665645        18.1131 
 300   0.0000       0.671293        18.2668 
 301   0.0000       0.671929        18.2841 
 302   0.0000       0.674178        18.3453 
 303   0.0000       0.677083        18.4244 
 304   0.0000       0.682255        18.5651 
 305   0.0000       0.682548        18.5731 
 306   0.0000       0.684062        18.6143 
 307   0.0000       0.687725        18.7140 
 308   0.0000       0.690707        18.7951 
 309   0.0000       0.694255        18.8916 
 310   0.0000       0.701420        19.0866 
 311   0.0000       0.703147        19.1336 
 312   0.0000       0.708541        19.2804 
 313   0.0000       0.710345        19.3295 
 314   0.0000       0.712093        19.3770 
 315   0.0000       0.714525        19.4432 
 316   0.0000       0.715137        19.4599 
 317   0.0000       0.717721        19.5302 
 318   0.0000       0.722032        19.6475 
 319   0.0000       0.723376        19.6841 
 320   0.0000       0.726183        19.7604 
 321   0.0000       0.727550        19.7977 
 322   0.0000       0.729660        19.8550 
 323   0.0000       0.732565        19.9341 
 324   0.0000       0.738320        20.0907 
 325   0.0000       0.740982        20.1631 
 326   0.0000       0.741768        20.1845 
 327   0.0000       0.743280        20.2257 
 328   0.0000       0.751232        20.4421 
 329   0.0000       0.752644        20.4805 
 330   0.0000       0.755753        20.5651 
 331   0.0000       0.757709        20.6183 
 332   0.0000       0.759662        20.6715 
 333   0.0000       0.763610        20.7789 
 334   0.0000       0.764485        20.8027 
 335   0.0000       0.767251        20.8780 
 336   0.0000       0.775055        21.0903 
 337   0.0000       0.779903        21.2222 
 338   0.0000       0.783253        21.3134 
 339   0.0000       0.786341        21.3974 
 340   0.0000       0.789014        21.4702 
 341   0.0000       0.792048        21.5527 
 342   0.0000       0.794736        21.6259 
 343   0.0000       0.798991        21.7416 
 344   0.0000       0.800591        21.7852 
 345   0.0000       0.803018        21.8512 
 346   0.0000       0.809523        22.0282 
 347   0.0000       0.811182        22.0734 
 348   0.0000       0.812727        22.1154 
 349   0.0000       0.814598        22.1663 
 350   0.0000       0.817695        22.2506 
 351   0.0000       0.819254        22.2930 
 352   0.0000       0.822285        22.3755 
 353   0.0000       0.823512        22.4089 
 354   0.0000       0.828091        22.5335 
 355   0.0000       0.828799        22.5528 
 356   0.0000       0.833666        22.6852 
 357   0.0000       0.834151        22.6984 
 358   0.0000       0.838126        22.8066 
 359   0.0000       0.838558        22.8183 
 360   0.0000       0.842557        22.9272 
 361   0.0000       0.843506        22.9530 
 362   0.0000       0.845970        23.0200 
 363   0.0000       0.848611        23.0919 
 364   0.0000       0.850690        23.1484 
 365   0.0000       0.852928        23.2093 
 366   0.0000       0.856291        23.3008 
 367   0.0000       0.859222        23.3806 
 368   0.0000       0.861577        23.4447 
 369   0.0000       0.865414        23.5491 
 370   0.0000       0.866281        23.5727 
 371   0.0000       0.867905        23.6169 
 372   0.0000       0.873580        23.7713 
 373   0.0000       0.874308        23.7911 
 374   0.0000       0.877622        23.8813 
 375   0.0000       0.880872        23.9697 
 376   0.0000       0.882429        24.0121 
 377   0.0000       0.885740        24.1022 
 378   0.0000       0.889209        24.1966 
 379   0.0000       0.891480        24.2584 
 380   0.0000       0.892798        24.2943 
 381   0.0000       0.896589        24.3974 
 382   0.0000       0.899424        24.4746 
 383   0.0000       0.904359        24.6089 
 384   0.0000       0.905566        24.6417 
 385   0.0000       0.906528        24.6679 
 386   0.0000       0.907957        24.7068 
 387   0.0000       0.912806        24.8387 
 388   0.0000       0.915282        24.9061 
 389   0.0000       0.917417        24.9642 
 390   0.0000       0.920032        25.0354 
 391   0.0000       0.923134        25.1198 
 392   0.0000       0.924966        25.1696 
 393   0.0000       0.925675        25.1889 
 394   0.0000       0.930454        25.3190 
 395   0.0000       0.932154        25.3652 
 396   0.0000       0.933793        25.4098 
 397   0.0000       0.934512        25.4294 
 398   0.0000       0.939611        25.5681 
 399   0.0000       0.941010        25.6062 
 400   0.0000       0.945262        25.7219 
 401   0.0000       0.949988        25.8505 
 402   0.0000       0.953501        25.9461 
 403   0.0000       0.955452        25.9992 
 404   0.0000       0.957993        26.0683 
 405   0.0000       0.959852        26.1189 
 406   0.0000       0.960508        26.1368 
 407   0.0000       0.962631        26.1945 
 408   0.0000       0.965800        26.2808 
 409   0.0000       0.966901        26.3107 
 410   0.0000       0.976265        26.5655 
 411   0.0000       0.982288        26.7294 
 412   0.0000       0.985563        26.8185 
 413   0.0000       0.989242        26.9186 
 414   0.0000       0.995070        27.0772 
 415   0.0000       0.995168        27.0799 
 416   0.0000       1.002981        27.2925 
 417   0.0000       1.005898        27.3719 
 418   0.0000       1.009126        27.4597 
 419   0.0000       1.017057        27.6755 
 420   0.0000       1.019374        27.7386 
 421   0.0000       1.026417        27.9302 
 422   0.0000       1.034664        28.1546 
 423   0.0000       1.035628        28.1809 
 424   0.0000       1.041681        28.3456 
 425   0.0000       1.049395        28.5555 
 426   0.0000       1.053967        28.6799 
 427   0.0000       1.061218        28.8772 
 428   0.0000       1.069114        29.0921 
 429   0.0000       1.071904        29.1680 
 430   0.0000       1.081264        29.4227 
 431   0.0000       1.084520        29.5113 
 432   0.0000       1.087327        29.5877 
 433   0.0000       1.089393        29.6439 
 434   0.0000       1.091217        29.6935 
 435   0.0000       1.100811        29.9546 
 436   0.0000       1.106574        30.1114 
 437   0.0000       1.110065        30.2064 
 438   0.0000       1.114495        30.3270 
 439   0.0000       1.115850        30.3638 
 440   0.0000       1.118760        30.4430 
 441   0.0000       1.121776        30.5251 
 442   0.0000       1.126421        30.6515 
 443   0.0000       1.128655        30.7123 
 444   0.0000       1.134008        30.8579 
 445   0.0000       1.136257        30.9191 
 446   0.0000       1.139508        31.0076 
 447   0.0000       1.142332        31.0844 
 448   0.0000       1.145552        31.1720 
 449   0.0000       1.149548        31.2808 
 450   0.0000       1.154760        31.4226 
 451   0.0000       1.157134        31.4872 
 452   0.0000       1.158793        31.5324 
 453   0.0000       1.159342        31.5473 
 454   0.0000       1.163334        31.6559 
 455   0.0000       1.166733        31.7484 
 456   0.0000       1.170127        31.8408 
 457   0.0000       1.176529        32.0150 
 458   0.0000       1.179535        32.0968 
 459   0.0000       1.188482        32.3402 
 460   0.0000       1.189100        32.3571 
 461   0.0000       1.192644        32.4535 
 462   0.0000       1.202884        32.7321 
 463   0.0000       1.205856        32.8130 
 464   0.0000       1.207257        32.8511 
 465   0.0000       1.210095        32.9284 
 466   0.0000       1.210965        32.9520 
 467   0.0000       1.216991        33.1160 
 468   0.0000       1.224098        33.3094 
 469   0.0000       1.226592        33.3773 
 470   0.0000       1.227225        33.3945 
 471   0.0000       1.231746        33.5175 
 472   0.0000       1.237425        33.6720 
 473   0.0000       1.241704        33.7885 
 474   0.0000       1.243015        33.8242 
 475   0.0000       1.244879        33.8749 
 476   0.0000       1.246888        33.9296 
 477   0.0000       1.248153        33.9640 
 478   0.0000       1.255141        34.1541 
 479   0.0000       1.255990        34.1772 
 480   0.0000       1.259897        34.2835 
 481   0.0000       1.262202        34.3463 
 482   0.0000       1.264987        34.4221 
 483   0.0000       1.268749        34.5244 
 484   0.0000       1.274224        34.6734 
 485   0.0000       1.277091        34.7514 
 486   0.0000       1.279932        34.8287 
 487   0.0000       1.285129        34.9701 
 488   0.0000       1.288004        35.0484 
 489   0.0000       1.292408        35.1682 
 490   0.0000       1.296765        35.2868 
 491   0.0000       1.298574        35.3360 
 492   0.0000       1.303465        35.4691 
 493   0.0000       1.309296        35.6277 
 494   0.0000       1.311069        35.6760 
 495   0.0000       1.313352        35.7381 
 496   0.0000       1.315826        35.8054 
 497   0.0000       1.319676        35.9102 
 498   0.0000       1.331191        36.2236 
 499   0.0000       1.331988        36.2452 
[...]
 76 H s       :     0.898426  s :     0.898426
      pz      :     0.021813  p :     0.079340
      px      :     0.042956
      py      :     0.014571
 77 H s       :     0.894075  s :     0.894075
      pz      :     0.047240  p :     0.078465
      px      :     0.015004
      py      :     0.016221
 78 H s       :     0.894487  s :     0.894487
      pz      :     0.025505  p :     0.078381
      px      :     0.020672
      py      :     0.032204
 79 H s       :     0.907525  s :     0.907525
      pz      :     0.022462  p :     0.087130
      px      :     0.021872
      py      :     0.042795
 80 H s       :     0.877692  s :     0.877692
      pz      :     0.038318  p :     0.083396
      px      :     0.029584
      py      :     0.015494
 81 H s       :     0.888058  s :     0.888058
      pz      :     0.037624  p :     0.083443
      px      :     0.016077
      py      :     0.029741
 82 H s       :     0.914492  s :     0.914492
      pz      :     0.022400  p :     0.087069
      px      :     0.031017
      py      :     0.033652
 83 H s       :     0.872096  s :     0.872096
      pz      :     0.039208  p :     0.083761
      px      :     0.015241
      py      :     0.029312
 84 H s       :     0.888098  s :     0.888098
      pz      :     0.035816  p :     0.084224
      px      :     0.031778
      py      :     0.016630
 85 H s       :     0.895201  s :     0.895201
      pz      :     0.022510  p :     0.079642
      px      :     0.014128
      py      :     0.043004
 86 H s       :     0.890593  s :     0.890593
      pz      :     0.024711  p :     0.078895
      px      :     0.033005
      py      :     0.021180
 87 H s       :     0.890817  s :     0.890817
      pz      :     0.047865  p :     0.078633
      px      :     0.015644
      py      :     0.015124
 88 H s       :     0.917504  s :     0.917504
      pz      :     0.022481  p :     0.086871
      px      :     0.042075
      py      :     0.022314
 89 H s       :     0.874097  s :     0.874097
      pz      :     0.037852  p :     0.084021
      px      :     0.030500
      py      :     0.015668


                      *****************************
                      * MAYER POPULATION ANALYSIS *
                      *****************************

  NA   - Mulliken gross atomic population
  ZA   - Total nuclear charge
  QA   - Mulliken gross atomic charge
  VA   - Mayer's total valence
  BVA  - Mayer's bonded valence
  FA   - Mayer's free valence

  ATOM       NA         ZA         QA         VA         BVA        FA
  0 C      5.7762     6.0000     0.2238     3.8121     3.8121     0.0000
  1 N      7.4236     7.0000    -0.4236     3.4397     3.4397    -0.0000
  2 C      6.0675     6.0000    -0.0675     3.9181     3.9181    -0.0000
  3 N      7.3422     7.0000    -0.3422     3.4284     3.4284    -0.0000
  4 C      6.0820     6.0000    -0.0820     3.9713     3.9713    -0.0000
  5 N      7.5645     7.0000    -0.5645     3.0729     3.0729    -0.0000
  6 C      6.0325     6.0000    -0.0325     3.9736     3.9736    -0.0000
  7 N      7.3372     7.0000    -0.3372     3.4443     3.4443     0.0000
  8 C      5.7770     6.0000     0.2230     3.8103     3.8103    -0.0000
  9 N      7.5650     7.0000    -0.5650     3.0901     3.0901    -0.0000
 10 C      5.8924     6.0000     0.1076     3.8719     3.8719     0.0000
 11 N      7.4386     7.0000    -0.4386     3.3793     3.3793    -0.0000
 12 C      6.0596     6.0000    -0.0596     3.9118     3.9118    -0.0000
 13 N      7.4479     7.0000    -0.4479     3.3353     3.3353     0.0000
 14 C      5.7768     6.0000     0.2232     3.8071     3.8071     0.0000
 15 N      7.4410     7.0000    -0.4410     3.3677     3.3677    -0.0000
 16 C      5.7496     6.0000     0.2504     3.8022     3.8022    -0.0000
 17 C      6.0345     6.0000    -0.0345     3.9716     3.9716     0.0000
 18 C      6.1784     6.0000    -0.1784     3.6973     3.6973     0.0000
 19 C      5.7738     6.0000     0.2262     3.8978     3.8978    -0.0000
 20 C      5.8048     6.0000     0.1952     3.8219     3.8219     0.0000
 21 C      6.0668     6.0000    -0.0668     3.8954     3.8954    -0.0000
 22 C      6.0878     6.0000    -0.0878     3.9850     3.9850    -0.0000
 23 C      6.0619     6.0000    -0.0619     3.9882     3.9882     0.0000
 24 C      5.7844     6.0000     0.2156     3.8279     3.8279    -0.0000
 25 C      5.8857     6.0000     0.1143     3.8917     3.8917     0.0000
 26 C      6.0697     6.0000    -0.0697     3.9056     3.9056    -0.0000
 27 C      5.7597     6.0000     0.2403     3.8988     3.8988    -0.0000
 28 C      6.0429     6.0000    -0.0429     3.9894     3.9894    -0.0000
 29 C      6.1937     6.0000    -0.1937     3.7285     3.7285    -0.0000
 30 C      5.7748     6.0000     0.2252     3.7833     3.7833    -0.0000
 31 C      5.8057     6.0000     0.1943     3.8322     3.8322    -0.0000
 32 C      6.0651     6.0000    -0.0651     3.9141     3.9141    -0.0000
 33 C      6.0970     6.0000    -0.0970     3.9857     3.9857    -0.0000
 34 C      6.0501     6.0000    -0.0501     3.9976     3.9976     0.0000
 35 C      5.8147     6.0000     0.1853     3.8289     3.8289    -0.0000
 36 C      5.8809     6.0000     0.1191     3.9053     3.9053     0.0000
 37 C      6.0692     6.0000    -0.0692     3.9154     3.9154     0.0000
 38 C      5.7574     6.0000     0.2426     3.7964     3.7964    -0.0000
 39 C      6.0645     6.0000    -0.0645     3.9970     3.9970    -0.0000
 40 C      6.1996     6.0000    -0.1996     3.7499     3.7499    -0.0000
 41 C      5.7831     6.0000     0.2169     3.8759     3.8759    -0.0000
 42 C      5.7899     6.0000     0.2101     3.8308     3.8308    -0.0000
 43 C      6.0762     6.0000    -0.0762     3.9050     3.9050     0.0000
 44 C      6.0900     6.0000    -0.0900     3.9843     3.9843    -0.0000
 45 C      6.0425     6.0000    -0.0425     3.9946     3.9946    -0.0000
 46 C      5.8092     6.0000     0.1908     3.8217     3.8217     0.0000
 47 C      5.8838     6.0000     0.1162     3.8956     3.8956     0.0000
 48 C      6.0808     6.0000    -0.0808     3.8988     3.8988    -0.0000
 49 C      5.7871     6.0000     0.2129     3.8700     3.8700    -0.0000
 50 C      6.0626     6.0000    -0.0626     3.9899     3.9899     0.0000
 51 C      6.1897     6.0000    -0.1897     3.7393     3.7393    -0.0000
 52 H      0.9270     1.0000     0.0730     0.9834     0.9834     0.0000
 53 H      1.0098     1.0000    -0.0098     1.0013     1.0013    -0.0000
 54 H      0.9416     1.0000     0.0584     1.0066     1.0066    -0.0000
 55 H      0.9288     1.0000     0.0712     0.9840     0.9840    -0.0000
 56 H      0.9240     1.0000     0.0760     0.9727     0.9727    -0.0000
 57 H      0.9305     1.0000     0.0695     0.9841     0.9841    -0.0000
 58 H      0.9315     1.0000     0.0685     0.9869     0.9869     0.0000
 59 H      1.0250     1.0000    -0.0250     0.9969     0.9969    -0.0000
 60 H      0.9404     1.0000     0.0596     1.0052     1.0052     0.0000
 61 H      0.8243     1.0000     0.1757     1.0434     1.0434    -0.0000
 62 H      0.8306     1.0000     0.1694     1.0433     1.0433     0.0000
 63 H      0.9453     1.0000     0.0547     0.9860     0.9860    -0.0000
 64 H      1.0307     1.0000    -0.0307     0.9932     0.9932    -0.0000
 65 H      0.9570     1.0000     0.0430     1.0083     1.0083     0.0000
 66 H      0.9436     1.0000     0.0564     0.9847     0.9847     0.0000
 67 H      0.9397     1.0000     0.0603     0.9717     0.9717    -0.0000
 68 H      0.9430     1.0000     0.0570     0.9865     0.9865    -0.0000
 69 H      0.9406     1.0000     0.0594     0.9831     0.9831    -0.0000
 70 H      1.0175     1.0000    -0.0175     0.9968     0.9968    -0.0000
 71 H      0.9521     1.0000     0.0479     1.0073     1.0073    -0.0000
 72 H      0.9573     1.0000     0.0427     0.9858     0.9858    -0.0000
 73 H      1.0183     1.0000    -0.0183     0.9968     0.9968    -0.0000
 74 H      0.9658     1.0000     0.0342     1.0094     1.0094     0.0000
 75 H      0.9585     1.0000     0.0415     0.9865     0.9865     0.0000
 76 H      0.9494     1.0000     0.0506     0.9706     0.9706     0.0000
 77 H      0.9506     1.0000     0.0494     0.9845     0.9845     0.0000
 78 H      0.9514     1.0000     0.0486     0.9839     0.9839    -0.0000
 79 H      1.0121     1.0000    -0.0121     1.0012     1.0012     0.0000
 80 H      0.9659     1.0000     0.0341     1.0065     1.0065    -0.0000
 81 H      0.9482     1.0000     0.0518     0.9853     0.9853     0.0000
 82 H      1.0233     1.0000    -0.0233     0.9949     0.9949     0.0000
 83 H      0.9568     1.0000     0.0432     1.0104     1.0104     0.0000
 84 H      0.9491     1.0000     0.0509     0.9861     0.9861     0.0000
 85 H      0.9439     1.0000     0.0561     0.9714     0.9714    -0.0000
 86 H      0.9434     1.0000     0.0566     0.9841     0.9841    -0.0000
 87 H      0.9446     1.0000     0.0554     0.9853     0.9853    -0.0000
 88 H      1.0287     1.0000    -0.0287     0.9920     0.9920     0.0000
 89 H      0.9585     1.0000     0.0415     1.0061     1.0061     0.0000

  Mayer bond orders larger than 0.100000
B(  0-C ,  1-N ) :   1.1703 B(  0-C , 17-C ) :   1.5614 B(  0-C , 52-H ) :   0.9678 
B(  1-N ,  8-C ) :   1.1656 B(  1-N , 10-C ) :   0.9393 B(  2-C , 12-C ) :   1.5636 
B(  2-C , 16-C ) :   1.2903 B(  2-C , 53-H ) :   0.9789 B(  3-N , 14-C ) :   1.1828 
B(  3-N , 16-C ) :   1.2011 B(  3-N , 61-H ) :   0.8964 B(  4-C ,  6-C ) :   1.3260 
B(  4-C , 17-C ) :   1.3266 B(  4-C , 18-C ) :   1.1193 B(  5-N , 19-C ) :   1.3798 
B(  5-N , 27-C ) :   1.4371 B(  6-C ,  8-C ) :   1.5627 B(  6-C , 54-H ) :   0.9709 
B(  7-N , 30-C ) :   1.1866 B(  7-N , 38-C ) :   1.2115 B(  7-N , 62-H ) :   0.9003 
B(  8-C , 55-H ) :   0.9689 B(  9-N , 41-C ) :   1.4256 B(  9-N , 49-C ) :   1.4014 
B( 10-C , 56-H ) :   0.9764 B( 10-C , 57-H ) :   0.9814 B( 10-C , 58-H ) :   0.9821 
B( 11-N , 20-C ) :   1.1080 B( 11-N , 24-C ) :   1.1338 B( 11-N , 25-C ) :   0.9598 
B( 12-C , 14-C ) :   1.2913 B( 12-C , 59-H ) :   0.9777 B( 13-N , 31-C ) :   1.0948 
B( 13-N , 35-C ) :   1.0850 B( 13-N , 36-C ) :   0.9754 B( 14-C , 18-C ) :   1.2437 
B( 15-N , 42-C ) :   1.1241 B( 15-N , 46-C ) :   1.0993 B( 15-N , 47-C ) :   0.9644 
B( 16-C , 51-C ) :   1.2311 B( 17-C , 60-H ) :   0.9713 B( 18-C , 19-C ) :   1.2809 
B( 19-C , 21-C ) :   1.1809 B( 20-C , 28-C ) :   1.6246 B( 20-C , 63-H ) :   0.9706 
B( 21-C , 26-C ) :   1.6666 B( 21-C , 64-H ) :   0.9731 B( 22-C , 23-C ) :   1.2660 
B( 22-C , 28-C ) :   1.2805 B( 22-C , 29-C ) :   1.2464 B( 23-C , 24-C ) :   1.6272 
B( 23-C , 65-H ) :   0.9718 B( 24-C , 66-H ) :   0.9690 B( 25-C , 67-H ) :   0.9763 
B( 25-C , 68-H ) :   0.9832 B( 25-C , 69-H ) :   0.9819 B( 26-C , 27-C ) :   1.1856 
B( 26-C , 70-H ) :   0.9748 B( 27-C , 29-C ) :   1.2348 B( 28-C , 71-H ) :   0.9710 
B( 29-C , 30-C ) :   1.1893 B( 30-C , 32-C ) :   1.3370 B( 31-C , 39-C ) :   1.6676 
B( 31-C , 72-H ) :   0.9706 B( 32-C , 37-C ) :   1.5219 B( 32-C , 73-H ) :   0.9773 
B( 33-C , 34-C ) :   1.2461 B( 33-C , 39-C ) :   1.2382 B( 33-C , 40-C ) :   1.3218 
B( 34-C , 35-C ) :   1.6655 B( 34-C , 74-H ) :   0.9708 B( 35-C , 75-H ) :   0.9706 
B( 36-C , 76-H ) :   0.9757 B( 36-C , 77-H ) :   0.9824 B( 36-C , 78-H ) :   0.9836 
B( 37-C , 38-C ) :   1.3339 B( 37-C , 79-H ) :   0.9788 B( 38-C , 40-C ) :   1.1889 
B( 39-C , 80-H ) :   0.9720 B( 40-C , 41-C ) :   1.1836 B( 41-C , 43-C ) :   1.2441 
B( 42-C , 50-C ) :   1.6378 B( 42-C , 81-H ) :   0.9696 B( 43-C , 48-C ) :   1.6070 
B( 43-C , 82-H ) :   0.9750 B( 44-C , 45-C ) :   1.2785 B( 44-C , 50-C ) :   1.2564 
B( 44-C , 51-C ) :   1.2501 B( 45-C , 46-C ) :   1.6315 B( 45-C , 83-H ) :   0.9705 
B( 46-C , 84-H ) :   0.9706 B( 47-C , 85-H ) :   0.9761 B( 47-C , 86-H ) :   0.9826 
B( 47-C , 87-H ) :   0.9828 B( 48-C , 49-C ) :   1.2398 B( 48-C , 88-H ) :   0.9729 
B( 49-C , 51-C ) :   1.1979 B( 50-C , 89-H ) :   0.9719 

-------
TIMINGS
-------

Total SCF time: 0 days 0 hours 49 min 51 sec 

Total time                  ....    2991.669 sec
Sum of individual times     ....    2988.532 sec  ( 99.9%)

Fock matrix formation       ....    2969.479 sec  ( 99.3%)
Diagonalization             ....       4.814 sec  (  0.2%)
Density matrix formation    ....       0.545 sec  (  0.0%)
Population analysis         ....       0.319 sec  (  0.0%)
Initial guess               ....       2.375 sec  (  0.1%)
Orbital Transformation      ....       0.000 sec  (  0.0%)
Orbital Orthonormalization  ....       0.000 sec  (  0.0%)
DIIS solution               ....       2.537 sec  (  0.1%)
SOSCF solution              ....       7.131 sec  (  0.2%)

Maximum memory used throughout the entire SCF-calculation: 304.2 MB


           ************************************************************
           *        Program running with 8 parallel MPI-processes     *
           *              working on a common directory               *
           ************************************************************

------------------------------------------------------------------------------
                                ORCA  MP2 
------------------------------------------------------------------------------

Freezing NCore=104 chemical core electrons

----------
MP2 ENERGY (disk based algorithm)
----------

Dimension of the basis                    ...  918
Memory devoted to MP2                     ... 7000 MB   
Data format for buffers                   ... DOUBLE
Compression type for matrix containers    ... UNCOMPRESSED

-------------------------------
PARTIAL EXCHANGE TRANSFORMATION
-------------------------------

Transformation type                        ... one-operator
Generation of integrals (i,mue|j,nue)      ... ON
Generation of integrals (mue,kappa|nue,tau)... OFF
Generation of integrals (i,mue|a,nue)      ... OFF
Dimension of the basis                     ...  918
Number of internal MOs                     ...  127 (  52- 178)
Pair cutoff                                ... 2.500e-12 Eh
Number of AO pairs in the trafo            ... 421821
Total Number of distinct AO pairs          ... 421821
Memory devoted for trafo                   ... 7000.0 MB 
Max. Number of MO pairs treated together   ... 1088      
Number Format for Storage                  ... Double (8 Byte)
Integral package used                      ... LIBINT

Starting integral evaluation:
    ... done with AO integral generation
Closing buffer AOK     (37.92 GB; CompressionRatio= 1.34)
Collecting buffer AOK 
Number of MO pairs included in the trafo   ... 8128
------------------------
SORTING OF (i,mue|j,nue)
------------------------

IBATCH = 1 of  1
Closing buffer KAO     (51.03 GB; CompressionRatio= 1.00)
Collecting buffer KAO 
N(AO-Batches) Done                         ... 173938877 
N(AO-Batches) Skipped                      ... 166690906 
N(IJ)-pairs Skipped                        ...         0 
TOTAL TIME for half transformation         ...  1800.114 sec
AO-integral generation                     ...   263.586 sec
Half transformation                        ...   501.295 sec
K-integral sorting                         ...   757.995 sec

Finished integral transformation - now doing MP2 part

OPERATOR COMBINATION   0   0: ij=( 52..178, 52..178)
Process 5:   Internal MO 132
Process 2:   Internal MO  84
Process 0:   Internal MO  54
Process 0:   Internal MO  57
Process 1:   Internal MO  69
Process 0:   Internal MO  60
Process 4:   Internal MO 117
Process 0:   Internal MO  63
Process 1:   Internal MO  72
Process 3:   Internal MO 102
Process 2:   Internal MO  87
Process 0:   Internal MO  66
Process 7:   Internal MO 165
Process 1:   Internal MO  75
Process 6:   Internal MO 150
Process 1:   Internal MO  78
Process 2:   Internal MO  90
Process 5:   Internal MO 135
Process 3:   Internal MO 105
Process 4:   Internal MO 120
Process 1:   Internal MO  81
Process 2:   Internal MO  93
Process 3:   Internal MO 108
Process 7:   Internal MO 168
Process 2:   Internal MO  96
Process 5:   Internal MO 138
Process 4:   Internal MO 123
Process 6:   Internal MO 153
Process 3:   Internal MO 111
Process 2:   Internal MO  99
Process 4:   Internal MO 126
Process 5:   Internal MO 141
Process 3:   Internal MO 114
Process 7:   Internal MO 171
Process 6:   Internal MO 156
Process 4:   Internal MO 129
Process 5:   Internal MO 144
Process 7:   Internal MO 174
Process 6:   Internal MO 159
Process 5:   Internal MO 147
Process 6:   Internal MO 162
Process 7:   Internal MO 177
-----------------------------------------------
 MP2 CORRELATION ENERGY   :     -7.278123266 Eh
-----------------------------------------------


-------
TIMINGS
-------
Total time                : 1951.113 sec
Integral trafo            : 1819.582 sec ( 93.3%)
K(i,j)                    :    7.927 sec (  0.4%)
T(i,j)                    :    0.095 sec (  0.0%)

---------------------------------------
MP2 TOTAL ENERGY:    -2130.892512432 Eh
---------------------------------------

Maximum memory used throughout the entire MP2-calculation: 6735.7 MB

-------------------------   --------------------
FINAL SINGLE POINT ENERGY     -2130.892512432172
-------------------------   --------------------


                            ***************************************
                            *     ORCA property calculations      *
                            ***************************************


  WARNING: The energy has been calculated at the MP2 level but the densities
           used in the property calculations are still SCF densities
           MP2 response densities have not been calculated 
           use %mp2 Density relaxed end
           or  %mp2 Density unrelaxed end

                                    ---------------------
                                    Active property flags
                                    ---------------------
   (+) Dipole Moment


------------------------------------------------------------------------------
                       ORCA ELECTRIC PROPERTIES CALCULATION
------------------------------------------------------------------------------

Dipole Moment Calculation                       ... on
Quadrupole Moment Calculation                   ... off
Polarizability Calculation                      ... off
GBWName                                         ... /scratch/chu_02/allen/tmpyp4_amber_gaff2/conf1/conf1/Conf284.orca.gbw
Electron density                                ... /scratch/chu_02/allen/tmpyp4_amber_gaff2/conf1/conf1/Conf284.orca.scfp
The origin for moment calculation is the CENTER OF MASS  = (-0.000205, -0.004184 -0.001325)

-------------
DIPOLE MOMENT
-------------
                                X             Y             Z
Electronic contribution:     -3.18663       3.14545      -0.05921
Nuclear contribution   :      0.04326       0.21670       0.07943
                        -----------------------------------------
Total Dipole Moment    :     -3.14337       3.36215       0.02021
                        -----------------------------------------
Magnitude (a.u.)       :      4.60274
Magnitude (Debye)      :     11.69924



--------------------
Rotational spectrum 
--------------------
 
Rotational constants in cm-1:     0.001499     0.001472     0.000763 
Rotational constants in MHz :    44.925454    44.129169    22.864390 

 Dipole components along the rotational axes: 
x,y,z [a.u.] :    -4.165253    -1.958421     0.022162 
x,y,z [Debye]:   -10.587232    -4.977910     0.056332 

 

Timings for individual modules:

Sum of individual times         ...     4952.596 sec (=  82.543 min)
GTO integral calculation        ...        5.573 sec (=   0.093 min)   0.1 %
SCF iterations                  ...     2994.525 sec (=  49.909 min)  60.5 %
MP2 module                      ...     1952.497 sec (=  32.542 min)  39.4 %
                             ****ORCA TERMINATED NORMALLY****
TOTAL RUN TIME: 0 days 1 hours 22 minutes 39 seconds 73 msec
# of primitive gaussian functions

