
                                 *****************
                                 * O   R   C   A *
                                 *****************

                                            #,                                       
                                            ###                                      
                                            ####                                     
                                            #####                                    
                                            ######                                   
                                           ########,                                 
                                     ,,################,,,,,                         
                               ,,#################################,,                 
                          ,,##########################################,,             
                       ,#########################################, ''#####,          
                    ,#############################################,,   '####,        
                  ,##################################################,,,,####,       
                ,###########''''           ''''###############################       
              ,#####''   ,,,,##########,,,,          '''####'''          '####       
            ,##' ,,,,###########################,,,                        '##       
           ' ,,###''''                  '''############,,,                           
         ,,##''                                '''############,,,,        ,,,,,,###''
      ,#''                                            '''#######################'''  
     '                                                          ''''####''''         
             ,#######,   #######,   ,#######,      ##                                
            ,#'     '#,  ##    ##  ,#'     '#,    #''#        ######   ,####,        
            ##       ##  ##   ,#'  ##            #'  '#       #        #'  '#        
            ##       ##  #######   ##           ,######,      #####,   #    #        
            '#,     ,#'  ##    ##  '#,     ,#' ,#      #,         ##   #,  ,#        
             '#######'   ##     ##  '#######'  #'      '#     #####' # '####'        



                  #######################################################
                  #                        -***-                        #
                  #          Department of theory and spectroscopy      #
                  #    Directorship and core code : Frank Neese         #
                  #        Max Planck Institute fuer Kohlenforschung    #
                  #                Kaiser Wilhelm Platz 1               #
                  #                 D-45470 Muelheim/Ruhr               #
                  #                      Germany                        #
                  #                                                     #
                  #                  All rights reserved                #
                  #                        -***-                        #
                  #######################################################


                         Program Version 5.0.4 -  RELEASE  -


 With contributions from (in alphabetic order):
   Daniel Aravena         : Magnetic Suceptibility
   Michael Atanasov       : Ab Initio Ligand Field Theory (pilot matlab implementation)
   Alexander A. Auer      : GIAO ZORA, VPT2 properties, NMR spectrum
   Ute Becker             : Parallelization
   Giovanni Bistoni       : ED, misc. LED, open-shell LED, HFLD
   Martin Brehm           : Molecular dynamics
   Dmytro Bykov           : SCF Hessian
   Vijay G. Chilkuri      : MRCI spin determinant printing, contributions to CSF-ICE
   Dipayan Datta          : RHF DLPNO-CCSD density
   Achintya Kumar Dutta   : EOM-CC, STEOM-CC
   Dmitry Ganyushin       : Spin-Orbit,Spin-Spin,Magnetic field MRCI
   Miquel Garcia          : C-PCM and meta-GGA Hessian, CC/C-PCM, Gaussian charge scheme
   Yang Guo               : DLPNO-NEVPT2, F12-NEVPT2, CIM, IAO-localization
   Andreas Hansen         : Spin unrestricted coupled pair/coupled cluster methods
   Benjamin Helmich-Paris : MC-RPA, TRAH-SCF, COSX integrals
   Lee Huntington         : MR-EOM, pCC
   Robert Izsak           : Overlap fitted RIJCOSX, COSX-SCS-MP3, EOM
   Marcus Kettner         : VPT2
   Christian Kollmar      : KDIIS, OOCD, Brueckner-CCSD(T), CCSD density, CASPT2, CASPT2-K
   Simone Kossmann        : Meta GGA functionals, TD-DFT gradient, OOMP2, MP2 Hessian
   Martin Krupicka        : Initial AUTO-CI
   Lucas Lang             : DCDCAS
   Marvin Lechner         : AUTO-CI (C++ implementation), FIC-MRCC
   Dagmar Lenk            : GEPOL surface, SMD
   Dimitrios Liakos       : Extrapolation schemes; Compound Job, initial MDCI parallelization
   Dimitrios Manganas     : Further ROCIS development; embedding schemes
   Dimitrios Pantazis     : SARC Basis sets
   Anastasios Papadopoulos: AUTO-CI, single reference methods and gradients
   Taras Petrenko         : DFT Hessian,TD-DFT gradient, ASA, ECA, R-Raman, ABS, FL, XAS/XES, NRVS
   Peter Pinski           : DLPNO-MP2, DLPNO-MP2 Gradient
   Christoph Reimann      : Effective Core Potentials
   Marius Retegan         : Local ZFS, SOC
   Christoph Riplinger    : Optimizer, TS searches, QM/MM, DLPNO-CCSD(T), (RO)-DLPNO pert. Triples
   Tobias Risthaus        : Range-separated hybrids, TD-DFT gradient, RPA, STAB
   Michael Roemelt        : Original ROCIS implementation
   Masaaki Saitow         : Open-shell DLPNO-CCSD energy and density
   Barbara Sandhoefer     : DKH picture change effects
   Avijit Sen             : IP-ROCIS
   Kantharuban Sivalingam : CASSCF convergence, NEVPT2, FIC-MRCI
   Bernardo de Souza      : ESD, SOC TD-DFT
   Georgi Stoychev        : AutoAux, RI-MP2 NMR, DLPNO-MP2 response
   Willem Van den Heuvel  : Paramagnetic NMR
   Boris Wezisla          : Elementary symmetry handling
   Frank Wennmohs         : Technical directorship


 We gratefully acknowledge several colleagues who have allowed us to
 interface, adapt or use parts of their codes:
   Stefan Grimme, W. Hujo, H. Kruse, P. Pracht,  : VdW corrections, initial TS optimization,
                  C. Bannwarth, S. Ehlert          DFT functionals, gCP, sTDA/sTD-DF
   Ed Valeev, F. Pavosevic, A. Kumar             : LibInt (2-el integral package), F12 methods
   Garnet Chan, S. Sharma, J. Yang, R. Olivares  : DMRG
   Ulf Ekstrom                                   : XCFun DFT Library
   Mihaly Kallay                                 : mrcc  (arbitrary order and MRCC methods)
   Jiri Pittner, Ondrej Demel                    : Mk-CCSD
   Frank Weinhold                                : gennbo (NPA and NBO analysis)
   Christopher J. Cramer and Donald G. Truhlar   : smd solvation model
   Lars Goerigk                                  : TD-DFT with DH, B97 family of functionals
   V. Asgeirsson, H. Jonsson                     : NEB implementation
   FAccTs GmbH                                   : IRC, NEB, NEB-TS, DLPNO-Multilevel, CI-OPT
                                                   MM, QMMM, 2- and 3-layer-ONIOM, Crystal-QMMM,
                                                   LR-CPCM, SF, NACMEs, symmetry and pop. for TD-DFT,
                                                   nearIR, NL-DFT gradient (VV10), updates on ESD,
                                                   ML-optimized integration grids
   S Lehtola, MJT Oliveira, MAL Marques          : LibXC Library
   Liviu Ungur et al                             : ANISO software


 Your calculation uses the libint2 library for the computation of 2-el integrals
 For citations please refer to: http://libint.valeyev.net

 Your ORCA version has been built with support for libXC version: 5.1.0
 For citations please refer to: https://tddft.org/programs/libxc/

 This ORCA versions uses:
   CBLAS   interface :  Fast vector & matrix operations
   LAPACKE interface :  Fast linear algebra routines
   SCALAPACK package :  Parallel linear algebra routines
   Shared memory     :  Shared parallel matrices
   BLAS/LAPACK       :  OpenBLAS 0.3.15  USE64BITINT DYNAMIC_ARCH NO_AFFINITY Sandybridge SINGLE_THREADED
        Core in use  :  Sandybridge
   Copyright (c) 2011-2014, The OpenBLAS Project


================================================================================

----- Orbital basis set information -----
Your calculation utilizes the basis: cc-pVDZ 
       H, B-Ne : Obtained from the ccRepo (grant-hill.group.shef.ac.uk/ccrepo) Feb. 2017
                 T. H. Dunning, Jr., J. Chem. Phys. 90, 1007 (1989)
            He : Obtained from the ccRepo (grant-hill.group.shef.ac.uk/ccrepo) Feb. 2017
                 D. E. Woon, T. H. Dunning, Jr., J. Chem. Phys. 100, 2975 (1994)
  Li-Be, Na-Mg : Obtained from the ccRepo (grant-hill.group.shef.ac.uk/ccrepo) Feb. 2017
                 B. P. Prascher, D. E. Woon, K. A. Peterson, T. H. Dunning, Jr., A. K. Wilson, Theor. Chem. Acc. 128, 69 (2011)
         Al-Ar : Obtained from the ccRepo (grant-hill.group.shef.ac.uk/ccrepo) Feb. 2017
                 D. E. Woon, T. H. Dunning, Jr., J. Chem. Phys. 98, 1358 (1993)
            Ca : Obtained from the Peterson Research Group Website (tyr0.chem.wsu.edu/~kipeters) Feb. 2017
                 J. Koput, K. A. Peterson, J. Phys. Chem. 106, 9595 (2002)
         Sc-Zn : Obtained from the ccRepo (grant-hill.group.shef.ac.uk/ccrepo) Feb. 2017
                 N. B. Balabanov, K. A. Peterson, J. Chem. Phys. 123, 064107 (2005)
                 N. B. Balabanov, K. A. Peterson, J. Chem. Phys. 125, 074110 (2006)
         Ga-Kr : Obtained from the ccRepo (grant-hill.group.shef.ac.uk/ccrepo) Feb. 2017
                 A. K. Wilson, D. E. Woon, K. A. Peterson, T. H. Dunning, Jr., J. Chem. Phys. 110, 7667 (1999)

================================================================================
                                        WARNINGS
                       Please study these warnings very carefully!
================================================================================


WARNING: No MP2 level density has been requested!
         To caclulate MP2 level properties use
         %mp2 Density relaxed end
         or
         %mp2 Density unrelaxed end

WARNING: Post HF methods need fully converged wavefunctions
  ===> : Setting SCFConvForced true
         You can overwrite this default with %scf ConvForced false 


INFO   : the flag for use of the SHARK integral package has been found!

================================================================================
                                       INPUT FILE
================================================================================
NAME = /scratch/allen/tmpyp4_amber_gaff2/2.Mdgx/conf11/conf11/Conf51.orca
|  1> ! PAL2
|  2> ! mp2 cc-pvdz TightSCF  NoKeepInts
|  3> 
|  4> %scf
|  5>   MaxCore 2000
|  6> end
|  7> %mp2
|  8>   MaxCore 2000
|  9> end
| 10> * xyz 0 1
| 11>    C       -3.36200         6.28800        -0.78300
| 12>    C        1.47400         4.04100         0.05700
| 13>    C       -2.80200         4.09300         0.04900
| 14>    C       -3.85300         4.23000         0.96900
| 15>    C       -4.61900         5.37800         0.98200
| 16>    C       -5.23000         7.59000         0.13100
| 17>    C        0.13200         4.30700         0.06100
| 18>    C       -0.56900         3.05600         0.04700
| 19>    C        1.64900         2.61800         0.02300
| 20>    C       -2.57200         5.15600        -0.83800
| 21>    N       -4.36700         6.38800         0.11700
| 22>    N        0.38800         2.06700         0.02500
| 23>    N       -2.01000         0.39500        -0.07500
| 24>    N       -0.38800        -2.07400        -0.02700
| 25>    N        2.01000        -0.40100         0.06500
| 26>    C       -1.96000         2.86100         0.02400
| 27>    C       -2.62300         1.61500        -0.01800
| 28>    C       -5.57300        -4.32900         1.06600
| 29>    C       -4.07300         1.47100         0.05600
| 30>    C       -4.10600        -2.75600        -0.02600
| 31>    C       -4.99500        -2.75700        -1.11100
| 32>    C       -6.13200        -3.54200        -1.07600
| 33>    C       -7.65100        -5.11300         0.04000
| 34>    C       -4.32400         0.14100         0.03700
| 35>    C       -3.02500        -0.52000        -0.04800
| 36>    C       -4.42200        -3.56600         1.07500
| 37>    N       -6.40700        -4.31300         0.00100
| 38>    C       -2.86700        -1.92200        -0.04000
| 39>    C       -1.65000        -2.62400        -0.02700
| 40>    C        3.56800        -6.14200        -1.04000
| 41>    C       -1.47600        -4.04900        -0.03400
| 42>    C        2.80300        -4.09900        -0.00800
| 43>    C        3.65700        -4.38400         1.06900
| 44>    C        4.42700        -5.53000         1.05900
| 45>    C        5.24500        -7.58800         0.01400
| 46>    C       -0.13400        -4.31500        -0.02200
| 47>    C        0.56800        -3.06400        -0.02700
| 48>    C        2.77500        -5.01200        -1.07400
| 49>    N        4.37600        -6.39100         0.01700
| 50>    C        1.95900        -2.86900        -0.00900
| 51>    C        2.62100        -1.62200         0.00900
| 52>    C        5.54300         4.33900        -1.13000
| 53>    C        4.07000        -1.47900        -0.09400
| 54>    C        4.10400         2.75100        -0.02100
| 55>    C        5.02700         2.72900         1.03600
| 56>    C        6.16600         3.50900         0.97800
| 57>    C        7.61900         5.15300        -0.11500
| 58>    C        4.32100        -0.14800        -0.09200
| 59>    C        3.02500         0.51400         0.01500
| 60>    C        4.38700         3.58200        -1.11500
| 61>    C        2.86600         1.91600         0.01300
| 62>    N        6.41300         4.29600        -0.09500
| 63>    H       -3.21300         7.13700        -1.43800
| 64>    H        2.27400         4.76600         0.08100
| 65>    H       -4.08600         3.44000         1.67300
| 66>    H       -5.44400         5.52500         1.66600
| 67>    H       -6.10300         7.40800        -0.49900
| 68>    H       -5.54100         7.78700         1.15600
| 69>    H       -4.66000         8.43500        -0.25500
| 70>    H       -0.33200         5.28200         0.06900
| 71>    H       -1.76700         5.11700        -1.56200
| 72>    H        0.18200         1.07200         0.00500
| 73>    H       -0.18300        -1.08000        -0.02100
| 74>    H       -5.86400        -4.96200         1.89500
| 75>    H       -4.79400         2.27200         0.13900
| 76>    H       -4.80000        -2.16000        -1.99400
| 77>    H       -6.84100        -3.58200        -1.89300
| 78>    H       -8.42800        -4.53600         0.54600
| 79>    H       -7.95600        -5.33700        -0.98100
| 80>    H       -7.45600        -6.03700         0.58400
| 81>    H       -5.28700        -0.34400         0.10000
| 82>    H       -3.78000        -3.60100         1.94700
| 83>    H        3.58700        -6.86800        -1.84300
| 84>    H       -2.27600        -4.77400        -0.05000
| 85>    H        3.71400        -3.72400         1.92600
| 86>    H        5.09200        -5.79500         1.87100
| 87>    H        6.20500        -7.32900        -0.43900
| 88>    H        5.39300        -7.91700         1.04200
| 89>    H        4.75900        -8.37300        -0.56400
| 90>    H        0.32900        -5.29000        -0.00800
| 91>    H        2.14600        -4.84200        -1.94000
| 92>    H        5.80800         4.98600        -1.95600
| 93>    H        4.78800        -2.28100        -0.18500
| 94>    H        4.86000         2.11400         1.91200
| 95>    H        6.90100         3.53100         1.77200
| 96>    H        7.38300         6.10900         0.35600
| 97>    H        8.41400         4.65200         0.43500
| 98>    H        7.92100         5.31000        -1.15000
| 99>    H        5.28300         0.33600        -0.17900
|100>    H        3.72000         3.63200        -1.96700
|101> *
|102> 
|103>                          ****END OF INPUT****
================================================================================

                       ****************************
                       * Single Point Calculation *
                       ****************************

---------------------------------
CARTESIAN COORDINATES (ANGSTROEM)
---------------------------------
  C     -3.362000    6.288000   -0.783000
  C      1.474000    4.041000    0.057000
  C     -2.802000    4.093000    0.049000
  C     -3.853000    4.230000    0.969000
  C     -4.619000    5.378000    0.982000
  C     -5.230000    7.590000    0.131000
  C      0.132000    4.307000    0.061000
  C     -0.569000    3.056000    0.047000
  C      1.649000    2.618000    0.023000
  C     -2.572000    5.156000   -0.838000
  N     -4.367000    6.388000    0.117000
  N      0.388000    2.067000    0.025000
  N     -2.010000    0.395000   -0.075000
  N     -0.388000   -2.074000   -0.027000
  N      2.010000   -0.401000    0.065000
  C     -1.960000    2.861000    0.024000
  C     -2.623000    1.615000   -0.018000
  C     -5.573000   -4.329000    1.066000
  C     -4.073000    1.471000    0.056000
  C     -4.106000   -2.756000   -0.026000
  C     -4.995000   -2.757000   -1.111000
  C     -6.132000   -3.542000   -1.076000
  C     -7.651000   -5.113000    0.040000
  C     -4.324000    0.141000    0.037000
  C     -3.025000   -0.520000   -0.048000
  C     -4.422000   -3.566000    1.075000
  N     -6.407000   -4.313000    0.001000
  C     -2.867000   -1.922000   -0.040000
  C     -1.650000   -2.624000   -0.027000
  C      3.568000   -6.142000   -1.040000
  C     -1.476000   -4.049000   -0.034000
  C      2.803000   -4.099000   -0.008000
  C      3.657000   -4.384000    1.069000
  C      4.427000   -5.530000    1.059000
  C      5.245000   -7.588000    0.014000
  C     -0.134000   -4.315000   -0.022000
  C      0.568000   -3.064000   -0.027000
  C      2.775000   -5.012000   -1.074000
  N      4.376000   -6.391000    0.017000
  C      1.959000   -2.869000   -0.009000
  C      2.621000   -1.622000    0.009000
  C      5.543000    4.339000   -1.130000
  C      4.070000   -1.479000   -0.094000
  C      4.104000    2.751000   -0.021000
  C      5.027000    2.729000    1.036000
  C      6.166000    3.509000    0.978000
  C      7.619000    5.153000   -0.115000
  C      4.321000   -0.148000   -0.092000
  C      3.025000    0.514000    0.015000
  C      4.387000    3.582000   -1.115000
  C      2.866000    1.916000    0.013000
  N      6.413000    4.296000   -0.095000
  H     -3.213000    7.137000   -1.438000
  H      2.274000    4.766000    0.081000
  H     -4.086000    3.440000    1.673000
  H     -5.444000    5.525000    1.666000
  H     -6.103000    7.408000   -0.499000
  H     -5.541000    7.787000    1.156000
  H     -4.660000    8.435000   -0.255000
  H     -0.332000    5.282000    0.069000
  H     -1.767000    5.117000   -1.562000
  H      0.182000    1.072000    0.005000
  H     -0.183000   -1.080000   -0.021000
  H     -5.864000   -4.962000    1.895000
  H     -4.794000    2.272000    0.139000
  H     -4.800000   -2.160000   -1.994000
  H     -6.841000   -3.582000   -1.893000
  H     -8.428000   -4.536000    0.546000
  H     -7.956000   -5.337000   -0.981000
  H     -7.456000   -6.037000    0.584000
  H     -5.287000   -0.344000    0.100000
  H     -3.780000   -3.601000    1.947000
  H      3.587000   -6.868000   -1.843000
  H     -2.276000   -4.774000   -0.050000
  H      3.714000   -3.724000    1.926000
  H      5.092000   -5.795000    1.871000
  H      6.205000   -7.329000   -0.439000
  H      5.393000   -7.917000    1.042000
  H      4.759000   -8.373000   -0.564000
  H      0.329000   -5.290000   -0.008000
  H      2.146000   -4.842000   -1.940000
  H      5.808000    4.986000   -1.956000
  H      4.788000   -2.281000   -0.185000
  H      4.860000    2.114000    1.912000
  H      6.901000    3.531000    1.772000
  H      7.383000    6.109000    0.356000
  H      8.414000    4.652000    0.435000
  H      7.921000    5.310000   -1.150000
  H      5.283000    0.336000   -0.179000
  H      3.720000    3.632000   -1.967000

----------------------------
CARTESIAN COORDINATES (A.U.)
----------------------------
  NO LB      ZA    FRAG     MASS         X           Y           Z
   0 C     6.0000    0    12.011   -6.353259   11.882598   -1.479656
   1 C     6.0000    0    12.011    2.785456    7.636383    0.107714
   2 C     6.0000    0    12.011   -5.295013    7.734649    0.092597
   3 C     6.0000    0    12.011   -7.281115    7.993542    1.831145
   4 C     6.0000    0    12.011   -8.728645   10.162947    1.855711
   5 C     6.0000    0    12.011   -9.883268   14.343021    0.247554
   6 C     6.0000    0    12.011    0.249444    8.139050    0.115273
   7 C     6.0000    0    12.011   -1.075254    5.775003    0.088817
   8 C     6.0000    0    12.011    3.116158    4.947303    0.043464
   9 C     6.0000    0    12.011   -4.860376    9.743428   -1.583591
  10 N     7.0000    0    14.007   -8.252434   12.071571    0.221098
  11 N     7.0000    0    14.007    0.733214    3.906064    0.047243
  12 N     7.0000    0    14.007   -3.798350    0.746442   -0.141729
  13 N     7.0000    0    14.007   -0.733214   -3.919292   -0.051023
  14 N     7.0000    0    14.007    3.798350   -0.757780    0.122832
  15 C     6.0000    0    12.011   -3.703863    5.406506    0.045353
  16 C     6.0000    0    12.011   -4.956752    3.051908   -0.034015
  17 C     6.0000    0    12.011  -10.531444   -8.180624    2.014448
  18 C     6.0000    0    12.011   -7.696855    2.779787    0.105825
  19 C     6.0000    0    12.011   -7.759216   -5.208085   -0.049133
  20 C     6.0000    0    12.011   -9.439182   -5.209975   -2.099486
  21 C     6.0000    0    12.011  -11.587801   -6.693410   -2.033345
  22 C     6.0000    0    12.011  -14.458295   -9.662170    0.075589
  23 C     6.0000    0    12.011   -8.171176    0.266451    0.069920
  24 C     6.0000    0    12.011   -5.716422   -0.982658   -0.090707
  25 C     6.0000    0    12.011   -8.356369   -6.738763    2.031456
  26 N     7.0000    0    14.007  -12.107475   -8.150389    0.001890
  27 C     6.0000    0    12.011   -5.417845   -3.632054   -0.075589
  28 C     6.0000    0    12.011   -3.118048   -4.958641   -0.051023
  29 C     6.0000    0    12.011    6.742543  -11.606698   -1.965315
  30 C     6.0000    0    12.011   -2.789236   -7.651501   -0.064251
  31 C     6.0000    0    12.011    5.296902   -7.745987   -0.015118
  32 C     6.0000    0    12.011    6.910728   -8.284559    2.020117
  33 C     6.0000    0    12.011    8.365818  -10.450186    2.001220
  34 C     6.0000    0    12.011    9.911614  -14.339242    0.026456
  35 C     6.0000    0    12.011   -0.253223   -8.154168   -0.041574
  36 C     6.0000    0    12.011    1.073364   -5.790121   -0.051023
  37 C     6.0000    0    12.011    5.243990   -9.471307   -2.029566
  38 N     7.0000    0    14.007    8.269442  -12.077240    0.032125
  39 C     6.0000    0    12.011    3.701973   -5.421624   -0.017008
  40 C     6.0000    0    12.011    4.952972   -3.065136    0.017008
  41 C     6.0000    0    12.011   10.474752    8.199522   -2.135391
  42 C     6.0000    0    12.011    7.691185   -2.794905   -0.177634
  43 C     6.0000    0    12.011    7.755436    5.198637   -0.039684
  44 C     6.0000    0    12.011    9.499653    5.157063    1.957756
  45 C     6.0000    0    12.011   11.652051    6.631049    1.848152
  46 C     6.0000    0    12.011   14.397823    9.737759   -0.217319
  47 C     6.0000    0    12.011    8.165507   -0.279679   -0.173855
  48 C     6.0000    0    12.011    5.716422    0.971319    0.028346
  49 C     6.0000    0    12.011    8.290229    6.768999   -2.107045
  50 C     6.0000    0    12.011    5.415955    3.620715    0.024566
  51 N     7.0000    0    14.007   12.118814    8.118263   -0.179524
  52 H     1.0000    0     1.008   -6.071690   13.486975   -2.717426
  53 H     1.0000    0     1.008    4.297237    9.006435    0.153068
  54 H     1.0000    0     1.008   -7.721421    6.500658    3.161512
  55 H     1.0000    0     1.008  -10.287669   10.440737    3.148284
  56 H     1.0000    0     1.008  -11.532999   13.999091   -0.942973
  57 H     1.0000    0     1.008  -10.470973   14.715297    2.184523
  58 H     1.0000    0     1.008   -8.806124   15.939840   -0.481880
  59 H     1.0000    0     1.008   -0.627389    9.981533    0.130391
  60 H     1.0000    0     1.008   -3.339146    9.669729   -2.951752
  61 H     1.0000    0     1.008    0.343930    2.025786    0.009449
  62 H     1.0000    0     1.008   -0.345820   -2.040904   -0.039684
  63 H     1.0000    0     1.008  -11.081354   -9.376821    3.581031
  64 H     1.0000    0     1.008   -9.059347    4.293458    0.262672
  65 H     1.0000    0     1.008   -9.070685   -4.081808   -3.768114
  66 H     1.0000    0     1.008  -12.927616   -6.768999   -3.577252
  67 H     1.0000    0     1.008  -15.926612   -8.571798    1.031790
  68 H     1.0000    0     1.008  -15.034661  -10.085468   -1.853821
  69 H     1.0000    0     1.008  -14.089798  -11.408277    1.103600
  70 H     1.0000    0     1.008   -9.990982   -0.650066    0.188973
  71 H     1.0000    0     1.008   -7.143165   -6.804904    3.679297
  72 H     1.0000    0     1.008    6.778448  -12.978639   -3.482765
  73 H     1.0000    0     1.008   -4.301017   -9.021553   -0.094486
  74 H     1.0000    0     1.008    7.018443   -7.037340    3.639613
  75 H     1.0000    0     1.008    9.622485  -10.950963    3.535678
  76 H     1.0000    0     1.008   11.725751  -13.849803   -0.829590
  77 H     1.0000    0     1.008   10.191293  -14.960962    1.969095
  78 H     1.0000    0     1.008    8.993207  -15.822677   -1.065806
  79 H     1.0000    0     1.008    0.621720   -9.996651   -0.015118
  80 H     1.0000    0     1.008    4.055352   -9.150054   -3.666069
  81 H     1.0000    0     1.008   10.975529    9.422175   -3.696304
  82 H     1.0000    0     1.008    9.048009   -4.310465   -0.349599
  83 H     1.0000    0     1.008    9.184069    3.994881    3.613156
  84 H     1.0000    0     1.008   13.041000    6.672623    3.348595
  85 H     1.0000    0     1.008   13.951848   11.544337    0.672743
  86 H     1.0000    0     1.008   15.900156    8.791006    0.822031
  87 H     1.0000    0     1.008   14.968521   10.034446   -2.173185
  88 H     1.0000    0     1.008    9.983423    0.634948   -0.338261
  89 H     1.0000    0     1.008    7.029781    6.863485   -3.717091

--------------------------------
INTERNAL COORDINATES (ANGSTROEM)
--------------------------------
 C      0   0   0     0.000000000000     0.00000000     0.00000000
 C      1   0   0     5.398287228372     0.00000000     0.00000000
 C      1   2   0     2.413265215429    50.19898867     0.00000000
 C      3   1   2     1.403484948263    87.90468156   139.76129103
 C      4   3   1     1.380155426030   120.19789856     0.14023051
 C      5   4   3     2.447542849472   152.50094332     1.60747395
 C      2   1   3     1.368114030335    16.42012796   345.82205408
 C      7   2   1     1.434084376876   108.05010202   145.27435076
 C      2   1   3     1.434123425651   121.24114372    25.94784568
 C      1   2   3     1.381502442995    32.09677528   322.06703055
 N      1   2   3     1.352784166081   126.35429232    53.36772323
 N      9   2   1     1.376127174356   106.58526707   348.18000328
 N     12   9   2     2.925062050624   168.53581413   171.12065651
 N     13  12   9     2.954513327098    91.55032014    11.12112580
 N     14  13  12     2.925371258490    88.43092389   359.84326247
 C      8   7   2     1.404790019896   127.24786865   181.11170171
 C     13  12   9     1.366535034311    81.72106996   188.00453233
 C     14  13  12     5.758810554272    80.56209567   166.76250791
 C     17  13  12     1.459010623676   111.08861209   183.82872609
 C     18  14  13     2.412235892279    27.27532823    36.33507194
 C     20  18  14     1.402692767501    87.95206320   148.94598259
 C     21  20  18     1.382106725257   120.14573887   359.70382047
 C     18  14  13     2.446510985056   144.15733107    82.80075377
 C     19  17  13     1.353610726908   106.29293361   359.75308708
 C     13  12   9     1.366813447402   172.21332906    33.46711076
 C     18  14  13     1.380960173213    15.08449437   309.23336894
 N     22  21  20     1.352773077792   120.73759875     0.27865223
 C     25  13  17     1.410897586645   125.60330303   182.37774668
 C     14  13  12     1.376642291955    80.24689249   177.85461986
 C     14  13  12     5.764089607215   164.51507311   312.20821879
 C     29  14  13     1.435600919476   106.58649366   178.76395472
 C     30  14  13     2.413316804732    27.10625047    82.12560436
 C     32  30  14     1.403734305344    87.90059683   149.76154742
 C     33  32  30     1.380694028378   120.14881443   359.74174632
 C     34  33  32     2.448777858443   152.49203239     2.45173620
 C     31  29  14     1.368160809262   108.16950133     0.70383075
 C     14  13  12     1.376239804685   169.26375223   353.09862627
 C     30  14  13     1.380907310430    14.68948582   353.70041132
 N     34  33  32     1.352658863128   120.85575621     0.19603406
 C     37  14  29     1.404717053360   126.01551127   180.90772073
 C     15  14  13     1.366491126938    81.61824056   183.09049352
 C      2   1   3     4.249062720177   141.74057762   157.81662872
 C     41  15  14     1.459677704153   111.05201287   175.08990246
 C     42   2   1     2.412953791518    41.78584867   195.97013650
 C     44  42   2     1.403446472082    87.95153797   233.97558675
 C     45  44  42     1.381696421071   120.11137308     0.19721020
 C     42   2   1     2.450019795838   135.97209175   106.28498560
 C     43  41  15     1.354461516618   106.26758155     0.30894352
 C     15  14  13     1.367461151185   171.87382904   332.35056460
 C     42   2   1     1.381886391857    32.59078432   244.82541569
 C      9   2   1     1.404988612053   126.98745415   169.18434081
 N     42   2   1     1.352765315936   113.57249190   134.02157479
 H      1   2   3     1.082601958247   107.29406345   197.48383260
 H      2   1   3     1.079907866440   112.80856839   196.44864745
 H      4   3   1     1.083515112954   121.04907000   179.54757837
 H      5   4   3     1.081706984354   122.83968255   179.44347619
 H      6   5   4     1.091857591447   104.45220260   100.08574767
 H      6   5   4     1.089107432717    84.69431119   209.58147045
 H      6   5   4     1.089917886815   133.88876069   322.40094704
 H      7   2   1     1.079807853278   126.66122480   325.51276454
 H     10   1   2     1.083384511612   118.75100006   291.29222190
 H     12   9   2     1.016297692608   125.29023241   180.00180175
 H     14  13  12     1.014936943854    44.97226959   359.42596618
 H     18  14  13     1.082871645210   128.03556573   234.20482432
 H     19  17  13     1.080893611786   126.41830519   178.11313280
 H     21  20  18     1.083569563987   121.05669627   180.67006309
 H     22  21  20     1.082483256222   122.73097286   180.59748951
 H     23  18  14     1.092105306278   103.92715769   234.93429879
 H     23  18  14     1.088871893291   134.19244188    12.25587044
 H     23  18  14     1.089833473518    84.85857450   125.45241208
 H     24  19  17     1.080075460327   127.28078426   178.44613241
 H     26  18  14     1.083408048706   118.76995697   244.94906660
 H     30  14  13     1.082703098730   127.99711412   279.66882698
 H     31  29  14     1.079759695488   125.22293469   180.92530585
 H     33  32  30     1.083188810873   121.01964473   180.74284758
 H     34  33  32     1.082494341787   122.70821597   180.59516895
 H     35  34  33     1.092652735319   105.73575241    97.19771933
 H     35  34  33     1.089462711615    84.05943581   206.43036958
 H     35  34  33     1.089268102902   133.08365142   318.50306270
 H     36  31  29     1.079439669458   126.61599965   178.98859863
 H     38  30  73     1.083742127999   118.77264435   359.90091293
 H     42   2   1     1.082178358682   119.31790784   350.65310525
 H     43  41  15     1.080281907652   126.36969097   182.06329380
 H     45  44  42     1.083277434455   121.10105945   179.58025624
 H     46  45  44     1.082194529648   122.72144639   179.46906377
 H     47  42   2     1.091546151109   106.65128841   315.16475048
 H     47  42   2     1.088818625851   132.46019523    94.52397119
 H     47  42   2     1.089531091801    83.63838232   206.04504406
 H     48  43  41     1.080402239909   127.23657387   181.62955349
 H     50  42   2     1.083186502870   118.77001737    94.71359229

---------------------------
INTERNAL COORDINATES (A.U.)
---------------------------
 C      0   0   0     0.000000000000     0.00000000     0.00000000
 C      1   0   0    10.201284453867     0.00000000     0.00000000
 C      1   2   0     4.560410345679    50.19898867     0.00000000
 C      3   1   2     2.652202185297    87.90468156   139.76129103
 C      4   3   1     2.608115777442   120.19789856     0.14023051
 C      5   4   3     4.625185686539   152.50094332     1.60747395
 C      2   1   3     2.585360837309    16.42012796   345.82205408
 C      7   2   1     2.710026725231   108.05010202   145.27435076
 C      2   1   3     2.710100516721   121.24114372    25.94784568
 C      1   2   3     2.610661270603    32.09677528   322.06703055
 N      1   2   3     2.556391592199   126.35429232    53.36772323
 N      9   2   1     2.600503484979   106.58526707   348.18000328
 N     12   9   2     5.527566200405   168.53581413   171.12065651
 N     13  12   9     5.583221047236    91.55032014    11.12112580
 N     14  13  12     5.528150518591    88.43092389   359.84326247
 C      8   7   2     2.654668413270   127.24786865   181.11170171
 C     13  12   9     2.582376967257    81.72106996   188.00453233
 C     14  13  12    10.882574804710    80.56209567   166.76250791
 C     17  13  12     2.757130505230   111.08861209   183.82872609
 C     18  14  13     4.558465206823    27.27532823    36.33507194
 C     20  18  14     2.650705180609    87.95206320   148.94598259
 C     21  20  18     2.611803198586   120.14573887   359.70382047
 C     18  14  13     4.623235745386   144.15733107    82.80075377
 C     19  17  13     2.557953565794   106.29293361   359.75308708
 C     13  12   9     2.582903091751   172.21332906    33.46711076
 C     18  14  13     2.609636529225    15.08449437   309.23336894
 N     22  21  20     2.556370638369   120.73759875     0.27865223
 C     25  13  17     2.666210041769   125.60330303   182.37774668
 C     14  13  12     2.601476916169    80.24689249   177.85461986
 C     14  13  12    10.892550769017   164.51507311   312.20821879
 C     29  14  13     2.712892575415   106.58649366   178.76395472
 C     30  14  13     4.560507835333    27.10625047    82.12560436
 C     32  30  14     2.652673401891    87.90059683   149.76154742
 C     33  32  30     2.609133588376   120.14881443   359.74174632
 C     34  33  32     4.627519515267   152.49203239     2.45173620
 C     31  29  14     2.585449236669   108.16950133     0.70383075
 C     14  13  12     2.600716325456   169.26375223   353.09862627
 C     30  14  13     2.609536633043    14.68948582   353.70041132
 N     34  33  32     2.556154803934   120.85575621     0.19603406
 C     37  14  29     2.654530526499   126.01551127   180.90772073
 C     15  14  13     2.582293994346    81.61824056   183.09049352
 C      2   1   3     8.029564866989   141.74057762   157.81662872
 C     41  15  14     2.758391104639   111.05201287   175.08990246
 C     42   2   1     4.559821839776    41.78584867   195.97013650
 C     44  42   2     2.652129475853    87.95153797   233.97558675
 C     45  44  42     2.611027836043   120.11137308     0.19721020
 C     42   2   1     4.629866436820   135.97209175   106.28498560
 C     43  41  15     2.559561325344   106.26758155     0.30894352
 C     15  14  13     2.584127074516   171.87382904   332.35056460
 C     42   2   1     2.611386828803    32.59078432   244.82541569
 C      9   2   1     2.655043698059   126.98745415   169.18434081
 N     42   2   1     2.556355970587   113.57249190   134.02157479
 H      1   2   3     2.045821213133   107.29406345   197.48383260
 H      2   1   3     2.040730117440   112.80856839   196.44864745
 H      4   3   1     2.047546825448   121.04907000   179.54757837
 H      5   4   3     2.044129957579   122.83968255   179.44347619
 H      6   5   4     2.063311825077   104.45220260   100.08574767
 H      6   5   4     2.058114778254    84.69431119   209.58147045
 H      6   5   4     2.059646314543   133.88876069   322.40094704
 H      7   2   1     2.040541119952   126.66122480   325.51276454
 H     10   1   2     2.047300024678   118.75100006   291.29222190
 H     12   9   2     1.920524309565   125.29023241   180.00180175
 H     14  13  12     1.917952867083    44.97226959   359.42596618
 H     18  14  13     2.046330847636   128.03556573   234.20482432
 H     19  17  13     2.042592906181   126.41830519   178.11313280
 H     21  20  18     2.047649722989   121.05669627   180.67006309
 H     22  21  20     2.045596898814   122.73097286   180.59748951
 H     23  18  14     2.063779938267   103.92715769   234.93429879
 H     23  18  14     2.057669673245   134.19244188    12.25587044
 H     23  18  14     2.059486796529    84.85857450   125.45241208
 H     24  19  17     2.041046823986   127.28078426   178.44613241
 H     26  18  14     2.047344503340   118.76995697   244.94906660
 H     30  14  13     2.046012340948   127.99711412   279.66882698
 H     31  29  14     2.040450114918   125.22293469   180.92530585
 H     33  32  30     2.046930203877   121.01964473   180.74284758
 H     34  33  32     2.045617847496   122.70821597   180.59516895
 H     35  34  33     2.064814429233   105.73575241    97.19771933
 H     35  34  33     2.058786158072    84.05943581   206.43036958
 H     35  34  33     2.058418400901   133.08365142   318.50306270
 H     36  31  29     2.039845353366   126.61599965   178.98859863
 H     38  30  73     2.047975821711   118.77264435   359.90091293
 H     42   2   1     2.045020725966   119.31790784   350.65310525
 H     43  41  15     2.041436952892   126.36969097   182.06329380
 H     45  44  42     2.047097678177   121.10105945   179.58025624
 H     46  45  44     2.045051284662   122.72144639   179.46906377
 H     47  42   2     2.062723288131   106.65128841   315.16475048
 H     47  42   2     2.057569012371   132.46019523    94.52397119
 H     47  42   2     2.058915377895    83.63838232   206.04504406
 H     48  43  41     2.041664347903   127.23657387   181.62955349
 H     50  42   2     2.046925842384   118.77001737    94.71359229

---------------------
BASIS SET INFORMATION
---------------------
There are 3 groups of distinct atoms

 Group   1 Type C   : 17s4p1d contracted to 3s2p1d pattern {881/31/1}
 Group   2 Type N   : 17s4p1d contracted to 3s2p1d pattern {881/31/1}
 Group   3 Type H   : 4s1p contracted to 2s1p pattern {31/1}

Atom   0C    basis set group =>   1
Atom   1N    basis set group =>   2
Atom   2C    basis set group =>   1
Atom   3N    basis set group =>   2
Atom   4C    basis set group =>   1
Atom   5N    basis set group =>   2
Atom   6C    basis set group =>   1
Atom   7N    basis set group =>   2
Atom   8C    basis set group =>   1
Atom   9N    basis set group =>   2
Atom  10C    basis set group =>   1
Atom  11N    basis set group =>   2
Atom  12C    basis set group =>   1
Atom  13N    basis set group =>   2
Atom  14C    basis set group =>   1
Atom  15N    basis set group =>   2
Atom  16C    basis set group =>   1
Atom  17C    basis set group =>   1
Atom  18C    basis set group =>   1
Atom  19C    basis set group =>   1
Atom  20C    basis set group =>   1
Atom  21C    basis set group =>   1
Atom  22C    basis set group =>   1
Atom  23C    basis set group =>   1
Atom  24C    basis set group =>   1
Atom  25C    basis set group =>   1
Atom  26C    basis set group =>   1
Atom  27C    basis set group =>   1
Atom  28C    basis set group =>   1
Atom  29C    basis set group =>   1
Atom  30C    basis set group =>   1
Atom  31C    basis set group =>   1
Atom  32C    basis set group =>   1
Atom  33C    basis set group =>   1
Atom  34C    basis set group =>   1
Atom  35C    basis set group =>   1
Atom  36C    basis set group =>   1
Atom  37C    basis set group =>   1
Atom  38C    basis set group =>   1
Atom  39C    basis set group =>   1
Atom  40C    basis set group =>   1
Atom  41C    basis set group =>   1
Atom  42C    basis set group =>   1
Atom  43C    basis set group =>   1
Atom  44C    basis set group =>   1
Atom  45C    basis set group =>   1
Atom  46C    basis set group =>   1
Atom  47C    basis set group =>   1
Atom  48C    basis set group =>   1
Atom  49C    basis set group =>   1
Atom  50C    basis set group =>   1
Atom  51C    basis set group =>   1
Atom  52H    basis set group =>   3
Atom  53H    basis set group =>   3
Atom  54H    basis set group =>   3
Atom  55H    basis set group =>   3
Atom  56H    basis set group =>   3
Atom  57H    basis set group =>   3
Atom  58H    basis set group =>   3
Atom  59H    basis set group =>   3
Atom  60H    basis set group =>   3
Atom  61H    basis set group =>   3
Atom  62H    basis set group =>   3
Atom  63H    basis set group =>   3
Atom  64H    basis set group =>   3
Atom  65H    basis set group =>   3
Atom  66H    basis set group =>   3
Atom  67H    basis set group =>   3
Atom  68H    basis set group =>   3
Atom  69H    basis set group =>   3
Atom  70H    basis set group =>   3
Atom  71H    basis set group =>   3
Atom  72H    basis set group =>   3
Atom  73H    basis set group =>   3
Atom  74H    basis set group =>   3
Atom  75H    basis set group =>   3
Atom  76H    basis set group =>   3
Atom  77H    basis set group =>   3
Atom  78H    basis set group =>   3
Atom  79H    basis set group =>   3
Atom  80H    basis set group =>   3
Atom  81H    basis set group =>   3
Atom  82H    basis set group =>   3
Atom  83H    basis set group =>   3
Atom  84H    basis set group =>   3
Atom  85H    basis set group =>   3
Atom  86H    basis set group =>   3
Atom  87H    basis set group =>   3
Atom  88H    basis set group =>   3
Atom  89H    basis set group =>   3


           ************************************************************
           *        Program running with 16 parallel MPI-processes    *
           *              working on a common directory               *
           ************************************************************
------------------------------------------------------------------------------
                           ORCA GTO INTEGRAL CALCULATION
------------------------------------------------------------------------------
------------------------------------------------------------------------------
                   ___                                                        
                  /   \      - P O W E R E D   B Y -                         
                 /     \                                                     
                 |  |  |   _    _      __       _____    __    __             
                 |  |  |  | |  | |    /  \     |  _  \  |  |  /  |          
                  \  \/   | |  | |   /    \    | | | |  |  | /  /          
                 / \  \   | |__| |  /  /\  \   | |_| |  |  |/  /          
                |  |  |   |  __  | /  /__\  \  |    /   |      \           
                |  |  |   | |  | | |   __   |  |    \   |  |\   \          
                \     /   | |  | | |  |  |  |  | |\  \  |  | \   \       
                 \___/    |_|  |_| |__|  |__|  |_| \__\ |__|  \__/        
                                                                              
                      - O R C A' S   B I G   F R I E N D -                    
                                      &                                       
                       - I N T E G R A L  F E E D E R -                       
                                                                              
 v1 FN, 2020, v2 2021                                                         
------------------------------------------------------------------------------


Reading SHARK input file /scratch/allen/tmpyp4_amber_gaff2/conf1/conf1/Conf51.orca.SHARKINP.tmp ... ok
----------------------
SHARK INTEGRAL PACKAGE
----------------------

Number of atoms                             ...     90
Number of basis functions                   ...   1230
Number of shells                            ...    738
Maximum angular momentum                    ...      2
Integral batch strategy                     ... SHARK/LIBINT Hybrid
RI-J (if used) integral strategy            ... SPLIT-RIJ (Revised 2003 algorithm where possible)
Printlevel                                  ...      1
Contraction scheme used                     ... PARTIAL GENERAL contraction
Coulomb Range Separation                    ... NOT USED
Exchange Range Separation                   ... NOT USED
Finite Nucleus Model                        ... NOT USED
Auxiliary Coulomb fitting basis             ... NOT available
Auxiliary J/K fitting basis                 ... NOT available
Auxiliary Correlation fitting basis         ... NOT available
Auxiliary 'external' fitting basis          ... NOT available
Integral threshold                          ...     2.500000e-11
Primitive cut-off                           ...     2.500000e-12
Primitive pair pre-selection threshold      ...     2.500000e-12

Calculating pre-screening integrals         ... done (  0.1 sec) Dimension = 738
Calculating pre-screening integrals (ORCA)  ... done (  0.3 sec) Dimension = 426
Organizing shell pair data                  ... done (  0.8 sec)
Shell pair information
Total number of shell pairs                 ...    272691
Shell pairs after pre-screening             ...     71627
Total number of primitive shell pairs       ...    422091
Primitive shell pairs kept                  ...     92411
          la=0 lb=0:  29424 shell pairs
          la=1 lb=0:  25977 shell pairs
          la=1 lb=1:   4706 shell pairs
          la=2 lb=0:   7866 shell pairs
          la=2 lb=1:   3124 shell pairs
          la=2 lb=2:    530 shell pairs

Calculating one electron integrals          ... done (  0.3 sec)
Calculating Nuclear repulsion               ... done (  0.0 sec) ENN=   6227.052650123396 Eh

SHARK setup successfully completed in   2.2 seconds

Maximum memory used throughout the entire GTOINT-calculation: 99.0 MB


           ************************************************************
           *        Program running with 16 parallel MPI-processes    *
           *              working on a common directory               *
           ************************************************************
-------------------------------------------------------------------------------
                                 ORCA SCF
-------------------------------------------------------------------------------

------------
SCF SETTINGS
------------
Hamiltonian:
 Ab initio Hamiltonian  Method          .... Hartree-Fock(GTOs)


General Settings:
 Integral files         IntName         .... /scratch/allen/tmpyp4_amber_gaff2/conf1/conf1/Conf51.orca
 Hartree-Fock type      HFTyp           .... RHF
 Total Charge           Charge          ....    0
 Multiplicity           Mult            ....    1
 Number of Electrons    NEL             ....  358
 Basis Dimension        Dim             ....  918
 Nuclear Repulsion      ENuc            ....   6227.0526501234 Eh

Convergence Acceleration:
 DIIS                   CNVDIIS         .... on
   Start iteration      DIISMaxIt       ....    12
   Startup error        DIISStart       ....  0.200000
   # of expansion vecs  DIISMaxEq       ....     5
   Bias factor          DIISBfac        ....   1.050
   Max. coefficient     DIISMaxC        ....  10.000
 Trust-Rad. Augm. Hess. CNVTRAH         .... auto
   Auto Start mean grad. ratio tolernc. ....  1.125000
   Auto Start start iteration           ....    20
   Auto Start num. interpolation iter.  ....    10
   Max. Number of Micro iterations      ....    16
   Max. Number of Macro iterations      .... Maxiter - #DIIS iter
   Number of Davidson start vectors     ....     2
   Converg. threshold I  (grad. norm)   ....   1.000e-05
   Converg. threshold II (energy diff.) ....   1.000e-08
   Grad. Scal. Fac. for Micro threshold ....   0.100
   Minimum threshold for Micro iter.    ....   0.010
   NR start threshold (gradient norm)   ....   0.001
   Initial trust radius                 ....   0.400
   Minimum AH scaling param. (alpha)    ....   1.000
   Maximum AH scaling param. (alpha)    .... 1000.000
   Orbital update algorithm             .... Taylor
   White noise on init. David. guess    .... on
   Maximum white noise                  ....   0.010
   Quad. conv. algorithm                .... NR
 SOSCF                  CNVSOSCF        .... on
   Start iteration      SOSCFMaxIt      ....   150
   Startup grad/error   SOSCFStart      ....  0.003300
 Level Shifting         CNVShift        .... on
   Level shift para.    LevelShift      ....    0.2500
   Turn off err/grad.   ShiftErr        ....    0.0010
 Zerner damping         CNVZerner       .... off
 Static damping         CNVDamp         .... on
   Fraction old density DampFac         ....    0.7000
   Max. Damping (<1)    DampMax         ....    0.9800
   Min. Damping (>=0)   DampMin         ....    0.0000
   Turn off err/grad.   DampErr         ....    0.1000
 Fernandez-Rico         CNVRico         .... off

SCF Procedure:
 Maximum # iterations   MaxIter         ....   125
 SCF integral mode      SCFMode         .... Direct
   Integral package                     .... SHARK and LIBINT hybrid scheme
 Reset frequency        DirectResetFreq ....    20
 Integral Threshold     Thresh          ....  2.500e-11 Eh
 Primitive CutOff       TCut            ....  2.500e-12 Eh

Convergence Tolerance:
 Convergence Check Mode ConvCheckMode   .... Total+1el-Energy
 Convergence forced     ConvForced      .... 1
 Energy Change          TolE            ....  1.000e-08 Eh
 1-El. energy change                    ....  1.000e-05 Eh
 Orbital Gradient       TolG            ....  1.000e-05
 Orbital Rotation angle TolX            ....  1.000e-05
 DIIS Error             TolErr          ....  5.000e-07


Diagonalization of the overlap matrix:
Smallest eigenvalue                        ... 2.240e-04
Time for diagonalization                   ...    0.396 sec
Threshold for overlap eigenvalues          ... 1.000e-08
Number of eigenvalues below threshold      ... 0
Time for construction of square roots      ...    0.252 sec
Total time needed                          ...    0.654 sec

Time for model grid setup =    1.049 sec

------------------------------
INITIAL GUESS: MODEL POTENTIAL
------------------------------
Loading Hartree-Fock densities                     ... done
Calculating cut-offs                               ... done
Initializing the effective Hamiltonian             ... done
Setting up the integral package (SHARK)            ... done
Starting the Coulomb interaction                   ... done (   1.2 sec)
Reading the grid                                   ... done
Mapping shells                                     ... done
Starting the XC term evaluation                    ... done (   0.2 sec)
Transforming the Hamiltonian                       ... done (   0.2 sec)
Diagonalizing the Hamiltonian                      ... done (   0.3 sec)
Back transforming the eigenvectors                 ... done (   0.1 sec)
Now organizing SCF variables                       ... done
                      ------------------
                      INITIAL GUESS DONE (   3.1 sec)
                      ------------------
--------------
SCF ITERATIONS
--------------
ITER       Energy         Delta-E        Max-DP      RMS-DP      [F,P]     Damp
               ***  Starting incremental Fock matrix formation  ***
  0  -2121.6803498887   0.000000000000 0.06888363  0.00121138  0.2328121 0.7000
  1  -2122.3429902735  -0.662640384822 0.05223700  0.00098413  0.1440785 0.7000
                               ***Turning on DIIS***
  2  -2122.7545273958  -0.411537122338 0.11595010  0.00223013  0.0802378 0.0000
  3  -2117.7812027277   4.973324668095 0.03054387  0.00068190  0.0441829 0.0000
  4  -2123.4175868891  -5.636384161407 0.00932101  0.00022835  0.0070698 0.0000
  5  -2123.5925259203  -0.174939031127 0.00521431  0.00013492  0.0049391 0.0000
  6  -2123.5758283768   0.016697543493 0.00343360  0.00008720  0.0019682 0.0000
  7  -2123.6794389886  -0.103610611835 0.00289423  0.00006865  0.0015164 0.0000
  8  -2123.6958751335  -0.016436144841 0.00291656  0.00006434  0.0014136 0.0000
  9  -2123.6613095000   0.034565633478 0.00233609  0.00004386  0.0011193 0.0000
 10  -2123.6742647254  -0.012955225402 0.00476669  0.00008675  0.0008558 0.0000
                      *** Initiating the SOSCF procedure ***
                           *** Shutting down DIIS ***
                      *** Re-Reading the Fockian *** 
                      *** Removing any level shift *** 
ITER      Energy       Delta-E        Grad      Rot      Max-DP    RMS-DP
 11  -2123.55926153   0.1150031966  0.000288  0.000288  0.000275  0.000006
               *** Restarting incremental Fock matrix formation ***
 12  -2123.62444013  -0.0651785999  0.000928  0.006274  0.001139  0.000028
 13  -2123.62451112  -0.0000709892  0.001014  0.027088  0.004865  0.000099
 14  -2123.62461124  -0.0001001262  0.000442  0.002034  0.000545  0.000011
 15  -2123.62462446  -0.0000132120  0.000167  0.002751  0.000858  0.000014
 16  -2123.62463161  -0.0000071493  0.000127  0.003987  0.000729  0.000015
 17  -2123.62463590  -0.0000042925  0.000148  0.003015  0.000473  0.000011
 18  -2123.62463814  -0.0000022466  0.000069  0.001703  0.000262  0.000006
 19  -2123.62463935  -0.0000012013  0.000063  0.000712  0.000185  0.000004
 20  -2123.62463974  -0.0000003973  0.000030  0.000523  0.000143  0.000002
 21  -2123.62463993  -0.0000001864  0.000023  0.000315  0.000077  0.000001
 22  -2123.62464004  -0.0000001087  0.000018  0.000546  0.000123  0.000002
 23  -2123.62464012  -0.0000000848  0.000012  0.000250  0.000053  0.000001
 24  -2123.62464015  -0.0000000262  0.000006  0.000191  0.000039  0.000001
 25  -2123.62464017  -0.0000000173  0.000006  0.000109  0.000027  0.000000
 26  -2123.62464018  -0.0000000104  0.000003  0.000089  0.000020  0.000000
 27  -2123.62464018  -0.0000000058  0.000003  0.000104  0.000018  0.000000
                 **** Energy Check signals convergence ****
              ***Rediagonalizing the Fockian in SOSCF/NRSCF***

               *****************************************************
               *                     SUCCESS                       *
               *           SCF CONVERGED AFTER  28 CYCLES          *
               *****************************************************


----------------
TOTAL SCF ENERGY
----------------

Total Energy       :        -2123.62464019 Eh          -57786.76428 eV

Components:
Nuclear Repulsion  :         6227.05265012 Eh          169446.71711 eV
Electronic Energy  :        -8350.67729031 Eh         -227233.48140 eV
One Electron Energy:       -15295.11447669 Eh         -416201.22417 eV
Two Electron Energy:         6944.43718638 Eh          188967.74278 eV

Virial components:
Potential Energy   :        -4245.66275211 Eh         -115530.35693 eV
Kinetic Energy     :         2122.03811193 Eh           57743.59265 eV
Virial Ratio       :            2.00074764


---------------
SCF CONVERGENCE
---------------

  Last Energy change         ...   -5.4788e-09  Tolerance :   1.0000e-08
  Last MAX-Density change    ...    1.3520e-05  Tolerance :   1.0000e-07
  Last RMS-Density change    ...    3.4447e-07  Tolerance :   5.0000e-09
  Last Orbital Gradient      ...    2.2561e-06  Tolerance :   1.0000e-05
  Last Orbital Rotation      ...    1.0171e-04  Tolerance :   1.0000e-05

             **** THE GBW FILE WAS UPDATED (/scratch/allen/tmpyp4_amber_gaff2/conf1/conf1/Conf51.orca.gbw) ****
             **** DENSITY /scratch/allen/tmpyp4_amber_gaff2/conf1/conf1/Conf51.orca.scfp WAS UPDATED ****
             **** ENERGY FILE WAS UPDATED (/scratch/allen/tmpyp4_amber_gaff2/conf1/conf1/Conf51.orca.en.tmp) ****
             **** THE GBW FILE WAS UPDATED (/scratch/allen/tmpyp4_amber_gaff2/conf1/conf1/Conf51.orca.gbw) ****
             **** DENSITY /scratch/allen/tmpyp4_amber_gaff2/conf1/conf1/Conf51.orca.scfp WAS UPDATED ****
----------------
ORBITAL ENERGIES
----------------

  NO   OCC          E(Eh)            E(eV) 
   0   2.0000     -15.652489      -425.9259 
   1   2.0000     -15.637146      -425.5084 
   2   2.0000     -15.630091      -425.3164 
   3   2.0000     -15.610161      -424.7741 
   4   2.0000     -15.521217      -422.3538 
   5   2.0000     -15.516400      -422.2227 
   6   2.0000     -15.447578      -420.3500 
   7   2.0000     -15.443155      -420.2296 
   8   2.0000     -11.311017      -307.7884 
   9   2.0000     -11.306943      -307.6776 
  10   2.0000     -11.304942      -307.6231 
  11   2.0000     -11.301242      -307.5224 
  12   2.0000     -11.297024      -307.4077 
  13   2.0000     -11.294024      -307.3260 
  14   2.0000     -11.290888      -307.2407 
  15   2.0000     -11.287926      -307.1601 
  16   2.0000     -11.286215      -307.1135 
  17   2.0000     -11.285222      -307.0865 
  18   2.0000     -11.272511      -306.7406 
  19   2.0000     -11.270992      -306.6993 
  20   2.0000     -11.256279      -306.2989 
  21   2.0000     -11.243999      -305.9648 
  22   2.0000     -11.243098      -305.9403 
  23   2.0000     -11.240540      -305.8706 
  24   2.0000     -11.234636      -305.7100 
  25   2.0000     -11.233195      -305.6708 
  26   2.0000     -11.232407      -305.6493 
  27   2.0000     -11.228099      -305.5321 
  28   2.0000     -11.227955      -305.5282 
  29   2.0000     -11.218545      -305.2721 
  30   2.0000     -11.213149      -305.1253 
  31   2.0000     -11.212230      -305.1003 
  32   2.0000     -11.203788      -304.8706 
  33   2.0000     -11.203192      -304.8543 
  34   2.0000     -11.192833      -304.5725 
  35   2.0000     -11.192217      -304.5557 
  36   2.0000     -11.178740      -304.1890 
  37   2.0000     -11.177382      -304.1520 
  38   2.0000     -11.177024      -304.1423 
  39   2.0000     -11.172013      -304.0059 
  40   2.0000     -11.168600      -303.9131 
  41   2.0000     -11.167084      -303.8718 
  42   2.0000     -11.165701      -303.8342 
  43   2.0000     -11.164256      -303.7948 
  44   2.0000     -11.163649      -303.7783 
  45   2.0000     -11.161946      -303.7320 
  46   2.0000     -11.151382      -303.4445 
  47   2.0000     -11.149794      -303.4013 
  48   2.0000     -11.147930      -303.3506 
  49   2.0000     -11.146993      -303.3251 
  50   2.0000     -11.138976      -303.1069 
  51   2.0000     -11.134376      -302.9818 
  52   2.0000      -1.337108       -36.3846 
  53   2.0000      -1.323898       -36.0251 
  54   2.0000      -1.317913       -35.8622 
  55   2.0000      -1.301539       -35.4167 
  56   2.0000      -1.220463       -33.2105 
  57   2.0000      -1.212159       -32.9845 
  58   2.0000      -1.164972       -31.7005 
  59   2.0000      -1.155976       -31.4557 
  60   2.0000      -1.123940       -30.5840 
  61   2.0000      -1.112201       -30.2645 
  62   2.0000      -1.107173       -30.1277 
  63   2.0000      -1.094121       -29.7725 
  64   2.0000      -1.060411       -28.8553 
  65   2.0000      -1.047852       -28.5135 
  66   2.0000      -1.042554       -28.3693 
  67   2.0000      -1.029523       -28.0147 
  68   2.0000      -1.028241       -27.9798 
  69   2.0000      -1.011713       -27.5301 
  70   2.0000      -1.009733       -27.4762 
  71   2.0000      -0.995376       -27.0856 
  72   2.0000      -0.984768       -26.7969 
  73   2.0000      -0.974925       -26.5291 
  74   2.0000      -0.972144       -26.4534 
  75   2.0000      -0.959551       -26.1107 
  76   2.0000      -0.951444       -25.8901 
  77   2.0000      -0.946695       -25.7609 
  78   2.0000      -0.938445       -25.5364 
  79   2.0000      -0.922915       -25.1138 
  80   2.0000      -0.895526       -24.3685 
  81   2.0000      -0.885348       -24.0915 
  82   2.0000      -0.875045       -23.8112 
  83   2.0000      -0.869901       -23.6712 
  84   2.0000      -0.862490       -23.4695 
  85   2.0000      -0.856131       -23.2965 
  86   2.0000      -0.848866       -23.0988 
  87   2.0000      -0.840969       -22.8839 
  88   2.0000      -0.822117       -22.3709 
  89   2.0000      -0.798728       -21.7345 
  90   2.0000      -0.796967       -21.6866 
  91   2.0000      -0.741073       -20.1656 
  92   2.0000      -0.733906       -19.9706 
  93   2.0000      -0.730036       -19.8653 
  94   2.0000      -0.721555       -19.6345 
  95   2.0000      -0.720629       -19.6093 
  96   2.0000      -0.712876       -19.3983 
  97   2.0000      -0.707206       -19.2441 
  98   2.0000      -0.700375       -19.0582 
  99   2.0000      -0.694201       -18.8902 
 100   2.0000      -0.689278       -18.7562 
 101   2.0000      -0.681341       -18.5402 
 102   2.0000      -0.678788       -18.4708 
 103   2.0000      -0.674420       -18.3519 
 104   2.0000      -0.670492       -18.2450 
 105   2.0000      -0.666534       -18.1373 
 106   2.0000      -0.664376       -18.0786 
 107   2.0000      -0.660154       -17.9637 
 108   2.0000      -0.657123       -17.8812 
 109   2.0000      -0.655870       -17.8471 
 110   2.0000      -0.652340       -17.7511 
 111   2.0000      -0.649156       -17.6644 
 112   2.0000      -0.645986       -17.5782 
 113   2.0000      -0.638638       -17.3782 
 114   2.0000      -0.635173       -17.2839 
 115   2.0000      -0.626219       -17.0403 
 116   2.0000      -0.624337       -16.9891 
 117   2.0000      -0.614807       -16.7298 
 118   2.0000      -0.613090       -16.6830 
 119   2.0000      -0.609914       -16.5966 
 120   2.0000      -0.609609       -16.5883 
 121   2.0000      -0.603228       -16.4147 
 122   2.0000      -0.595259       -16.1978 
 123   2.0000      -0.593867       -16.1599 
 124   2.0000      -0.591141       -16.0858 
 125   2.0000      -0.583579       -15.8800 
 126   2.0000      -0.579376       -15.7656 
 127   2.0000      -0.574309       -15.6278 
 128   2.0000      -0.566930       -15.4270 
 129   2.0000      -0.559592       -15.2273 
 130   2.0000      -0.553826       -15.0704 
 131   2.0000      -0.548213       -14.9176 
 132   2.0000      -0.540888       -14.7183 
 133   2.0000      -0.536506       -14.5991 
 134   2.0000      -0.534675       -14.5493 
 135   2.0000      -0.529147       -14.3988 
 136   2.0000      -0.526386       -14.3237 
 137   2.0000      -0.523048       -14.2328 
 138   2.0000      -0.520221       -14.1559 
 139   2.0000      -0.516166       -14.0456 
 140   2.0000      -0.510872       -13.9015 
 141   2.0000      -0.506982       -13.7957 
 142   2.0000      -0.506112       -13.7720 
 143   2.0000      -0.501201       -13.6384 
 144   2.0000      -0.500841       -13.6286 
 145   2.0000      -0.498334       -13.5603 
 146   2.0000      -0.494806       -13.4644 
 147   2.0000      -0.490960       -13.3597 
 148   2.0000      -0.489484       -13.3195 
 149   2.0000      -0.469465       -12.7748 
 150   2.0000      -0.461909       -12.5692 
 151   2.0000      -0.453749       -12.3471 
 152   2.0000      -0.447885       -12.1876 
 153   2.0000      -0.446964       -12.1625 
 154   2.0000      -0.446418       -12.1477 
 155   2.0000      -0.439911       -11.9706 
 156   2.0000      -0.434909       -11.8345 
 157   2.0000      -0.430006       -11.7011 
 158   2.0000      -0.395082       -10.7507 
 159   2.0000      -0.385747       -10.4967 
 160   2.0000      -0.378069       -10.2878 
 161   2.0000      -0.371522       -10.1096 
 162   2.0000      -0.369234       -10.0474 
 163   2.0000      -0.358516        -9.7557 
 164   2.0000      -0.354181        -9.6378 
 165   2.0000      -0.340378        -9.2621 
 166   2.0000      -0.337163        -9.1747 
 167   2.0000      -0.334970        -9.1150 
 168   2.0000      -0.328630        -8.9425 
 169   2.0000      -0.300284        -8.1711 
 170   2.0000      -0.298262        -8.1161 
 171   2.0000      -0.288269        -7.8442 
 172   2.0000      -0.286559        -7.7977 
 173   2.0000      -0.257640        -7.0107 
 174   2.0000      -0.247337        -6.7304 
 175   2.0000      -0.188839        -5.1386 
 176   2.0000      -0.178892        -4.8679 
 177   2.0000      -0.069132        -1.8812 
 178   2.0000      -0.055647        -1.5142 
 179   0.0000       0.030029         0.8171 
 180   0.0000       0.069802         1.8994 
 181   0.0000       0.092615         2.5202 
 182   0.0000       0.100529         2.7355 
 183   0.0000       0.124765         3.3950 
 184   0.0000       0.135351         3.6831 
 185   0.0000       0.140555         3.8247 
 186   0.0000       0.154800         4.2123 
 187   0.0000       0.155215         4.2236 
 188   0.0000       0.161279         4.3886 
 189   0.0000       0.163543         4.4502 
 190   0.0000       0.166897         4.5415 
 191   0.0000       0.176637         4.8065 
 192   0.0000       0.194912         5.3038 
 193   0.0000       0.198279         5.3954 
 194   0.0000       0.203325         5.5328 
 195   0.0000       0.206715         5.6250 
 196   0.0000       0.206895         5.6299 
 197   0.0000       0.209962         5.7134 
 198   0.0000       0.216602         5.8940 
 199   0.0000       0.220408         5.9976 
 200   0.0000       0.229887         6.2555 
 201   0.0000       0.238040         6.4774 
 202   0.0000       0.241065         6.5597 
 203   0.0000       0.247554         6.7363 
 204   0.0000       0.250160         6.8072 
 205   0.0000       0.254808         6.9337 
 206   0.0000       0.256207         6.9717 
 207   0.0000       0.258312         7.0290 
 208   0.0000       0.263242         7.1632 
 209   0.0000       0.264266         7.1910 
 210   0.0000       0.267050         7.2668 
 211   0.0000       0.269258         7.3269 
 212   0.0000       0.271929         7.3996 
 213   0.0000       0.275089         7.4856 
 214   0.0000       0.276605         7.5268 
 215   0.0000       0.279357         7.6017 
 216   0.0000       0.281304         7.6547 
 217   0.0000       0.282610         7.6902 
 218   0.0000       0.284899         7.7525 
 219   0.0000       0.289449         7.8763 
 220   0.0000       0.289854         7.8873 
 221   0.0000       0.292002         7.9458 
 222   0.0000       0.294384         8.0106 
 223   0.0000       0.295115         8.0305 
 224   0.0000       0.298256         8.1160 
 225   0.0000       0.300075         8.1655 
 226   0.0000       0.304041         8.2734 
 227   0.0000       0.308803         8.4030 
 228   0.0000       0.309469         8.4211 
 229   0.0000       0.314824         8.5668 
 230   0.0000       0.317641         8.6435 
 231   0.0000       0.321121         8.7381 
 232   0.0000       0.324699         8.8355 
 233   0.0000       0.330172         8.9844 
 234   0.0000       0.334785         9.1100 
 235   0.0000       0.342303         9.3145 
 236   0.0000       0.356201         9.6927 
 237   0.0000       0.385333        10.4854 
 238   0.0000       0.394614        10.7380 
 239   0.0000       0.399578        10.8731 
 240   0.0000       0.404488        11.0067 
 241   0.0000       0.416381        11.3303 
 242   0.0000       0.419181        11.4065 
 243   0.0000       0.424759        11.5583 
 244   0.0000       0.428676        11.6649 
 245   0.0000       0.430606        11.7174 
 246   0.0000       0.433468        11.7953 
 247   0.0000       0.439497        11.9593 
 248   0.0000       0.441903        12.0248 
 249   0.0000       0.443062        12.0563 
 250   0.0000       0.448140        12.1945 
 251   0.0000       0.456069        12.4103 
 252   0.0000       0.457015        12.4360 
 253   0.0000       0.463929        12.6242 
 254   0.0000       0.470849        12.8125 
 255   0.0000       0.474078        12.9003 
 256   0.0000       0.482761        13.1366 
 257   0.0000       0.485093        13.2001 
 258   0.0000       0.493005        13.4154 
 259   0.0000       0.497355        13.5337 
 260   0.0000       0.500310        13.6141 
 261   0.0000       0.503914        13.7122 
 262   0.0000       0.505789        13.7632 
 263   0.0000       0.509659        13.8685 
 264   0.0000       0.512493        13.9456 
 265   0.0000       0.515115        14.0170 
 266   0.0000       0.519444        14.1348 
 267   0.0000       0.523703        14.2507 
 268   0.0000       0.535309        14.5665 
 269   0.0000       0.537613        14.6292 
 270   0.0000       0.542202        14.7541 
 271   0.0000       0.545857        14.8535 
 272   0.0000       0.547205        14.8902 
 273   0.0000       0.553921        15.0729 
 274   0.0000       0.559639        15.2286 
 275   0.0000       0.563752        15.3405 
 276   0.0000       0.572168        15.5695 
 277   0.0000       0.578151        15.7323 
 278   0.0000       0.580381        15.7930 
 279   0.0000       0.584848        15.9145 
 280   0.0000       0.586479        15.9589 
 281   0.0000       0.591597        16.0982 
 282   0.0000       0.594221        16.1696 
 283   0.0000       0.597628        16.2623 
 284   0.0000       0.600194        16.3321 
 285   0.0000       0.600466        16.3395 
 286   0.0000       0.607130        16.5208 
 287   0.0000       0.609744        16.5920 
 288   0.0000       0.612573        16.6690 
 289   0.0000       0.614747        16.7281 
 290   0.0000       0.622838        16.9483 
 291   0.0000       0.627963        17.0877 
 292   0.0000       0.636622        17.3234 
 293   0.0000       0.638033        17.3618 
 294   0.0000       0.643632        17.5141 
 295   0.0000       0.651149        17.7187 
 296   0.0000       0.655662        17.8415 
 297   0.0000       0.658986        17.9319 
 298   0.0000       0.664086        18.0707 
 299   0.0000       0.665784        18.1169 
 300   0.0000       0.669093        18.2070 
 301   0.0000       0.671425        18.2704 
 302   0.0000       0.678924        18.4745 
 303   0.0000       0.681285        18.5387 
 304   0.0000       0.683850        18.6085 
 305   0.0000       0.687675        18.7126 
 306   0.0000       0.689714        18.7681 
 307   0.0000       0.691831        18.8257 
 308   0.0000       0.697795        18.9880 
 309   0.0000       0.698806        19.0155 
 310   0.0000       0.702459        19.1149 
 311   0.0000       0.704817        19.1790 
 312   0.0000       0.706084        19.2135 
 313   0.0000       0.709437        19.3048 
 314   0.0000       0.712617        19.3913 
 315   0.0000       0.714741        19.4491 
 316   0.0000       0.716011        19.4837 
 317   0.0000       0.717991        19.5375 
 318   0.0000       0.719175        19.5697 
 319   0.0000       0.723607        19.6904 
 320   0.0000       0.726781        19.7767 
 321   0.0000       0.728446        19.8220 
 322   0.0000       0.731594        19.9077 
 323   0.0000       0.736137        20.0313 
 324   0.0000       0.737234        20.0612 
 325   0.0000       0.742077        20.1929 
 326   0.0000       0.742910        20.2156 
 327   0.0000       0.744634        20.2625 
 328   0.0000       0.748685        20.3727 
 329   0.0000       0.749206        20.3869 
 330   0.0000       0.753585        20.5061 
 331   0.0000       0.756279        20.5794 
 332   0.0000       0.757824        20.6214 
 333   0.0000       0.761893        20.7322 
 334   0.0000       0.767339        20.8804 
 335   0.0000       0.772693        21.0261 
 336   0.0000       0.776270        21.1234 
 337   0.0000       0.780819        21.2472 
 338   0.0000       0.783868        21.3301 
 339   0.0000       0.788219        21.4485 
 340   0.0000       0.791085        21.5265 
 341   0.0000       0.792772        21.5724 
 342   0.0000       0.798475        21.7276 
 343   0.0000       0.800648        21.7867 
 344   0.0000       0.804270        21.8853 
 345   0.0000       0.807234        21.9660 
 346   0.0000       0.810283        22.0489 
 347   0.0000       0.811026        22.0691 
 348   0.0000       0.814234        22.1564 
 349   0.0000       0.815873        22.2010 
 350   0.0000       0.821645        22.3581 
 351   0.0000       0.824718        22.4417 
 352   0.0000       0.824857        22.4455 
 353   0.0000       0.828889        22.5552 
 354   0.0000       0.830546        22.6003 
 355   0.0000       0.833601        22.6834 
 356   0.0000       0.834053        22.6957 
 357   0.0000       0.835410        22.7327 
 358   0.0000       0.835796        22.7432 
 359   0.0000       0.839477        22.8433 
 360   0.0000       0.840058        22.8591 
 361   0.0000       0.840972        22.8840 
 362   0.0000       0.843663        22.9572 
 363   0.0000       0.844689        22.9852 
 364   0.0000       0.846929        23.0461 
 365   0.0000       0.849625        23.1195 
 366   0.0000       0.851621        23.1738 
 367   0.0000       0.854815        23.2607 
 368   0.0000       0.859932        23.3999 
 369   0.0000       0.861961        23.4552 
 370   0.0000       0.864690        23.5294 
 371   0.0000       0.870642        23.6914 
 372   0.0000       0.875336        23.8191 
 373   0.0000       0.877586        23.8803 
 374   0.0000       0.879111        23.9218 
 375   0.0000       0.883254        24.0346 
 376   0.0000       0.886013        24.1097 
 377   0.0000       0.888060        24.1653 
 378   0.0000       0.891835        24.2681 
 379   0.0000       0.895246        24.3609 
 380   0.0000       0.897074        24.4106 
 381   0.0000       0.898811        24.4579 
 382   0.0000       0.901631        24.5346 
 383   0.0000       0.902670        24.5629 
 384   0.0000       0.903355        24.5815 
 385   0.0000       0.906239        24.6600 
 386   0.0000       0.908772        24.7289 
 387   0.0000       0.911038        24.7906 
 388   0.0000       0.911942        24.8152 
 389   0.0000       0.912252        24.8236 
 390   0.0000       0.917577        24.9685 
 391   0.0000       0.920394        25.0452 
 392   0.0000       0.922689        25.1076 
 393   0.0000       0.924595        25.1595 
 394   0.0000       0.927865        25.2485 
 395   0.0000       0.932920        25.3860 
 396   0.0000       0.933571        25.4037 
 397   0.0000       0.934502        25.4291 
 398   0.0000       0.938985        25.5511 
 399   0.0000       0.941449        25.6181 
 400   0.0000       0.944343        25.6969 
 401   0.0000       0.946296        25.7500 
 402   0.0000       0.950297        25.8589 
 403   0.0000       0.953042        25.9336 
 404   0.0000       0.955821        26.0092 
 405   0.0000       0.956482        26.0272 
 406   0.0000       0.962146        26.1813 
 407   0.0000       0.964859        26.2552 
 408   0.0000       0.968985        26.3674 
 409   0.0000       0.972101        26.4522 
 410   0.0000       0.977384        26.5960 
 411   0.0000       0.980296        26.6752 
 412   0.0000       0.985451        26.8155 
 413   0.0000       0.986437        26.8423 
 414   0.0000       0.989361        26.9219 
 415   0.0000       0.991825        26.9889 
 416   0.0000       0.997543        27.1445 
 417   0.0000       1.002713        27.2852 
 418   0.0000       1.008002        27.4291 
 419   0.0000       1.016343        27.6561 
 420   0.0000       1.022635        27.8273 
 421   0.0000       1.028853        27.9965 
 422   0.0000       1.031833        28.0776 
 423   0.0000       1.039314        28.2812 
 424   0.0000       1.042810        28.3763 
 425   0.0000       1.047892        28.5146 
 426   0.0000       1.052082        28.6286 
 427   0.0000       1.066269        29.0146 
 428   0.0000       1.067471        29.0474 
 429   0.0000       1.072668        29.1888 
 430   0.0000       1.076101        29.2822 
 431   0.0000       1.079869        29.3847 
 432   0.0000       1.083640        29.4874 
 433   0.0000       1.091989        29.7145 
 434   0.0000       1.098693        29.8970 
 435   0.0000       1.099548        29.9202 
 436   0.0000       1.106124        30.0992 
 437   0.0000       1.111634        30.2491 
 438   0.0000       1.115664        30.3588 
 439   0.0000       1.117543        30.4099 
 440   0.0000       1.119142        30.4534 
 441   0.0000       1.124183        30.5906 
 442   0.0000       1.127603        30.6836 
 443   0.0000       1.130993        30.7759 
 444   0.0000       1.133886        30.8546 
 445   0.0000       1.134443        30.8698 
 446   0.0000       1.138201        30.9720 
 447   0.0000       1.142414        31.0867 
 448   0.0000       1.143722        31.1223 
 449   0.0000       1.145083        31.1593 
 450   0.0000       1.150570        31.3086 
 451   0.0000       1.150787        31.3145 
 452   0.0000       1.156387        31.4669 
 453   0.0000       1.157050        31.4849 
 454   0.0000       1.162374        31.6298 
 455   0.0000       1.169746        31.8304 
 456   0.0000       1.175066        31.9752 
 457   0.0000       1.175870        31.9970 
 458   0.0000       1.176690        32.0194 
 459   0.0000       1.187230        32.3062 
 460   0.0000       1.187829        32.3225 
 461   0.0000       1.193219        32.4691 
 462   0.0000       1.203999        32.7625 
 463   0.0000       1.205055        32.7912 
 464   0.0000       1.207979        32.8708 
 465   0.0000       1.211039        32.9540 
 466   0.0000       1.211945        32.9787 
 467   0.0000       1.218013        33.1438 
 468   0.0000       1.223372        33.2896 
 469   0.0000       1.227176        33.3932 
 470   0.0000       1.231892        33.5215 
 471   0.0000       1.233958        33.5777 
 472   0.0000       1.236114        33.6364 
 473   0.0000       1.239096        33.7175 
 474   0.0000       1.242439        33.8085 
 475   0.0000       1.248044        33.9610 
 476   0.0000       1.249662        34.0050 
 477   0.0000       1.250080        34.0164 
 478   0.0000       1.251952        34.0673 
 479   0.0000       1.255216        34.1562 
 480   0.0000       1.258389        34.2425 
 481   0.0000       1.265099        34.4251 
 482   0.0000       1.267687        34.4955 
 483   0.0000       1.271777        34.6068 
 484   0.0000       1.275579        34.7103 
 485   0.0000       1.277545        34.7638 
 486   0.0000       1.278426        34.7877 
 487   0.0000       1.280648        34.8482 
 488   0.0000       1.288073        35.0502 
 489   0.0000       1.290538        35.1173 
 490   0.0000       1.291395        35.1406 
 491   0.0000       1.295608        35.2553 
 492   0.0000       1.300998        35.4020 
 493   0.0000       1.308750        35.6129 
 494   0.0000       1.311803        35.6960 
 495   0.0000       1.313690        35.7473 
 496   0.0000       1.319169        35.8964 
 497   0.0000       1.322088        35.9758 
 498   0.0000       1.327652        36.1272 
 499   0.0000       1.329874        36.1877 
 500   0.0000       1.331998        36.2455 
 501   0.0000       1.338504        36.4225 
 502   0.0000       1.339951        36.4619 
 503   0.0000       1.344580        36.5879 
 504   0.0000       1.347710        36.6731 
 505   0.0000       1.351977        36.7892 
 506   0.0000       1.354245        36.8509 
 507   0.0000       1.358683        36.9716 
 508   0.0000       1.362029        37.0627 
 509   0.0000       1.363848        37.1122 
[...]
      pz      :     0.022018  p :     0.079634
      px      :     0.043398
      py      :     0.014218
 77 H s       :     0.887640  s :     0.887640
      pz      :     0.047738  p :     0.079016
      px      :     0.015015
      py      :     0.016263
 78 H s       :     0.888011  s :     0.888011
      pz      :     0.025760  p :     0.078965
      px      :     0.020524
      py      :     0.032681
 79 H s       :     0.909636  s :     0.909636
      pz      :     0.022022  p :     0.086584
      px      :     0.021733
      py      :     0.042828
 80 H s       :     0.868723  s :     0.868723
      pz      :     0.039036  p :     0.084333
      px      :     0.030031
      py      :     0.015266
 81 H s       :     0.887114  s :     0.887114
      pz      :     0.037772  p :     0.083960
      px      :     0.016159
      py      :     0.030029
 82 H s       :     0.915308  s :     0.915308
      pz      :     0.022043  p :     0.086818
      px      :     0.031462
      py      :     0.033313
 83 H s       :     0.872786  s :     0.872786
      pz      :     0.039276  p :     0.084027
      px      :     0.015258
      py      :     0.029494
 84 H s       :     0.886856  s :     0.886856
      pz      :     0.035794  p :     0.083634
      px      :     0.031721
      py      :     0.016119
 85 H s       :     0.893312  s :     0.893312
      pz      :     0.022499  p :     0.079760
      px      :     0.014079
      py      :     0.043181
 86 H s       :     0.890762  s :     0.890762
      pz      :     0.024730  p :     0.078857
      px      :     0.032995
      py      :     0.021133
 87 H s       :     0.890060  s :     0.890060
      pz      :     0.047980  p :     0.078718
      px      :     0.015602
      py      :     0.015136
 88 H s       :     0.912657  s :     0.912657
      pz      :     0.021871  p :     0.086958
      px      :     0.042682
      py      :     0.022405
 89 H s       :     0.872177  s :     0.872177
      pz      :     0.037907  p :     0.083859
      px      :     0.030479
      py      :     0.015473


                      *****************************
                      * MAYER POPULATION ANALYSIS *
                      *****************************

  NA   - Mulliken gross atomic population
  ZA   - Total nuclear charge
  QA   - Mulliken gross atomic charge
  VA   - Mayer's total valence
  BVA  - Mayer's bonded valence
  FA   - Mayer's free valence

  ATOM       NA         ZA         QA         VA         BVA        FA
  0 C      5.7935     6.0000     0.2065     3.8337     3.8337     0.0000
  1 N      7.4488     7.0000    -0.4488     3.3484     3.3484    -0.0000
  2 C      6.0629     6.0000    -0.0629     3.9194     3.9194    -0.0000
  3 N      7.3363     7.0000    -0.3363     3.4507     3.4507     0.0000
  4 C      6.0546     6.0000    -0.0546     3.9856     3.9856    -0.0000
  5 N      7.5629     7.0000    -0.5629     3.0887     3.0887    -0.0000
  6 C      6.0870     6.0000    -0.0870     4.0032     4.0032    -0.0000
  7 N      7.3387     7.0000    -0.3387     3.4390     3.4390    -0.0000
  8 C      5.7943     6.0000     0.2057     3.8343     3.8343    -0.0000
  9 N      7.5629     7.0000    -0.5629     3.0812     3.0812     0.0000
 10 C      5.8828     6.0000     0.1172     3.9014     3.9014     0.0000
 11 N      7.4377     7.0000    -0.4377     3.3820     3.3820    -0.0000
 12 C      6.0782     6.0000    -0.0782     3.9182     3.9182    -0.0000
 13 N      7.4359     7.0000    -0.4359     3.3982     3.3982     0.0000
 14 C      5.7553     6.0000     0.2447     3.7819     3.7819    -0.0000
 15 N      7.4408     7.0000    -0.4408     3.3720     3.3720    -0.0000
 16 C      5.7701     6.0000     0.2299     3.7872     3.7872     0.0000
 17 C      6.0919     6.0000    -0.0919     4.0067     4.0067     0.0000
 18 C      6.2155     6.0000    -0.2155     3.7689     3.7689    -0.0000
 19 C      5.7603     6.0000     0.2397     3.8607     3.8607    -0.0000
 20 C      5.7896     6.0000     0.2104     3.8269     3.8269     0.0000
 21 C      6.0920     6.0000    -0.0920     3.9072     3.9072     0.0000
 22 C      6.0888     6.0000    -0.0888     3.9833     3.9833    -0.0000
 23 C      6.0448     6.0000    -0.0448     3.9913     3.9913     0.0000
 24 C      5.7993     6.0000     0.2007     3.8225     3.8225     0.0000
 25 C      5.8859     6.0000     0.1141     3.8904     3.8904     0.0000
 26 C      6.0725     6.0000    -0.0725     3.9089     3.9089    -0.0000
 27 C      5.7824     6.0000     0.2176     3.8757     3.8757     0.0000
 28 C      6.0563     6.0000    -0.0563     3.9881     3.9881    -0.0000
 29 C      6.1828     6.0000    -0.1828     3.7393     3.7393    -0.0000
 30 C      5.7602     6.0000     0.2398     3.7963     3.7963     0.0000
 31 C      5.7816     6.0000     0.2184     3.8235     3.8235    -0.0000
 32 C      6.0641     6.0000    -0.0641     3.9198     3.9198    -0.0000
 33 C      6.0732     6.0000    -0.0732     3.9805     3.9805     0.0000
 34 C      6.0506     6.0000    -0.0506     3.9888     3.9888    -0.0000
 35 C      5.7863     6.0000     0.2137     3.8221     3.8221    -0.0000
 36 C      5.8882     6.0000     0.1118     3.8851     3.8851     0.0000
 37 C      6.0659     6.0000    -0.0659     3.9176     3.9176     0.0000
 38 C      5.7654     6.0000     0.2346     3.7992     3.7992    -0.0000
 39 C      6.0598     6.0000    -0.0598     3.9881     3.9881    -0.0000
 40 C      6.1863     6.0000    -0.1863     3.7358     3.7358     0.0000
 41 C      5.7767     6.0000     0.2233     3.8834     3.8834     0.0000
 42 C      5.7992     6.0000     0.2008     3.8269     3.8269     0.0000
 43 C      6.0729     6.0000    -0.0729     3.9020     3.9020     0.0000
 44 C      6.0892     6.0000    -0.0892     3.9849     3.9849    -0.0000
 45 C      6.0560     6.0000    -0.0560     3.9927     3.9927    -0.0000
 46 C      5.7932     6.0000     0.2068     3.8268     3.8268    -0.0000
 47 C      5.8845     6.0000     0.1155     3.8933     3.8933    -0.0000
 48 C      6.0713     6.0000    -0.0713     3.9064     3.9064    -0.0000
 49 C      5.7687     6.0000     0.2313     3.8878     3.8878    -0.0000
 50 C      6.0503     6.0000    -0.0503     3.9904     3.9904    -0.0000
 51 C      6.1895     6.0000    -0.1895     3.7361     3.7361    -0.0000
 52 H      0.9526     1.0000     0.0474     0.9855     0.9855    -0.0000
 53 H      1.0149     1.0000    -0.0149     0.9984     0.9984     0.0000
 54 H      0.9491     1.0000     0.0509     1.0099     1.0099    -0.0000
 55 H      0.9535     1.0000     0.0465     0.9865     0.9865    -0.0000
 56 H      0.9455     1.0000     0.0545     0.9706     0.9706     0.0000
 57 H      0.9473     1.0000     0.0527     0.9836     0.9836     0.0000
 58 H      0.9483     1.0000     0.0517     0.9851     0.9851     0.0000
 59 H      1.0058     1.0000    -0.0058     1.0011     1.0011    -0.0000
 60 H      0.9541     1.0000     0.0459     1.0093     1.0093    -0.0000
 61 H      0.8279     1.0000     0.1721     1.0423     1.0423     0.0000
 62 H      0.8262     1.0000     0.1738     1.0435     1.0435    -0.0000
 63 H      0.9439     1.0000     0.0561     0.9854     0.9854     0.0000
 64 H      1.0131     1.0000    -0.0131     0.9976     0.9976    -0.0000
 65 H      0.9525     1.0000     0.0475     1.0091     1.0091     0.0000
 66 H      0.9430     1.0000     0.0570     0.9852     0.9852    -0.0000
 67 H      0.9374     1.0000     0.0626     0.9720     0.9720    -0.0000
 68 H      0.9421     1.0000     0.0579     0.9868     0.9868    -0.0000
 69 H      0.9421     1.0000     0.0579     0.9829     0.9829    -0.0000
 70 H      1.0263     1.0000    -0.0263     0.9938     0.9938     0.0000
 71 H      0.9535     1.0000     0.0465     1.0064     1.0064     0.0000
 72 H      0.9378     1.0000     0.0622     0.9845     0.9845    -0.0000
 73 H      1.0117     1.0000    -0.0117     0.9996     0.9996    -0.0000
 74 H      0.9480     1.0000     0.0520     1.0100     1.0100    -0.0000
 75 H      0.9386     1.0000     0.0614     0.9849     0.9849    -0.0000
 76 H      0.9330     1.0000     0.0670     0.9718     0.9718    -0.0000
 77 H      0.9380     1.0000     0.0620     0.9852     0.9852    -0.0000
 78 H      0.9388     1.0000     0.0612     0.9850     0.9850    -0.0000
 79 H      1.0150     1.0000    -0.0150     0.9987     0.9987     0.0000
 80 H      0.9474     1.0000     0.0526     1.0072     1.0072     0.0000
 81 H      0.9463     1.0000     0.0537     0.9855     0.9855    -0.0000
 82 H      1.0238     1.0000    -0.0238     0.9940     0.9940     0.0000
 83 H      0.9572     1.0000     0.0428     1.0089     1.0089     0.0000
 84 H      0.9463     1.0000     0.0537     0.9854     0.9854    -0.0000
 85 H      0.9401     1.0000     0.0599     0.9716     0.9716    -0.0000
 86 H      0.9439     1.0000     0.0561     0.9840     0.9840    -0.0000
 87 H      0.9432     1.0000     0.0568     0.9856     0.9856     0.0000
 88 H      1.0187     1.0000    -0.0187     0.9954     0.9954    -0.0000
 89 H      0.9552     1.0000     0.0448     1.0073     1.0073    -0.0000

  Mayer bond orders larger than 0.100000
B(  0-C ,  1-N ) :   1.1030 B(  0-C , 17-C ) :   1.6667 B(  0-C , 52-H ) :   0.9692 
B(  1-N ,  8-C ) :   1.0987 B(  1-N , 10-C ) :   0.9697 B(  2-C , 12-C ) :   1.5251 
B(  2-C , 16-C ) :   1.3377 B(  2-C , 53-H ) :   0.9770 B(  3-N , 14-C ) :   1.2108 
B(  3-N , 16-C ) :   1.1938 B(  3-N , 61-H ) :   0.8987 B(  4-C ,  6-C ) :   1.2360 
B(  4-C , 17-C ) :   1.2392 B(  4-C , 18-C ) :   1.3487 B(  5-N , 19-C ) :   1.4353 
B(  5-N , 27-C ) :   1.3924 B(  6-C ,  8-C ) :   1.6709 B(  6-C , 54-H ) :   0.9680 
B(  7-N , 30-C ) :   1.1950 B(  7-N , 38-C ) :   1.1971 B(  7-N , 62-H ) :   0.8977 
B(  8-C , 55-H ) :   0.9693 B(  9-N , 41-C ) :   1.4026 B(  9-N , 49-C ) :   1.4193 
B( 10-C , 56-H ) :   0.9766 B( 10-C , 57-H ) :   0.9820 B( 10-C , 58-H ) :   0.9840 
B( 11-N , 20-C ) :   1.1277 B( 11-N , 24-C ) :   1.1162 B( 11-N , 25-C ) :   0.9589 
B( 12-C , 14-C ) :   1.3391 B( 12-C , 59-H ) :   0.9751 B( 13-N , 31-C ) :   1.1381 
B( 13-N , 35-C ) :   1.1333 B( 13-N , 36-C ) :   0.9526 B( 14-C , 18-C ) :   1.1656 
B( 15-N , 42-C ) :   1.1124 B( 15-N , 46-C ) :   1.1183 B( 15-N , 47-C ) :   0.9618 
B( 16-C , 51-C ) :   1.1868 B( 17-C , 60-H ) :   0.9692 B( 18-C , 19-C ) :   1.1776 
B( 19-C , 21-C ) :   1.2238 B( 20-C , 28-C ) :   1.6251 B( 20-C , 63-H ) :   0.9703 
B( 21-C , 26-C ) :   1.6322 B( 21-C , 64-H ) :   0.9701 B( 22-C , 23-C ) :   1.2868 
B( 22-C , 28-C ) :   1.2703 B( 22-C , 29-C ) :   1.2252 B( 23-C , 24-C ) :   1.6184 
B( 23-C , 65-H ) :   0.9707 B( 24-C , 66-H ) :   0.9693 B( 25-C , 67-H ) :   0.9761 
B( 25-C , 68-H ) :   0.9829 B( 25-C , 69-H ) :   0.9822 B( 26-C , 27-C ) :   1.2216 
B( 26-C , 70-H ) :   0.9725 B( 27-C , 29-C ) :   1.2260 B( 28-C , 71-H ) :   0.9716 
B( 29-C , 30-C ) :   1.2218 B( 30-C , 32-C ) :   1.3014 B( 31-C , 39-C ) :   1.6142 
B( 31-C , 72-H ) :   0.9691 B( 32-C , 37-C ) :   1.5570 B( 32-C , 73-H ) :   0.9781 
B( 33-C , 34-C ) :   1.2876 B( 33-C , 39-C ) :   1.2819 B( 33-C , 40-C ) :   1.2206 
B( 34-C , 35-C ) :   1.6112 B( 34-C , 74-H ) :   0.9702 B( 35-C , 75-H ) :   0.9691 
B( 36-C , 76-H ) :   0.9765 B( 36-C , 77-H ) :   0.9819 B( 36-C , 78-H ) :   0.9828 
B( 37-C , 38-C ) :   1.3041 B( 37-C , 79-H ) :   0.9773 B( 38-C , 40-C ) :   1.2164 
B( 39-C , 80-H ) :   0.9711 B( 40-C , 41-C ) :   1.2321 B( 41-C , 43-C ) :   1.2015 
B( 42-C , 50-C ) :   1.6331 B( 42-C , 81-H ) :   0.9696 B( 43-C , 48-C ) :   1.6505 
B( 43-C , 82-H ) :   0.9731 B( 44-C , 45-C ) :   1.2680 B( 44-C , 50-C ) :   1.2693 
B( 44-C , 51-C ) :   1.2568 B( 45-C , 46-C ) :   1.6334 B( 45-C , 83-H ) :   0.9714 
B( 46-C , 84-H ) :   0.9701 B( 47-C , 85-H ) :   0.9761 B( 47-C , 86-H ) :   0.9828 
B( 47-C , 87-H ) :   0.9825 B( 48-C , 49-C ) :   1.2029 B( 48-C , 88-H ) :   0.9743 
B( 49-C , 51-C ) :   1.2295 B( 50-C , 89-H ) :   0.9712 

-------
TIMINGS
-------

Total SCF time: 0 days 0 hours 30 min 30 sec 

Total time                  ....    1830.507 sec
Sum of individual times     ....    1825.891 sec  ( 99.7%)

Fock matrix formation       ....    1802.488 sec  ( 98.5%)
Diagonalization             ....       6.986 sec  (  0.4%)
Density matrix formation    ....       0.683 sec  (  0.0%)
Population analysis         ....       0.528 sec  (  0.0%)
Initial guess               ....       2.078 sec  (  0.1%)
Orbital Transformation      ....       0.000 sec  (  0.0%)
Orbital Orthonormalization  ....       0.000 sec  (  0.0%)
DIIS solution               ....       3.525 sec  (  0.2%)
SOSCF solution              ....       8.553 sec  (  0.5%)

Maximum memory used throughout the entire SCF-calculation: 302.6 MB


           ************************************************************
           *        Program running with 16 parallel MPI-processes    *
           *              working on a common directory               *
           ************************************************************

------------------------------------------------------------------------------
                                ORCA  MP2 
------------------------------------------------------------------------------

Freezing NCore=104 chemical core electrons

----------
MP2 ENERGY (disk based algorithm)
----------

Dimension of the basis                    ...  918
Memory devoted to MP2                     ... 2000 MB   
Data format for buffers                   ... DOUBLE
Compression type for matrix containers    ... UNCOMPRESSED

-------------------------------
PARTIAL EXCHANGE TRANSFORMATION
-------------------------------

Transformation type                        ... one-operator
Generation of integrals (i,mue|j,nue)      ... ON
Generation of integrals (mue,kappa|nue,tau)... OFF
Generation of integrals (i,mue|a,nue)      ... OFF
Dimension of the basis                     ...  918
Number of internal MOs                     ...  127 (  52- 178)
Pair cutoff                                ... 2.500e-12 Eh
Number of AO pairs in the trafo            ... 421821
Total Number of distinct AO pairs          ... 421821
Memory devoted for trafo                   ... 2000.0 MB 
Max. Number of MO pairs treated together   ...  311      
Number Format for Storage                  ... Double (8 Byte)
Integral package used                      ... LIBINT

Starting integral evaluation:
    ... done with AO integral generation
Closing buffer AOK     (38.24 GB; CompressionRatio= 1.33)
Collecting buffer AOK 
Number of MO pairs included in the trafo   ... 8128
------------------------
SORTING OF (i,mue|j,nue)
------------------------

IBATCH = 1 of  2
IBATCH = 2 of  2
Closing buffer KAO     (51.03 GB; CompressionRatio= 1.00)
Collecting buffer KAO 
N(AO-Batches) Done                         ...  85624464 
N(AO-Batches) Skipped                      ...  82224170 
N(IJ)-pairs Skipped                        ...         0 
TOTAL TIME for half transformation         ...  3106.972 sec
AO-integral generation                     ...   217.471 sec
Half transformation                        ...   381.113 sec
K-integral sorting                         ...  2342.840 sec
Process 10:   Internal MO 132
Process 13:   Internal MO 156
Process  1:   Internal MO  60

Finished integral transformation - now doing MP2 part

OPERATOR COMBINATION   0   0: ij=( 52..178, 52..178)
Process  4:   Internal MO  84
Process  7:   Internal MO 108
Process  0:   Internal MO  54
Process  0:   Internal MO  57
Process  2:   Internal MO  69
Process  1:   Internal MO  63
Process  5:   Internal MO  93
Process  3:   Internal MO  78
Process  8:   Internal MO 117
Process  1:   Internal MO  66
Process  2:   Internal MO  72
Process 11:   Internal MO 141
Process  6:   Internal MO 102
Process  4:   Internal MO  87
Process 14:   Internal MO 165
Process  5:   Internal MO  96
Process  3:   Internal MO  81
Process  2:   Internal MO  75
Process  9:   Internal MO 126
Process  7:   Internal MO 111
Process 12:   Internal MO 150
Process  4:   Internal MO  90
Process  5:   Internal MO  99
Process 15:   Internal MO 174
Process 10:   Internal MO 135
Process  6:   Internal MO 105
Process  8:   Internal MO 120
Process 13:   Internal MO 159
Process  7:   Internal MO 114
Process  9:   Internal MO 129
Process 11:   Internal MO 144
Process 12:   Internal MO 153
Process 14:   Internal MO 168
Process  8:   Internal MO 123
Process 10:   Internal MO 138
Process 15:   Internal MO 177
Process 13:   Internal MO 162
Process 11:   Internal MO 147
Process 14:   Internal MO 171
-----------------------------------------------
 MP2 CORRELATION ENERGY   :     -7.287886850 Eh
-----------------------------------------------


-------
TIMINGS
-------
Total time                : 3652.520 sec
Integral trafo            : 3109.046 sec ( 85.1%)
K(i,j)                    :    8.029 sec (  0.2%)
T(i,j)                    :    0.204 sec (  0.0%)

---------------------------------------
MP2 TOTAL ENERGY:    -2130.912527038 Eh
---------------------------------------

Maximum memory used throughout the entire MP2-calculation: 2275.2 MB

-------------------------   --------------------
FINAL SINGLE POINT ENERGY     -2130.912527038458
-------------------------   --------------------


                            ***************************************
                            *     ORCA property calculations      *
                            ***************************************


  WARNING: The energy has been calculated at the MP2 level but the densities
           used in the property calculations are still SCF densities
           MP2 response densities have not been calculated 
           use %mp2 Density relaxed end
           or  %mp2 Density unrelaxed end

                                    ---------------------
                                    Active property flags
                                    ---------------------
   (+) Dipole Moment


------------------------------------------------------------------------------
                       ORCA ELECTRIC PROPERTIES CALCULATION
------------------------------------------------------------------------------

Dipole Moment Calculation                       ... on
Quadrupole Moment Calculation                   ... off
Polarizability Calculation                      ... off
GBWName                                         ... /scratch/allen/tmpyp4_amber_gaff2/conf1/conf1/Conf51.orca.gbw
Electron density                                ... /scratch/allen/tmpyp4_amber_gaff2/conf1/conf1/Conf51.orca.scfp
The origin for moment calculation is the CENTER OF MASS  = ( 0.000038, -0.004141  0.003869)

-------------
DIPOLE MOMENT
-------------
                                X             Y             Z
Electronic contribution:      1.02185      -2.13640      -0.13186
Nuclear contribution   :     -0.04942       0.15216       0.16255
                        -----------------------------------------
Total Dipole Moment    :      0.97243      -1.98424       0.03069
                        -----------------------------------------
Magnitude (a.u.)       :      2.20993
Magnitude (Debye)      :      5.61719



--------------------
Rotational spectrum 
--------------------
 
Rotational constants in cm-1:     0.001500     0.001475     0.000762 
Rotational constants in MHz :    44.970343    44.215430    22.830116 

 Dipole components along the rotational axes: 
x,y,z [a.u.] :     1.510831     1.612506     0.031548 
x,y,z [Debye]:     3.840228     4.098665     0.080188 

 

Timings for individual modules:

Sum of individual times         ...     5510.971 sec (=  91.850 min)
GTO integral calculation        ...        3.294 sec (=   0.055 min)   0.1 %
SCF iterations                  ...     1831.599 sec (=  30.527 min)  33.2 %
MP2 module                      ...     3676.078 sec (=  61.268 min)  66.7 %
                             ****ORCA TERMINATED NORMALLY****
TOTAL RUN TIME: 0 days 1 hours 31 minutes 54 seconds 440 msec
# of primitive gaussian functions

