
                                 *****************
                                 * O   R   C   A *
                                 *****************

                                            #,                                       
                                            ###                                      
                                            ####                                     
                                            #####                                    
                                            ######                                   
                                           ########,                                 
                                     ,,################,,,,,                         
                               ,,#################################,,                 
                          ,,##########################################,,             
                       ,#########################################, ''#####,          
                    ,#############################################,,   '####,        
                  ,##################################################,,,,####,       
                ,###########''''           ''''###############################       
              ,#####''   ,,,,##########,,,,          '''####'''          '####       
            ,##' ,,,,###########################,,,                        '##       
           ' ,,###''''                  '''############,,,                           
         ,,##''                                '''############,,,,        ,,,,,,###''
      ,#''                                            '''#######################'''  
     '                                                          ''''####''''         
             ,#######,   #######,   ,#######,      ##                                
            ,#'     '#,  ##    ##  ,#'     '#,    #''#        ######   ,####,        
            ##       ##  ##   ,#'  ##            #'  '#       #        #'  '#        
            ##       ##  #######   ##           ,######,      #####,   #    #        
            '#,     ,#'  ##    ##  '#,     ,#' ,#      #,         ##   #,  ,#        
             '#######'   ##     ##  '#######'  #'      '#     #####' # '####'        



                  #######################################################
                  #                        -***-                        #
                  #          Department of theory and spectroscopy      #
                  #    Directorship and core code : Frank Neese         #
                  #        Max Planck Institute fuer Kohlenforschung    #
                  #                Kaiser Wilhelm Platz 1               #
                  #                 D-45470 Muelheim/Ruhr               #
                  #                      Germany                        #
                  #                                                     #
                  #                  All rights reserved                #
                  #                        -***-                        #
                  #######################################################


                         Program Version 5.0.4 -  RELEASE  -


 With contributions from (in alphabetic order):
   Daniel Aravena         : Magnetic Suceptibility
   Michael Atanasov       : Ab Initio Ligand Field Theory (pilot matlab implementation)
   Alexander A. Auer      : GIAO ZORA, VPT2 properties, NMR spectrum
   Ute Becker             : Parallelization
   Giovanni Bistoni       : ED, misc. LED, open-shell LED, HFLD
   Martin Brehm           : Molecular dynamics
   Dmytro Bykov           : SCF Hessian
   Vijay G. Chilkuri      : MRCI spin determinant printing, contributions to CSF-ICE
   Dipayan Datta          : RHF DLPNO-CCSD density
   Achintya Kumar Dutta   : EOM-CC, STEOM-CC
   Dmitry Ganyushin       : Spin-Orbit,Spin-Spin,Magnetic field MRCI
   Miquel Garcia          : C-PCM and meta-GGA Hessian, CC/C-PCM, Gaussian charge scheme
   Yang Guo               : DLPNO-NEVPT2, F12-NEVPT2, CIM, IAO-localization
   Andreas Hansen         : Spin unrestricted coupled pair/coupled cluster methods
   Benjamin Helmich-Paris : MC-RPA, TRAH-SCF, COSX integrals
   Lee Huntington         : MR-EOM, pCC
   Robert Izsak           : Overlap fitted RIJCOSX, COSX-SCS-MP3, EOM
   Marcus Kettner         : VPT2
   Christian Kollmar      : KDIIS, OOCD, Brueckner-CCSD(T), CCSD density, CASPT2, CASPT2-K
   Simone Kossmann        : Meta GGA functionals, TD-DFT gradient, OOMP2, MP2 Hessian
   Martin Krupicka        : Initial AUTO-CI
   Lucas Lang             : DCDCAS
   Marvin Lechner         : AUTO-CI (C++ implementation), FIC-MRCC
   Dagmar Lenk            : GEPOL surface, SMD
   Dimitrios Liakos       : Extrapolation schemes; Compound Job, initial MDCI parallelization
   Dimitrios Manganas     : Further ROCIS development; embedding schemes
   Dimitrios Pantazis     : SARC Basis sets
   Anastasios Papadopoulos: AUTO-CI, single reference methods and gradients
   Taras Petrenko         : DFT Hessian,TD-DFT gradient, ASA, ECA, R-Raman, ABS, FL, XAS/XES, NRVS
   Peter Pinski           : DLPNO-MP2, DLPNO-MP2 Gradient
   Christoph Reimann      : Effective Core Potentials
   Marius Retegan         : Local ZFS, SOC
   Christoph Riplinger    : Optimizer, TS searches, QM/MM, DLPNO-CCSD(T), (RO)-DLPNO pert. Triples
   Tobias Risthaus        : Range-separated hybrids, TD-DFT gradient, RPA, STAB
   Michael Roemelt        : Original ROCIS implementation
   Masaaki Saitow         : Open-shell DLPNO-CCSD energy and density
   Barbara Sandhoefer     : DKH picture change effects
   Avijit Sen             : IP-ROCIS
   Kantharuban Sivalingam : CASSCF convergence, NEVPT2, FIC-MRCI
   Bernardo de Souza      : ESD, SOC TD-DFT
   Georgi Stoychev        : AutoAux, RI-MP2 NMR, DLPNO-MP2 response
   Willem Van den Heuvel  : Paramagnetic NMR
   Boris Wezisla          : Elementary symmetry handling
   Frank Wennmohs         : Technical directorship


 We gratefully acknowledge several colleagues who have allowed us to
 interface, adapt or use parts of their codes:
   Stefan Grimme, W. Hujo, H. Kruse, P. Pracht,  : VdW corrections, initial TS optimization,
                  C. Bannwarth, S. Ehlert          DFT functionals, gCP, sTDA/sTD-DF
   Ed Valeev, F. Pavosevic, A. Kumar             : LibInt (2-el integral package), F12 methods
   Garnet Chan, S. Sharma, J. Yang, R. Olivares  : DMRG
   Ulf Ekstrom                                   : XCFun DFT Library
   Mihaly Kallay                                 : mrcc  (arbitrary order and MRCC methods)
   Jiri Pittner, Ondrej Demel                    : Mk-CCSD
   Frank Weinhold                                : gennbo (NPA and NBO analysis)
   Christopher J. Cramer and Donald G. Truhlar   : smd solvation model
   Lars Goerigk                                  : TD-DFT with DH, B97 family of functionals
   V. Asgeirsson, H. Jonsson                     : NEB implementation
   FAccTs GmbH                                   : IRC, NEB, NEB-TS, DLPNO-Multilevel, CI-OPT
                                                   MM, QMMM, 2- and 3-layer-ONIOM, Crystal-QMMM,
                                                   LR-CPCM, SF, NACMEs, symmetry and pop. for TD-DFT,
                                                   nearIR, NL-DFT gradient (VV10), updates on ESD,
                                                   ML-optimized integration grids
   S Lehtola, MJT Oliveira, MAL Marques          : LibXC Library
   Liviu Ungur et al                             : ANISO software


 Your calculation uses the libint2 library for the computation of 2-el integrals
 For citations please refer to: http://libint.valeyev.net

 Your ORCA version has been built with support for libXC version: 5.1.0
 For citations please refer to: https://tddft.org/programs/libxc/

 This ORCA versions uses:
   CBLAS   interface :  Fast vector & matrix operations
   LAPACKE interface :  Fast linear algebra routines
   SCALAPACK package :  Parallel linear algebra routines
   Shared memory     :  Shared parallel matrices
   BLAS/LAPACK       :  OpenBLAS 0.3.15  USE64BITINT DYNAMIC_ARCH NO_AFFINITY Sandybridge SINGLE_THREADED
        Core in use  :  Sandybridge
   Copyright (c) 2011-2014, The OpenBLAS Project


================================================================================

----- Orbital basis set information -----
Your calculation utilizes the basis: cc-pVDZ 
       H, B-Ne : Obtained from the ccRepo (grant-hill.group.shef.ac.uk/ccrepo) Feb. 2017
                 T. H. Dunning, Jr., J. Chem. Phys. 90, 1007 (1989)
            He : Obtained from the ccRepo (grant-hill.group.shef.ac.uk/ccrepo) Feb. 2017
                 D. E. Woon, T. H. Dunning, Jr., J. Chem. Phys. 100, 2975 (1994)
  Li-Be, Na-Mg : Obtained from the ccRepo (grant-hill.group.shef.ac.uk/ccrepo) Feb. 2017
                 B. P. Prascher, D. E. Woon, K. A. Peterson, T. H. Dunning, Jr., A. K. Wilson, Theor. Chem. Acc. 128, 69 (2011)
         Al-Ar : Obtained from the ccRepo (grant-hill.group.shef.ac.uk/ccrepo) Feb. 2017
                 D. E. Woon, T. H. Dunning, Jr., J. Chem. Phys. 98, 1358 (1993)
            Ca : Obtained from the Peterson Research Group Website (tyr0.chem.wsu.edu/~kipeters) Feb. 2017
                 J. Koput, K. A. Peterson, J. Phys. Chem. 106, 9595 (2002)
         Sc-Zn : Obtained from the ccRepo (grant-hill.group.shef.ac.uk/ccrepo) Feb. 2017
                 N. B. Balabanov, K. A. Peterson, J. Chem. Phys. 123, 064107 (2005)
                 N. B. Balabanov, K. A. Peterson, J. Chem. Phys. 125, 074110 (2006)
         Ga-Kr : Obtained from the ccRepo (grant-hill.group.shef.ac.uk/ccrepo) Feb. 2017
                 A. K. Wilson, D. E. Woon, K. A. Peterson, T. H. Dunning, Jr., J. Chem. Phys. 110, 7667 (1999)

================================================================================
                                        WARNINGS
                       Please study these warnings very carefully!
================================================================================


WARNING: No MP2 level density has been requested!
         To caclulate MP2 level properties use
         %mp2 Density relaxed end
         or
         %mp2 Density unrelaxed end

WARNING: Post HF methods need fully converged wavefunctions
  ===> : Setting SCFConvForced true
         You can overwrite this default with %scf ConvForced false 


INFO   : the flag for use of the SHARK integral package has been found!

================================================================================
                                       INPUT FILE
================================================================================
NAME = /scratch/allen/tmpyp4_amber_gaff2/2.Mdgx/conf11/conf11/Conf226.orca
|  1> ! PAL2
|  2> ! mp2 cc-pvdz TightSCF  NoKeepInts
|  3> 
|  4> %scf
|  5>   MaxCore 2000
|  6> end
|  7> %mp2
|  8>   MaxCore 2000
|  9> end
| 10> * xyz 0 1
| 11>    C       -4.68500         5.35000         0.88500
| 12>    C        1.47400         4.04100         0.05700
| 13>    C       -2.80200         4.09300         0.04900
| 14>    C       -2.50500         5.18700        -0.77900
| 15>    C       -3.29700         6.31600        -0.74700
| 16>    C       -5.17800         7.62600         0.11300
| 17>    C        0.13200         4.30700         0.06100
| 18>    C       -0.56900         3.05600         0.04700
| 19>    C        1.64900         2.61800         0.02300
| 20>    C       -3.91900         4.20100         0.89200
| 21>    N       -4.37100         6.38600         0.07400
| 22>    N        0.38800         2.06700         0.02500
| 23>    N       -2.01000         0.39500        -0.07500
| 24>    N       -0.38800        -2.07400        -0.02700
| 25>    N        2.01000        -0.40100         0.06500
| 26>    C       -1.96000         2.86100         0.02400
| 27>    C       -2.62300         1.61500        -0.01800
| 28>    C       -5.57300        -4.32900         1.06600
| 29>    C       -4.07300         1.47100         0.05600
| 30>    C       -4.10600        -2.75600        -0.02600
| 31>    C       -4.99500        -2.75700        -1.11100
| 32>    C       -6.13200        -3.54200        -1.07600
| 33>    C       -7.65100        -5.11300         0.04000
| 34>    C       -4.32400         0.14100         0.03700
| 35>    C       -3.02500        -0.52000        -0.04800
| 36>    C       -4.42200        -3.56600         1.07500
| 37>    N       -6.40700        -4.31300         0.00100
| 38>    C       -2.86700        -1.92200        -0.04000
| 39>    C       -1.65000        -2.62400        -0.02700
| 40>    C        3.56800        -6.14200        -1.04000
| 41>    C       -1.47600        -4.04900        -0.03400
| 42>    C        2.80300        -4.09900        -0.00800
| 43>    C        3.65700        -4.38400         1.06900
| 44>    C        4.42700        -5.53000         1.05900
| 45>    C        5.24500        -7.58800         0.01400
| 46>    C       -0.13400        -4.31500        -0.02200
| 47>    C        0.56800        -3.06400        -0.02700
| 48>    C        2.77500        -5.01200        -1.07400
| 49>    N        4.37600        -6.39100         0.01700
| 50>    C        1.95900        -2.86900        -0.00900
| 51>    C        2.62100        -1.62200         0.00900
| 52>    C        5.54300         4.33900        -1.13000
| 53>    C        4.07000        -1.47900        -0.09400
| 54>    C        4.10400         2.75100        -0.02100
| 55>    C        5.02700         2.72900         1.03600
| 56>    C        6.16600         3.50900         0.97800
| 57>    C        7.61900         5.15300        -0.11500
| 58>    C        4.32100        -0.14800        -0.09200
| 59>    C        3.02500         0.51400         0.01500
| 60>    C        4.38700         3.58200        -1.11500
| 61>    C        2.86600         1.91600         0.01300
| 62>    N        6.41300         4.29600        -0.09500
| 63>    H       -5.56100         5.47200         1.50900
| 64>    H        2.27400         4.76600         0.08100
| 65>    H       -1.65000         5.16700        -1.44500
| 66>    H       -3.10300         7.18700        -1.36000
| 67>    H       -4.72400         8.32400         0.81900
| 68>    H       -5.19900         8.06300        -0.88600
| 69>    H       -6.19000         7.37600         0.43200
| 70>    H       -0.33200         5.28200         0.06900
| 71>    H       -4.20800         3.38500         1.54500
| 72>    H        0.18200         1.07200         0.00500
| 73>    H       -0.18300        -1.08000        -0.02100
| 74>    H       -5.86400        -4.96200         1.89500
| 75>    H       -4.79400         2.27200         0.13900
| 76>    H       -4.80000        -2.16000        -1.99400
| 77>    H       -6.84100        -3.58200        -1.89300
| 78>    H       -8.42800        -4.53600         0.54600
| 79>    H       -7.95600        -5.33700        -0.98100
| 80>    H       -7.45600        -6.03700         0.58400
| 81>    H       -5.28700        -0.34400         0.10000
| 82>    H       -3.78000        -3.60100         1.94700
| 83>    H        3.58700        -6.86800        -1.84300
| 84>    H       -2.27600        -4.77400        -0.05000
| 85>    H        3.71400        -3.72400         1.92600
| 86>    H        5.09200        -5.79500         1.87100
| 87>    H        6.20500        -7.32900        -0.43900
| 88>    H        5.39300        -7.91700         1.04200
| 89>    H        4.75900        -8.37300        -0.56400
| 90>    H        0.32900        -5.29000        -0.00800
| 91>    H        2.14600        -4.84200        -1.94000
| 92>    H        5.80800         4.98600        -1.95600
| 93>    H        4.78800        -2.28100        -0.18500
| 94>    H        4.86000         2.11400         1.91200
| 95>    H        6.90100         3.53100         1.77200
| 96>    H        7.38300         6.10900         0.35600
| 97>    H        8.41400         4.65200         0.43500
| 98>    H        7.92100         5.31000        -1.15000
| 99>    H        5.28300         0.33600        -0.17900
|100>    H        3.72000         3.63200        -1.96700
|101> *
|102> 
|103>                          ****END OF INPUT****
================================================================================

                       ****************************
                       * Single Point Calculation *
                       ****************************

---------------------------------
CARTESIAN COORDINATES (ANGSTROEM)
---------------------------------
  C     -4.685000    5.350000    0.885000
  C      1.474000    4.041000    0.057000
  C     -2.802000    4.093000    0.049000
  C     -2.505000    5.187000   -0.779000
  C     -3.297000    6.316000   -0.747000
  C     -5.178000    7.626000    0.113000
  C      0.132000    4.307000    0.061000
  C     -0.569000    3.056000    0.047000
  C      1.649000    2.618000    0.023000
  C     -3.919000    4.201000    0.892000
  N     -4.371000    6.386000    0.074000
  N      0.388000    2.067000    0.025000
  N     -2.010000    0.395000   -0.075000
  N     -0.388000   -2.074000   -0.027000
  N      2.010000   -0.401000    0.065000
  C     -1.960000    2.861000    0.024000
  C     -2.623000    1.615000   -0.018000
  C     -5.573000   -4.329000    1.066000
  C     -4.073000    1.471000    0.056000
  C     -4.106000   -2.756000   -0.026000
  C     -4.995000   -2.757000   -1.111000
  C     -6.132000   -3.542000   -1.076000
  C     -7.651000   -5.113000    0.040000
  C     -4.324000    0.141000    0.037000
  C     -3.025000   -0.520000   -0.048000
  C     -4.422000   -3.566000    1.075000
  N     -6.407000   -4.313000    0.001000
  C     -2.867000   -1.922000   -0.040000
  C     -1.650000   -2.624000   -0.027000
  C      3.568000   -6.142000   -1.040000
  C     -1.476000   -4.049000   -0.034000
  C      2.803000   -4.099000   -0.008000
  C      3.657000   -4.384000    1.069000
  C      4.427000   -5.530000    1.059000
  C      5.245000   -7.588000    0.014000
  C     -0.134000   -4.315000   -0.022000
  C      0.568000   -3.064000   -0.027000
  C      2.775000   -5.012000   -1.074000
  N      4.376000   -6.391000    0.017000
  C      1.959000   -2.869000   -0.009000
  C      2.621000   -1.622000    0.009000
  C      5.543000    4.339000   -1.130000
  C      4.070000   -1.479000   -0.094000
  C      4.104000    2.751000   -0.021000
  C      5.027000    2.729000    1.036000
  C      6.166000    3.509000    0.978000
  C      7.619000    5.153000   -0.115000
  C      4.321000   -0.148000   -0.092000
  C      3.025000    0.514000    0.015000
  C      4.387000    3.582000   -1.115000
  C      2.866000    1.916000    0.013000
  N      6.413000    4.296000   -0.095000
  H     -5.561000    5.472000    1.509000
  H      2.274000    4.766000    0.081000
  H     -1.650000    5.167000   -1.445000
  H     -3.103000    7.187000   -1.360000
  H     -4.724000    8.324000    0.819000
  H     -5.199000    8.063000   -0.886000
  H     -6.190000    7.376000    0.432000
  H     -0.332000    5.282000    0.069000
  H     -4.208000    3.385000    1.545000
  H      0.182000    1.072000    0.005000
  H     -0.183000   -1.080000   -0.021000
  H     -5.864000   -4.962000    1.895000
  H     -4.794000    2.272000    0.139000
  H     -4.800000   -2.160000   -1.994000
  H     -6.841000   -3.582000   -1.893000
  H     -8.428000   -4.536000    0.546000
  H     -7.956000   -5.337000   -0.981000
  H     -7.456000   -6.037000    0.584000
  H     -5.287000   -0.344000    0.100000
  H     -3.780000   -3.601000    1.947000
  H      3.587000   -6.868000   -1.843000
  H     -2.276000   -4.774000   -0.050000
  H      3.714000   -3.724000    1.926000
  H      5.092000   -5.795000    1.871000
  H      6.205000   -7.329000   -0.439000
  H      5.393000   -7.917000    1.042000
  H      4.759000   -8.373000   -0.564000
  H      0.329000   -5.290000   -0.008000
  H      2.146000   -4.842000   -1.940000
  H      5.808000    4.986000   -1.956000
  H      4.788000   -2.281000   -0.185000
  H      4.860000    2.114000    1.912000
  H      6.901000    3.531000    1.772000
  H      7.383000    6.109000    0.356000
  H      8.414000    4.652000    0.435000
  H      7.921000    5.310000   -1.150000
  H      5.283000    0.336000   -0.179000
  H      3.720000    3.632000   -1.967000

----------------------------
CARTESIAN COORDINATES (A.U.)
----------------------------
  NO LB      ZA    FRAG     MASS         X           Y           Z
   0 C     6.0000    0    12.011   -8.853367   10.110035    1.672408
   1 C     6.0000    0    12.011    2.785456    7.636383    0.107714
   2 C     6.0000    0    12.011   -5.295013    7.734649    0.092597
   3 C     6.0000    0    12.011   -4.733764    9.802009   -1.472097
   4 C     6.0000    0    12.011   -6.230427   11.935510   -1.411625
   5 C     6.0000    0    12.011   -9.785002   14.411051    0.213539
   6 C     6.0000    0    12.011    0.249444    8.139050    0.115273
   7 C     6.0000    0    12.011   -1.075254    5.775003    0.088817
   8 C     6.0000    0    12.011    3.116158    4.947303    0.043464
   9 C     6.0000    0    12.011   -7.405837    7.938739    1.685636
  10 N     7.0000    0    14.007   -8.259993   12.067791    0.139840
  11 N     7.0000    0    14.007    0.733214    3.906064    0.047243
  12 N     7.0000    0    14.007   -3.798350    0.746442   -0.141729
  13 N     7.0000    0    14.007   -0.733214   -3.919292   -0.051023
  14 N     7.0000    0    14.007    3.798350   -0.757780    0.122832
  15 C     6.0000    0    12.011   -3.703863    5.406506    0.045353
  16 C     6.0000    0    12.011   -4.956752    3.051908   -0.034015
  17 C     6.0000    0    12.011  -10.531444   -8.180624    2.014448
  18 C     6.0000    0    12.011   -7.696855    2.779787    0.105825
  19 C     6.0000    0    12.011   -7.759216   -5.208085   -0.049133
  20 C     6.0000    0    12.011   -9.439182   -5.209975   -2.099486
  21 C     6.0000    0    12.011  -11.587801   -6.693410   -2.033345
  22 C     6.0000    0    12.011  -14.458295   -9.662170    0.075589
  23 C     6.0000    0    12.011   -8.171176    0.266451    0.069920
  24 C     6.0000    0    12.011   -5.716422   -0.982658   -0.090707
  25 C     6.0000    0    12.011   -8.356369   -6.738763    2.031456
  26 N     7.0000    0    14.007  -12.107475   -8.150389    0.001890
  27 C     6.0000    0    12.011   -5.417845   -3.632054   -0.075589
  28 C     6.0000    0    12.011   -3.118048   -4.958641   -0.051023
  29 C     6.0000    0    12.011    6.742543  -11.606698   -1.965315
  30 C     6.0000    0    12.011   -2.789236   -7.651501   -0.064251
  31 C     6.0000    0    12.011    5.296902   -7.745987   -0.015118
  32 C     6.0000    0    12.011    6.910728   -8.284559    2.020117
  33 C     6.0000    0    12.011    8.365818  -10.450186    2.001220
  34 C     6.0000    0    12.011    9.911614  -14.339242    0.026456
  35 C     6.0000    0    12.011   -0.253223   -8.154168   -0.041574
  36 C     6.0000    0    12.011    1.073364   -5.790121   -0.051023
  37 C     6.0000    0    12.011    5.243990   -9.471307   -2.029566
  38 N     7.0000    0    14.007    8.269442  -12.077240    0.032125
  39 C     6.0000    0    12.011    3.701973   -5.421624   -0.017008
  40 C     6.0000    0    12.011    4.952972   -3.065136    0.017008
  41 C     6.0000    0    12.011   10.474752    8.199522   -2.135391
  42 C     6.0000    0    12.011    7.691185   -2.794905   -0.177634
  43 C     6.0000    0    12.011    7.755436    5.198637   -0.039684
  44 C     6.0000    0    12.011    9.499653    5.157063    1.957756
  45 C     6.0000    0    12.011   11.652051    6.631049    1.848152
  46 C     6.0000    0    12.011   14.397823    9.737759   -0.217319
  47 C     6.0000    0    12.011    8.165507   -0.279679   -0.173855
  48 C     6.0000    0    12.011    5.716422    0.971319    0.028346
  49 C     6.0000    0    12.011    8.290229    6.768999   -2.107045
  50 C     6.0000    0    12.011    5.415955    3.620715    0.024566
  51 N     7.0000    0    14.007   12.118814    8.118263   -0.179524
  52 H     1.0000    0     1.008  -10.508767   10.340581    2.851597
  53 H     1.0000    0     1.008    4.297237    9.006435    0.153068
  54 H     1.0000    0     1.008   -3.118048    9.764215   -2.730654
  55 H     1.0000    0     1.008   -5.863820   13.581462   -2.570028
  56 H     1.0000    0     1.008   -8.927066   15.730080    1.547686
  57 H     1.0000    0     1.008   -9.824686   15.236862   -1.674297
  58 H     1.0000    0     1.008  -11.697405   13.938620    0.816362
  59 H     1.0000    0     1.008   -0.627389    9.981533    0.130391
  60 H     1.0000    0     1.008   -7.951968    6.396723    2.919627
  61 H     1.0000    0     1.008    0.343930    2.025786    0.009449
  62 H     1.0000    0     1.008   -0.345820   -2.040904   -0.039684
  63 H     1.0000    0     1.008  -11.081354   -9.376821    3.581031
  64 H     1.0000    0     1.008   -9.059347    4.293458    0.262672
  65 H     1.0000    0     1.008   -9.070685   -4.081808   -3.768114
  66 H     1.0000    0     1.008  -12.927616   -6.768999   -3.577252
  67 H     1.0000    0     1.008  -15.926612   -8.571798    1.031790
  68 H     1.0000    0     1.008  -15.034661  -10.085468   -1.853821
  69 H     1.0000    0     1.008  -14.089798  -11.408277    1.103600
  70 H     1.0000    0     1.008   -9.990982   -0.650066    0.188973
  71 H     1.0000    0     1.008   -7.143165   -6.804904    3.679297
  72 H     1.0000    0     1.008    6.778448  -12.978639   -3.482765
  73 H     1.0000    0     1.008   -4.301017   -9.021553   -0.094486
  74 H     1.0000    0     1.008    7.018443   -7.037340    3.639613
  75 H     1.0000    0     1.008    9.622485  -10.950963    3.535678
  76 H     1.0000    0     1.008   11.725751  -13.849803   -0.829590
  77 H     1.0000    0     1.008   10.191293  -14.960962    1.969095
  78 H     1.0000    0     1.008    8.993207  -15.822677   -1.065806
  79 H     1.0000    0     1.008    0.621720   -9.996651   -0.015118
  80 H     1.0000    0     1.008    4.055352   -9.150054   -3.666069
  81 H     1.0000    0     1.008   10.975529    9.422175   -3.696304
  82 H     1.0000    0     1.008    9.048009   -4.310465   -0.349599
  83 H     1.0000    0     1.008    9.184069    3.994881    3.613156
  84 H     1.0000    0     1.008   13.041000    6.672623    3.348595
  85 H     1.0000    0     1.008   13.951848   11.544337    0.672743
  86 H     1.0000    0     1.008   15.900156    8.791006    0.822031
  87 H     1.0000    0     1.008   14.968521   10.034446   -2.173185
  88 H     1.0000    0     1.008    9.983423    0.634948   -0.338261
  89 H     1.0000    0     1.008    7.029781    6.863485   -3.717091

--------------------------------
INTERNAL COORDINATES (ANGSTROEM)
--------------------------------
 C      0   0   0     0.000000000000     0.00000000     0.00000000
 C      1   0   0     6.350775228269     0.00000000     0.00000000
 C      1   2   0     2.413427852661    24.60870155     0.00000000
 C      3   1   2     1.403790938851    87.90758124   291.81563566
 C      4   3   1     1.379466926026   120.17659835     0.12963320
 C      5   4   3     2.448236303954   152.52186527     1.69388357
 C      2   1   3     1.368114030335     7.36586748    50.34916380
 C      7   2   4     1.434084376876   108.05010202   111.81207181
 C      2   1   3     1.434123425651   109.02312739   325.35405373
 C      1   2   7     1.380943880105    44.86432642    91.85803488
 N      1   2   7     1.352631878968    81.63762863   300.13863524
 N      9   2   1     1.376127174356   106.58526707     6.96481791
 N     12   9   2     2.925062050624   168.53581413   171.12065651
 N     13  12   9     2.954513327098    91.55032014    11.12112580
 N     14  13  12     2.925371258490    88.43092389   359.84326247
 C      8   7   2     1.404790019896   127.24786865   181.11170171
 C     13  12   9     1.366535034311    81.72106996   188.00453233
 C     14  13  12     5.758810554272    80.56209567   166.76250791
 C     17  13  12     1.459010623676   111.08861209   183.82872609
 C     18  14  13     2.412235892279    27.27532823    36.33507194
 C     20  18  14     1.402692767501    87.95206320   148.94598259
 C     21  20  18     1.382106725257   120.14573887   359.70382047
 C     18  14  13     2.446510985056   144.15733107    82.80075377
 C     19  17  13     1.353610726908   106.29293361   359.75308708
 C     13  12   9     1.366813447402   172.21332906    33.46711076
 C     18  14  13     1.380960173213    15.08449437   309.23336894
 N     22  21  20     1.352773077792   120.73759875     0.27865223
 C     25  13  17     1.410897586645   125.60330303   182.37774668
 C     14  13  12     1.376642291955    80.24689249   177.85461986
 C     14  13  12     5.764089607215   164.51507311   312.20821879
 C     29  14  13     1.435600919476   106.58649366   178.76395472
 C     30  14  13     2.413316804732    27.10625047    82.12560436
 C     32  30  14     1.403734305344    87.90059683   149.76154742
 C     33  32  30     1.380694028378   120.14881443   359.74174632
 C     34  33  32     2.448777858443   152.49203239     2.45173620
 C     31  29  14     1.368160809262   108.16950133     0.70383075
 C     14  13  12     1.376239804685   169.26375223   353.09862627
 C     30  14  13     1.380907310430    14.68948582   353.70041132
 N     34  33  32     1.352658863128   120.85575621     0.19603406
 C     37  14  29     1.404717053360   126.01551127   180.90772073
 C     15  14  13     1.366491126938    81.61824056   183.09049352
 C      2   1   3     4.249062720177   161.92878026   116.15058301
 C     41  15  14     1.459677704153   111.05201287   175.08990246
 C     42   2   1     2.412953791518    41.78584867   183.86790937
 C     44  42   2     1.403446472082    87.95153797   233.97558675
 C     45  44  42     1.381696421071   120.11137308     0.19721020
 C     42   2   1     2.450019795838   135.97209175    94.18275847
 C     43  41  15     1.354461516618   106.26758155     0.30894352
 C     15  14  13     1.367461151185   171.87382904   332.35056460
 C     42   2   1     1.381886391857    32.59078432   232.72318856
 C      9   2   1     1.404988612053   126.98745415   187.96915544
 N     42   2   1     1.352765315936   113.57249190   121.91934766
 H      1   2   7     1.082421359730   152.03699691   166.74149427
 H      2   1   3     1.079907866440   125.25097977   153.41708739
 H      4   3   1     1.083965405352   120.99076435   179.54406658
 H      5   4   3     1.082610733366   122.84994831   179.45928119
 H      6   5   4     1.091675776043   104.46413817   100.04515416
 H      6   5   4     1.090601210342    84.68847103   209.49739646
 H      6   5   4     1.090139899279   133.89338437   322.28207529
 H      7   2  54     1.079807853278   126.66122480     1.30600390
 H     10   1   2     1.084336663587   118.77376788   147.76982065
 H     12   9   2     1.016297692608   125.29023241   180.00180175
 H     14  13  12     1.014936943854    44.97226959   359.42596618
 H     18  14  13     1.082871645210   128.03556573   234.20482432
 H     19  17  13     1.080893611786   126.41830519   178.11313280
 H     21  20  18     1.083569563987   121.05669627   180.67006309
 H     22  21  20     1.082483256222   122.73097286   180.59748951
 H     23  18  14     1.092105306278   103.92715769   234.93429879
 H     23  18  14     1.088871893291   134.19244188    12.25587044
 H     23  18  14     1.089833473518    84.85857450   125.45241208
 H     24  19  17     1.080075460327   127.28078426   178.44613241
 H     26  18  14     1.083408048706   118.76995697   244.94906660
 H     30  14  13     1.082703098730   127.99711412   279.66882698
 H     31  29  14     1.079759695488   125.22293469   180.92530585
 H     33  32  30     1.083188810873   121.01964473   180.74284758
 H     34  33  32     1.082494341787   122.70821597   180.59516895
 H     35  34  33     1.092652735319   105.73575241    97.19771933
 H     35  34  33     1.089462711615    84.05943581   206.43036958
 H     35  34  33     1.089268102902   133.08365142   318.50306270
 H     36  31  29     1.079439669458   126.61599965   178.98859863
 H     38  30  73     1.083742127999   118.77264435   359.90091293
 H     42   2   1     1.082178358682   119.31790784   338.55087812
 H     43  41  15     1.080281907652   126.36969097   182.06329380
 H     45  44  42     1.083277434455   121.10105945   179.58025624
 H     46  45  44     1.082194529648   122.72144639   179.46906377
 H     47  42   2     1.091546151109   106.65128841   315.16475048
 H     47  42   2     1.088818625851   132.46019523    94.52397119
 H     47  42   2     1.089531091801    83.63838232   206.04504406
 H     48  43  41     1.080402239909   127.23657387   181.62955349
 H     50  42   2     1.083186502870   118.77001737    94.71359229

---------------------------
INTERNAL COORDINATES (A.U.)
---------------------------
 C      0   0   0     0.000000000000     0.00000000     0.00000000
 C      1   0   0    12.001225919520     0.00000000     0.00000000
 C      1   2   0     4.560717685507    24.60870155     0.00000000
 C      3   1   2     2.652780423708    87.90758124   291.81563566
 C      4   3   1     2.606814700992   120.17659835     0.12963320
 C      5   4   3     4.626496125597   152.52186527     1.69388357
 C      2   1   3     2.585360837309     7.36586748    50.34916380
 C      7   2   4     2.710026725231   108.05010202   111.81207181
 C      2   1   3     2.710100516721   109.02312739   325.35405373
 C      1   2   7     2.609605739713    44.86432642    91.85803488
 N      1   2   7     2.556103811260    81.63762863   300.13863524
 N      9   2   1     2.600503484979   106.58526707     6.96481791
 N     12   9   2     5.527566200405   168.53581413   171.12065651
 N     13  12   9     5.583221047236    91.55032014    11.12112580
 N     14  13  12     5.528150518591    88.43092389   359.84326247
 C      8   7   2     2.654668413270   127.24786865   181.11170171
 C     13  12   9     2.582376967257    81.72106996   188.00453233
 C     14  13  12    10.882574804710    80.56209567   166.76250791
 C     17  13  12     2.757130505230   111.08861209   183.82872609
 C     18  14  13     4.558465206823    27.27532823    36.33507194
 C     20  18  14     2.650705180609    87.95206320   148.94598259
 C     21  20  18     2.611803198586   120.14573887   359.70382047
 C     18  14  13     4.623235745386   144.15733107    82.80075377
 C     19  17  13     2.557953565794   106.29293361   359.75308708
 C     13  12   9     2.582903091751   172.21332906    33.46711076
 C     18  14  13     2.609636529225    15.08449437   309.23336894
 N     22  21  20     2.556370638369   120.73759875     0.27865223
 C     25  13  17     2.666210041769   125.60330303   182.37774668
 C     14  13  12     2.601476916169    80.24689249   177.85461986
 C     14  13  12    10.892550769017   164.51507311   312.20821879
 C     29  14  13     2.712892575415   106.58649366   178.76395472
 C     30  14  13     4.560507835333    27.10625047    82.12560436
 C     32  30  14     2.652673401891    87.90059683   149.76154742
 C     33  32  30     2.609133588376   120.14881443   359.74174632
 C     34  33  32     4.627519515267   152.49203239     2.45173620
 C     31  29  14     2.585449236669   108.16950133     0.70383075
 C     14  13  12     2.600716325456   169.26375223   353.09862627
 C     30  14  13     2.609536633043    14.68948582   353.70041132
 N     34  33  32     2.556154803934   120.85575621     0.19603406
 C     37  14  29     2.654530526499   126.01551127   180.90772073
 C     15  14  13     2.582293994346    81.61824056   183.09049352
 C      2   1   3     8.029564866989   161.92878026   116.15058301
 C     41  15  14     2.758391104639   111.05201287   175.08990246
 C     42   2   1     4.559821839776    41.78584867   183.86790937
 C     44  42   2     2.652129475853    87.95153797   233.97558675
 C     45  44  42     2.611027836043   120.11137308     0.19721020
 C     42   2   1     4.629866436820   135.97209175    94.18275847
 C     43  41  15     2.559561325344   106.26758155     0.30894352
 C     15  14  13     2.584127074516   171.87382904   332.35056460
 C     42   2   1     2.611386828803    32.59078432   232.72318856
 C      9   2   1     2.655043698059   126.98745415   187.96915544
 N     42   2   1     2.556355970587   113.57249190   121.91934766
 H      1   2   7     2.045479931397   152.03699691   166.74149427
 H      2   1   3     2.040730117440   125.25097977   153.41708739
 H      4   3   1     2.048397754760   120.99076435   179.54406658
 H      5   4   3     2.045837795706   122.84994831   179.45928119
 H      6   5   4     2.062968243758   104.46413817   100.04515416
 H      6   5   4     2.060937608870    84.68847103   209.49739646
 H      6   5   4     2.060065857298   133.89338437   322.28207529
 H      7   2  54     2.040541119952   126.66122480     1.30600390
 H     10   1   2     2.049099331150   118.77376788   147.76982065
 H     12   9   2     1.920524309565   125.29023241   180.00180175
 H     14  13  12     1.917952867083    44.97226959   359.42596618
 H     18  14  13     2.046330847636   128.03556573   234.20482432
 H     19  17  13     2.042592906181   126.41830519   178.11313280
 H     21  20  18     2.047649722989   121.05669627   180.67006309
 H     22  21  20     2.045596898814   122.73097286   180.59748951
 H     23  18  14     2.063779938267   103.92715769   234.93429879
 H     23  18  14     2.057669673245   134.19244188    12.25587044
 H     23  18  14     2.059486796529    84.85857450   125.45241208
 H     24  19  17     2.041046823986   127.28078426   178.44613241
 H     26  18  14     2.047344503340   118.76995697   244.94906660
 H     30  14  13     2.046012340948   127.99711412   279.66882698
 H     31  29  14     2.040450114918   125.22293469   180.92530585
 H     33  32  30     2.046930203877   121.01964473   180.74284758
 H     34  33  32     2.045617847496   122.70821597   180.59516895
 H     35  34  33     2.064814429233   105.73575241    97.19771933
 H     35  34  33     2.058786158072    84.05943581   206.43036958
 H     35  34  33     2.058418400901   133.08365142   318.50306270
 H     36  31  29     2.039845353366   126.61599965   178.98859863
 H     38  30  73     2.047975821711   118.77264435   359.90091293
 H     42   2   1     2.045020725966   119.31790784   338.55087812
 H     43  41  15     2.041436952892   126.36969097   182.06329380
 H     45  44  42     2.047097678177   121.10105945   179.58025624
 H     46  45  44     2.045051284662   122.72144639   179.46906377
 H     47  42   2     2.062723288131   106.65128841   315.16475048
 H     47  42   2     2.057569012371   132.46019523    94.52397119
 H     47  42   2     2.058915377895    83.63838232   206.04504406
 H     48  43  41     2.041664347903   127.23657387   181.62955349
 H     50  42   2     2.046925842384   118.77001737    94.71359229

---------------------
BASIS SET INFORMATION
---------------------
There are 3 groups of distinct atoms

 Group   1 Type C   : 17s4p1d contracted to 3s2p1d pattern {881/31/1}
 Group   2 Type N   : 17s4p1d contracted to 3s2p1d pattern {881/31/1}
 Group   3 Type H   : 4s1p contracted to 2s1p pattern {31/1}

Atom   0C    basis set group =>   1
Atom   1N    basis set group =>   2
Atom   2C    basis set group =>   1
Atom   3N    basis set group =>   2
Atom   4C    basis set group =>   1
Atom   5N    basis set group =>   2
Atom   6C    basis set group =>   1
Atom   7N    basis set group =>   2
Atom   8C    basis set group =>   1
Atom   9N    basis set group =>   2
Atom  10C    basis set group =>   1
Atom  11N    basis set group =>   2
Atom  12C    basis set group =>   1
Atom  13N    basis set group =>   2
Atom  14C    basis set group =>   1
Atom  15N    basis set group =>   2
Atom  16C    basis set group =>   1
Atom  17C    basis set group =>   1
Atom  18C    basis set group =>   1
Atom  19C    basis set group =>   1
Atom  20C    basis set group =>   1
Atom  21C    basis set group =>   1
Atom  22C    basis set group =>   1
Atom  23C    basis set group =>   1
Atom  24C    basis set group =>   1
Atom  25C    basis set group =>   1
Atom  26C    basis set group =>   1
Atom  27C    basis set group =>   1
Atom  28C    basis set group =>   1
Atom  29C    basis set group =>   1
Atom  30C    basis set group =>   1
Atom  31C    basis set group =>   1
Atom  32C    basis set group =>   1
Atom  33C    basis set group =>   1
Atom  34C    basis set group =>   1
Atom  35C    basis set group =>   1
Atom  36C    basis set group =>   1
Atom  37C    basis set group =>   1
Atom  38C    basis set group =>   1
Atom  39C    basis set group =>   1
Atom  40C    basis set group =>   1
Atom  41C    basis set group =>   1
Atom  42C    basis set group =>   1
Atom  43C    basis set group =>   1
Atom  44C    basis set group =>   1
Atom  45C    basis set group =>   1
Atom  46C    basis set group =>   1
Atom  47C    basis set group =>   1
Atom  48C    basis set group =>   1
Atom  49C    basis set group =>   1
Atom  50C    basis set group =>   1
Atom  51C    basis set group =>   1
Atom  52H    basis set group =>   3
Atom  53H    basis set group =>   3
Atom  54H    basis set group =>   3
Atom  55H    basis set group =>   3
Atom  56H    basis set group =>   3
Atom  57H    basis set group =>   3
Atom  58H    basis set group =>   3
Atom  59H    basis set group =>   3
Atom  60H    basis set group =>   3
Atom  61H    basis set group =>   3
Atom  62H    basis set group =>   3
Atom  63H    basis set group =>   3
Atom  64H    basis set group =>   3
Atom  65H    basis set group =>   3
Atom  66H    basis set group =>   3
Atom  67H    basis set group =>   3
Atom  68H    basis set group =>   3
Atom  69H    basis set group =>   3
Atom  70H    basis set group =>   3
Atom  71H    basis set group =>   3
Atom  72H    basis set group =>   3
Atom  73H    basis set group =>   3
Atom  74H    basis set group =>   3
Atom  75H    basis set group =>   3
Atom  76H    basis set group =>   3
Atom  77H    basis set group =>   3
Atom  78H    basis set group =>   3
Atom  79H    basis set group =>   3
Atom  80H    basis set group =>   3
Atom  81H    basis set group =>   3
Atom  82H    basis set group =>   3
Atom  83H    basis set group =>   3
Atom  84H    basis set group =>   3
Atom  85H    basis set group =>   3
Atom  86H    basis set group =>   3
Atom  87H    basis set group =>   3
Atom  88H    basis set group =>   3
Atom  89H    basis set group =>   3


           ************************************************************
           *        Program running with 16 parallel MPI-processes    *
           *              working on a common directory               *
           ************************************************************
------------------------------------------------------------------------------
                           ORCA GTO INTEGRAL CALCULATION
------------------------------------------------------------------------------
------------------------------------------------------------------------------
                   ___                                                        
                  /   \      - P O W E R E D   B Y -                         
                 /     \                                                     
                 |  |  |   _    _      __       _____    __    __             
                 |  |  |  | |  | |    /  \     |  _  \  |  |  /  |          
                  \  \/   | |  | |   /    \    | | | |  |  | /  /          
                 / \  \   | |__| |  /  /\  \   | |_| |  |  |/  /          
                |  |  |   |  __  | /  /__\  \  |    /   |      \           
                |  |  |   | |  | | |   __   |  |    \   |  |\   \          
                \     /   | |  | | |  |  |  |  | |\  \  |  | \   \       
                 \___/    |_|  |_| |__|  |__|  |_| \__\ |__|  \__/        
                                                                              
                      - O R C A' S   B I G   F R I E N D -                    
                                      &                                       
                       - I N T E G R A L  F E E D E R -                       
                                                                              
 v1 FN, 2020, v2 2021                                                         
------------------------------------------------------------------------------


Reading SHARK input file /scratch/allen/tmpyp4_amber_gaff2/conf1/conf1/Conf226.orca.SHARKINP.tmp ... ok
----------------------
SHARK INTEGRAL PACKAGE
----------------------

Number of atoms                             ...     90
Number of basis functions                   ...   1230
Number of shells                            ...    738
Maximum angular momentum                    ...      2
Integral batch strategy                     ... SHARK/LIBINT Hybrid
RI-J (if used) integral strategy            ... SPLIT-RIJ (Revised 2003 algorithm where possible)
Printlevel                                  ...      1
Contraction scheme used                     ... PARTIAL GENERAL contraction
Coulomb Range Separation                    ... NOT USED
Exchange Range Separation                   ... NOT USED
Finite Nucleus Model                        ... NOT USED
Auxiliary Coulomb fitting basis             ... NOT available
Auxiliary J/K fitting basis                 ... NOT available
Auxiliary Correlation fitting basis         ... NOT available
Auxiliary 'external' fitting basis          ... NOT available
Integral threshold                          ...     2.500000e-11
Primitive cut-off                           ...     2.500000e-12
Primitive pair pre-selection threshold      ...     2.500000e-12

Calculating pre-screening integrals         ... done (  0.1 sec) Dimension = 738
Calculating pre-screening integrals (ORCA)  ... done (  0.3 sec) Dimension = 426
Organizing shell pair data                  ... done (  0.7 sec)
Shell pair information
Total number of shell pairs                 ...    272691
Shell pairs after pre-screening             ...     71629
Total number of primitive shell pairs       ...    422091
Primitive shell pairs kept                  ...     92420
          la=0 lb=0:  29415 shell pairs
          la=1 lb=0:  25978 shell pairs
          la=1 lb=1:   4708 shell pairs
          la=2 lb=0:   7876 shell pairs
          la=2 lb=1:   3122 shell pairs
          la=2 lb=2:    530 shell pairs

Calculating one electron integrals          ... done (  0.2 sec)
Calculating Nuclear repulsion               ... done (  0.0 sec) ENN=   6228.120661973155 Eh

SHARK setup successfully completed in   2.5 seconds

Maximum memory used throughout the entire GTOINT-calculation: 99.0 MB


           ************************************************************
           *        Program running with 16 parallel MPI-processes    *
           *              working on a common directory               *
           ************************************************************
-------------------------------------------------------------------------------
                                 ORCA SCF
-------------------------------------------------------------------------------

------------
SCF SETTINGS
------------
Hamiltonian:
 Ab initio Hamiltonian  Method          .... Hartree-Fock(GTOs)


General Settings:
 Integral files         IntName         .... /scratch/allen/tmpyp4_amber_gaff2/conf1/conf1/Conf226.orca
 Hartree-Fock type      HFTyp           .... RHF
 Total Charge           Charge          ....    0
 Multiplicity           Mult            ....    1
 Number of Electrons    NEL             ....  358
 Basis Dimension        Dim             ....  918
 Nuclear Repulsion      ENuc            ....   6228.1206619732 Eh

Convergence Acceleration:
 DIIS                   CNVDIIS         .... on
   Start iteration      DIISMaxIt       ....    12
   Startup error        DIISStart       ....  0.200000
   # of expansion vecs  DIISMaxEq       ....     5
   Bias factor          DIISBfac        ....   1.050
   Max. coefficient     DIISMaxC        ....  10.000
 Trust-Rad. Augm. Hess. CNVTRAH         .... auto
   Auto Start mean grad. ratio tolernc. ....  1.125000
   Auto Start start iteration           ....    20
   Auto Start num. interpolation iter.  ....    10
   Max. Number of Micro iterations      ....    16
   Max. Number of Macro iterations      .... Maxiter - #DIIS iter
   Number of Davidson start vectors     ....     2
   Converg. threshold I  (grad. norm)   ....   1.000e-05
   Converg. threshold II (energy diff.) ....   1.000e-08
   Grad. Scal. Fac. for Micro threshold ....   0.100
   Minimum threshold for Micro iter.    ....   0.010
   NR start threshold (gradient norm)   ....   0.001
   Initial trust radius                 ....   0.400
   Minimum AH scaling param. (alpha)    ....   1.000
   Maximum AH scaling param. (alpha)    .... 1000.000
   Orbital update algorithm             .... Taylor
   White noise on init. David. guess    .... on
   Maximum white noise                  ....   0.010
   Quad. conv. algorithm                .... NR
 SOSCF                  CNVSOSCF        .... on
   Start iteration      SOSCFMaxIt      ....   150
   Startup grad/error   SOSCFStart      ....  0.003300
 Level Shifting         CNVShift        .... on
   Level shift para.    LevelShift      ....    0.2500
   Turn off err/grad.   ShiftErr        ....    0.0010
 Zerner damping         CNVZerner       .... off
 Static damping         CNVDamp         .... on
   Fraction old density DampFac         ....    0.7000
   Max. Damping (<1)    DampMax         ....    0.9800
   Min. Damping (>=0)   DampMin         ....    0.0000
   Turn off err/grad.   DampErr         ....    0.1000
 Fernandez-Rico         CNVRico         .... off

SCF Procedure:
 Maximum # iterations   MaxIter         ....   125
 SCF integral mode      SCFMode         .... Direct
   Integral package                     .... SHARK and LIBINT hybrid scheme
 Reset frequency        DirectResetFreq ....    20
 Integral Threshold     Thresh          ....  2.500e-11 Eh
 Primitive CutOff       TCut            ....  2.500e-12 Eh

Convergence Tolerance:
 Convergence Check Mode ConvCheckMode   .... Total+1el-Energy
 Convergence forced     ConvForced      .... 1
 Energy Change          TolE            ....  1.000e-08 Eh
 1-El. energy change                    ....  1.000e-05 Eh
 Orbital Gradient       TolG            ....  1.000e-05
 Orbital Rotation angle TolX            ....  1.000e-05
 DIIS Error             TolErr          ....  5.000e-07


Diagonalization of the overlap matrix:
Smallest eigenvalue                        ... 2.231e-04
Time for diagonalization                   ...    0.476 sec
Threshold for overlap eigenvalues          ... 1.000e-08
Number of eigenvalues below threshold      ... 0
Time for construction of square roots      ...    0.269 sec
Total time needed                          ...    0.751 sec

Time for model grid setup =    1.332 sec

------------------------------
INITIAL GUESS: MODEL POTENTIAL
------------------------------
Loading Hartree-Fock densities                     ... done
Calculating cut-offs                               ... done
Initializing the effective Hamiltonian             ... done
Setting up the integral package (SHARK)            ... done
Starting the Coulomb interaction                   ... done (   1.4 sec)
Reading the grid                                   ... done
Mapping shells                                     ... done
Starting the XC term evaluation                    ... done (   0.2 sec)
Transforming the Hamiltonian                       ... done (   0.3 sec)
Diagonalizing the Hamiltonian                      ... done (   0.4 sec)
Back transforming the eigenvectors                 ... done (   0.1 sec)
Now organizing SCF variables                       ... done
                      ------------------
                      INITIAL GUESS DONE (   3.8 sec)
                      ------------------
--------------
SCF ITERATIONS
--------------
ITER       Energy         Delta-E        Max-DP      RMS-DP      [F,P]     Damp
               ***  Starting incremental Fock matrix formation  ***
  0  -2121.6851582771   0.000000000000 0.06876641  0.00121165  0.2326358 0.7000
  1  -2122.3455705074  -0.660412230252 0.05213511  0.00098477  0.1440040 0.7000
                               ***Turning on DIIS***
  2  -2122.7558111121  -0.410240604684 0.11572965  0.00223265  0.0802332 0.0000
  3  -2117.8229488984   4.932862213709 0.03062406  0.00067923  0.0441075 0.0000
  4  -2123.4218634934  -5.598914595083 0.00983175  0.00022760  0.0071519 0.0000
  5  -2123.5923587971  -0.170495303677 0.00526065  0.00013420  0.0049630 0.0000
  6  -2123.5757679167   0.016590880457 0.00349143  0.00008649  0.0019801 0.0000
  7  -2123.6777754239  -0.102007507228 0.00294966  0.00006796  0.0015344 0.0000
  8  -2123.6924350690  -0.014659645098 0.00301686  0.00006366  0.0014306 0.0000
  9  -2123.6591178550   0.033317213960 0.00241044  0.00004362  0.0011374 0.0000
 10  -2123.6708559602  -0.011738105177 0.00489078  0.00008746  0.0008735 0.0000
                      *** Initiating the SOSCF procedure ***
                           *** Shutting down DIIS ***
                      *** Re-Reading the Fockian *** 
                      *** Removing any level shift *** 
ITER      Energy       Delta-E        Grad      Rot      Max-DP    RMS-DP
 11  -2123.55790028   0.1129556836  0.000252  0.000252  0.000259  0.000006
               *** Restarting incremental Fock matrix formation ***
 12  -2123.62338617  -0.0654858952  0.000901  0.006074  0.001173  0.000030
 13  -2123.62346617  -0.0000799981  0.001026  0.027987  0.005442  0.000112
 14  -2123.62359183  -0.0001256620  0.000411  0.001863  0.000550  0.000011
 15  -2123.62360674  -0.0000149046  0.000178  0.003513  0.000997  0.000018
 16  -2123.62361620  -0.0000094661  0.000159  0.004181  0.000688  0.000015
 17  -2123.62362063  -0.0000044230  0.000159  0.002842  0.000394  0.000010
 18  -2123.62362296  -0.0000023309  0.000078  0.001442  0.000296  0.000006
 19  -2123.62362410  -0.0000011409  0.000058  0.000634  0.000170  0.000003
 20  -2123.62362445  -0.0000003519  0.000026  0.000457  0.000123  0.000002
 21  -2123.62362464  -0.0000001900  0.000026  0.000365  0.000091  0.000002
 22  -2123.62362475  -0.0000001096  0.000018  0.000511  0.000117  0.000002
 23  -2123.62362482  -0.0000000731  0.000011  0.000245  0.000048  0.000001
 24  -2123.62362485  -0.0000000277  0.000006  0.000190  0.000039  0.000001
 25  -2123.62362487  -0.0000000189  0.000006  0.000118  0.000024  0.000000
 26  -2123.62362488  -0.0000000093  0.000004  0.000121  0.000019  0.000000
                 **** Energy Check signals convergence ****
              ***Rediagonalizing the Fockian in SOSCF/NRSCF***

               *****************************************************
               *                     SUCCESS                       *
               *           SCF CONVERGED AFTER  27 CYCLES          *
               *****************************************************


----------------
TOTAL SCF ENERGY
----------------

Total Energy       :        -2123.62362489 Eh          -57786.73665 eV

Components:
Nuclear Repulsion  :         6228.12066197 Eh          169475.77919 eV
Electronic Energy  :        -8351.74428686 Eh         -227262.51585 eV
One Electron Energy:       -15297.17698879 Eh         -416257.34798 eV
Two Electron Energy:         6945.43270193 Eh          188994.83213 eV

Virial components:
Potential Energy   :        -4245.68427646 Eh         -115530.94264 eV
Kinetic Energy     :         2122.06065157 Eh           57744.20599 eV
Virial Ratio       :            2.00073654


---------------
SCF CONVERGENCE
---------------

  Last Energy change         ...   -7.8689e-09  Tolerance :   1.0000e-08
  Last MAX-Density change    ...    1.8899e-05  Tolerance :   1.0000e-07
  Last RMS-Density change    ...    4.6931e-07  Tolerance :   5.0000e-09
  Last Orbital Gradient      ...    3.2061e-06  Tolerance :   1.0000e-05
  Last Orbital Rotation      ...    1.3322e-04  Tolerance :   1.0000e-05

             **** THE GBW FILE WAS UPDATED (/scratch/allen/tmpyp4_amber_gaff2/conf1/conf1/Conf226.orca.gbw) ****
             **** DENSITY /scratch/allen/tmpyp4_amber_gaff2/conf1/conf1/Conf226.orca.scfp WAS UPDATED ****
             **** ENERGY FILE WAS UPDATED (/scratch/allen/tmpyp4_amber_gaff2/conf1/conf1/Conf226.orca.en.tmp) ****
             **** THE GBW FILE WAS UPDATED (/scratch/allen/tmpyp4_amber_gaff2/conf1/conf1/Conf226.orca.gbw) ****
             **** DENSITY /scratch/allen/tmpyp4_amber_gaff2/conf1/conf1/Conf226.orca.scfp WAS UPDATED ****
----------------
ORBITAL ENERGIES
----------------

  NO   OCC          E(Eh)            E(eV) 
   0   2.0000     -15.659086      -426.1054 
   1   2.0000     -15.637021      -425.5050 
   2   2.0000     -15.629778      -425.3079 
   3   2.0000     -15.603382      -424.5896 
   4   2.0000     -15.522566      -422.3905 
   5   2.0000     -15.516363      -422.2217 
   6   2.0000     -15.449047      -420.3899 
   7   2.0000     -15.442914      -420.2230 
   8   2.0000     -11.315121      -307.9001 
   9   2.0000     -11.312505      -307.8289 
  10   2.0000     -11.310515      -307.7748 
  11   2.0000     -11.301192      -307.5211 
  12   2.0000     -11.296903      -307.4044 
  13   2.0000     -11.294378      -307.3357 
  14   2.0000     -11.290345      -307.2259 
  15   2.0000     -11.288121      -307.1654 
  16   2.0000     -11.285721      -307.1001 
  17   2.0000     -11.281260      -306.9787 
  18   2.0000     -11.266641      -306.5809 
  19   2.0000     -11.265902      -306.5608 
  20   2.0000     -11.262547      -306.4695 
  21   2.0000     -11.248739      -306.0938 
  22   2.0000     -11.247824      -306.0689 
  23   2.0000     -11.240472      -305.8688 
  24   2.0000     -11.234438      -305.7046 
  25   2.0000     -11.233255      -305.6724 
  26   2.0000     -11.232469      -305.6510 
  27   2.0000     -11.228000      -305.5294 
  28   2.0000     -11.227878      -305.5261 
  29   2.0000     -11.212644      -305.1116 
  30   2.0000     -11.207859      -304.9813 
  31   2.0000     -11.206079      -304.9329 
  32   2.0000     -11.205984      -304.9303 
  33   2.0000     -11.205132      -304.9071 
  34   2.0000     -11.191742      -304.5428 
  35   2.0000     -11.191219      -304.5286 
  36   2.0000     -11.181936      -304.2759 
  37   2.0000     -11.179909      -304.2208 
  38   2.0000     -11.179295      -304.2041 
  39   2.0000     -11.172743      -304.0258 
  40   2.0000     -11.168773      -303.9178 
  41   2.0000     -11.167055      -303.8710 
  42   2.0000     -11.165453      -303.8274 
  43   2.0000     -11.164021      -303.7885 
  44   2.0000     -11.163902      -303.7852 
  45   2.0000     -11.162070      -303.7354 
  46   2.0000     -11.152556      -303.4765 
  47   2.0000     -11.150292      -303.4149 
  48   2.0000     -11.149090      -303.3822 
  49   2.0000     -11.145900      -303.2954 
  50   2.0000     -11.137405      -303.0642 
  51   2.0000     -11.131570      -302.9054 
  52   2.0000      -1.342746       -36.5380 
  53   2.0000      -1.323813       -36.0228 
  54   2.0000      -1.317716       -35.8569 
  55   2.0000      -1.295801       -35.2605 
  56   2.0000      -1.222212       -33.2581 
  57   2.0000      -1.211616       -32.9697 
  58   2.0000      -1.166834       -31.7512 
  59   2.0000      -1.155066       -31.4310 
  60   2.0000      -1.128725       -30.7142 
  61   2.0000      -1.112213       -30.2649 
  62   2.0000      -1.107175       -30.1278 
  63   2.0000      -1.089713       -29.6526 
  64   2.0000      -1.065676       -28.9985 
  65   2.0000      -1.047807       -28.5123 
  66   2.0000      -1.042418       -28.3656 
  67   2.0000      -1.031890       -28.0792 
  68   2.0000      -1.023262       -27.8444 
  69   2.0000      -1.012881       -27.5619 
  70   2.0000      -1.009735       -27.4763 
  71   2.0000      -0.993636       -27.0382 
  72   2.0000      -0.986451       -26.8427 
  73   2.0000      -0.975317       -26.5397 
  74   2.0000      -0.973312       -26.4852 
  75   2.0000      -0.959400       -26.1066 
  76   2.0000      -0.950766       -25.8717 
  77   2.0000      -0.947969       -25.7955 
  78   2.0000      -0.937258       -25.5041 
  79   2.0000      -0.922120       -25.0922 
  80   2.0000      -0.897848       -24.4317 
  81   2.0000      -0.888816       -24.1859 
  82   2.0000      -0.875051       -23.8114 
  83   2.0000      -0.870112       -23.6770 
  84   2.0000      -0.864046       -23.5119 
  85   2.0000      -0.855480       -23.2788 
  86   2.0000      -0.846755       -23.0414 
  87   2.0000      -0.839314       -22.8389 
  88   2.0000      -0.822411       -22.3789 
  89   2.0000      -0.798738       -21.7348 
  90   2.0000      -0.795763       -21.6538 
  91   2.0000      -0.743040       -20.2191 
  92   2.0000      -0.736373       -20.0377 
  93   2.0000      -0.730990       -19.8913 
  94   2.0000      -0.722338       -19.6558 
  95   2.0000      -0.720527       -19.6065 
  96   2.0000      -0.713442       -19.4137 
  97   2.0000      -0.706361       -19.2211 
  98   2.0000      -0.701701       -19.0942 
  99   2.0000      -0.695405       -18.9229 
 100   2.0000      -0.692337       -18.8395 
 101   2.0000      -0.681526       -18.5453 
 102   2.0000      -0.678785       -18.4707 
 103   2.0000      -0.675102       -18.3704 
 104   2.0000      -0.671412       -18.2701 
 105   2.0000      -0.670677       -18.2500 
 106   2.0000      -0.663587       -18.0571 
 107   2.0000      -0.662751       -18.0344 
 108   2.0000      -0.655829       -17.8460 
 109   2.0000      -0.654434       -17.8081 
 110   2.0000      -0.651076       -17.7167 
 111   2.0000      -0.648275       -17.6405 
 112   2.0000      -0.643928       -17.5222 
 113   2.0000      -0.637129       -17.3372 
 114   2.0000      -0.633037       -17.2258 
 115   2.0000      -0.631041       -17.1715 
 116   2.0000      -0.624746       -17.0002 
 117   2.0000      -0.614971       -16.7342 
 118   2.0000      -0.614279       -16.7154 
 119   2.0000      -0.610981       -16.6256 
 120   2.0000      -0.609629       -16.5888 
 121   2.0000      -0.602151       -16.3854 
 122   2.0000      -0.598057       -16.2740 
 123   2.0000      -0.591069       -16.0838 
 124   2.0000      -0.588322       -16.0090 
 125   2.0000      -0.583330       -15.8732 
 126   2.0000      -0.579223       -15.7615 
 127   2.0000      -0.575993       -15.6736 
 128   2.0000      -0.563963       -15.3462 
 129   2.0000      -0.558648       -15.2016 
 130   2.0000      -0.554376       -15.0853 
 131   2.0000      -0.549351       -14.9486 
 132   2.0000      -0.541357       -14.7311 
 133   2.0000      -0.537576       -14.6282 
 134   2.0000      -0.534878       -14.5548 
 135   2.0000      -0.532211       -14.4822 
 136   2.0000      -0.526322       -14.3219 
 137   2.0000      -0.524026       -14.2595 
 138   2.0000      -0.517423       -14.0798 
 139   2.0000      -0.516603       -14.0575 
 140   2.0000      -0.510826       -13.9003 
 141   2.0000      -0.508799       -13.8451 
 142   2.0000      -0.507610       -13.8128 
 143   2.0000      -0.501875       -13.6567 
 144   2.0000      -0.501148       -13.6369 
 145   2.0000      -0.498184       -13.5563 
 146   2.0000      -0.494331       -13.4514 
 147   2.0000      -0.487786       -13.2733 
 148   2.0000      -0.486976       -13.2513 
 149   2.0000      -0.469253       -12.7690 
 150   2.0000      -0.463049       -12.6002 
 151   2.0000      -0.455159       -12.3855 
 152   2.0000      -0.448095       -12.1933 
 153   2.0000      -0.446807       -12.1582 
 154   2.0000      -0.445964       -12.1353 
 155   2.0000      -0.440556       -11.9881 
 156   2.0000      -0.433323       -11.7913 
 157   2.0000      -0.428190       -11.6517 
 158   2.0000      -0.397928       -10.8282 
 159   2.0000      -0.386838       -10.5264 
 160   2.0000      -0.378166       -10.2904 
 161   2.0000      -0.373650       -10.1675 
 162   2.0000      -0.370738       -10.0883 
 163   2.0000      -0.358529        -9.7561 
 164   2.0000      -0.354144        -9.6368 
 165   2.0000      -0.337502        -9.1839 
 166   2.0000      -0.336341        -9.1523 
 167   2.0000      -0.335546        -9.1307 
 168   2.0000      -0.328079        -8.9275 
 169   2.0000      -0.300622        -8.1803 
 170   2.0000      -0.299816        -8.1584 
 171   2.0000      -0.287704        -7.8288 
 172   2.0000      -0.285486        -7.7685 
 173   2.0000      -0.259123        -7.0511 
 174   2.0000      -0.246299        -6.7021 
 175   2.0000      -0.189226        -5.1491 
 176   2.0000      -0.179365        -4.8808 
 177   2.0000      -0.070869        -1.9284 
 178   2.0000      -0.056421        -1.5353 
 179   0.0000       0.029496         0.8026 
 180   0.0000       0.068835         1.8731 
 181   0.0000       0.092338         2.5126 
 182   0.0000       0.103041         2.8039 
 183   0.0000       0.120132         3.2690 
 184   0.0000       0.135329         3.6825 
 185   0.0000       0.140657         3.8275 
 186   0.0000       0.151746         4.1292 
 187   0.0000       0.159738         4.3467 
 188   0.0000       0.161952         4.4069 
 189   0.0000       0.163583         4.4513 
 190   0.0000       0.166963         4.5433 
 191   0.0000       0.179989         4.8977 
 192   0.0000       0.191355         5.2070 
 193   0.0000       0.194747         5.2993 
 194   0.0000       0.203363         5.5338 
 195   0.0000       0.206696         5.6245 
 196   0.0000       0.206939         5.6311 
 197   0.0000       0.209972         5.7136 
 198   0.0000       0.220103         5.9893 
 199   0.0000       0.223728         6.0879 
 200   0.0000       0.226649         6.1674 
 201   0.0000       0.237916         6.4740 
 202   0.0000       0.241071         6.5599 
 203   0.0000       0.244289         6.6474 
 204   0.0000       0.252894         6.8816 
 205   0.0000       0.253941         6.9101 
 206   0.0000       0.256600         6.9825 
 207   0.0000       0.258598         7.0368 
 208   0.0000       0.262019         7.1299 
 209   0.0000       0.262893         7.1537 
 210   0.0000       0.265996         7.2381 
 211   0.0000       0.269473         7.3327 
 212   0.0000       0.272054         7.4030 
 213   0.0000       0.274036         7.4569 
 214   0.0000       0.275466         7.4958 
 215   0.0000       0.278793         7.5863 
 216   0.0000       0.280423         7.6307 
 217   0.0000       0.280958         7.6453 
 218   0.0000       0.284054         7.7295 
 219   0.0000       0.289205         7.8697 
 220   0.0000       0.290075         7.8933 
 221   0.0000       0.292636         7.9630 
 222   0.0000       0.294143         8.0040 
 223   0.0000       0.294980         8.0268 
 224   0.0000       0.298638         8.1263 
 225   0.0000       0.299494         8.1497 
 226   0.0000       0.304923         8.2974 
 227   0.0000       0.309292         8.4163 
 228   0.0000       0.310433         8.4473 
 229   0.0000       0.317603         8.6424 
 230   0.0000       0.320362         8.7175 
 231   0.0000       0.323684         8.8079 
 232   0.0000       0.328115         8.9285 
 233   0.0000       0.330604         8.9962 
 234   0.0000       0.340756         9.2724 
 235   0.0000       0.343897         9.3579 
 236   0.0000       0.356720         9.7068 
 237   0.0000       0.383129        10.4255 
 238   0.0000       0.394843        10.7442 
 239   0.0000       0.398730        10.8500 
 240   0.0000       0.402921        10.9640 
 241   0.0000       0.416661        11.3379 
 242   0.0000       0.418212        11.3801 
 243   0.0000       0.424494        11.5511 
 244   0.0000       0.428880        11.6704 
 245   0.0000       0.429888        11.6979 
 246   0.0000       0.434405        11.8208 
 247   0.0000       0.439632        11.9630 
 248   0.0000       0.441800        12.0220 
 249   0.0000       0.443106        12.0575 
 250   0.0000       0.450193        12.2504 
 251   0.0000       0.457299        12.4437 
 252   0.0000       0.461338        12.5536 
 253   0.0000       0.462964        12.5979 
 254   0.0000       0.470798        12.8111 
 255   0.0000       0.473830        12.8936 
 256   0.0000       0.482383        13.1263 
 257   0.0000       0.483840        13.1660 
 258   0.0000       0.490109        13.3365 
 259   0.0000       0.499188        13.5836 
 260   0.0000       0.501240        13.6394 
 261   0.0000       0.504654        13.7323 
 262   0.0000       0.506999        13.7961 
 263   0.0000       0.507981        13.8229 
 264   0.0000       0.513478        13.9724 
 265   0.0000       0.516633        14.0583 
 266   0.0000       0.519954        14.1487 
 267   0.0000       0.524333        14.2678 
 268   0.0000       0.535162        14.5625 
 269   0.0000       0.538092        14.6422 
 270   0.0000       0.541153        14.7255 
 271   0.0000       0.545859        14.8536 
 272   0.0000       0.547402        14.8956 
 273   0.0000       0.554964        15.1013 
 274   0.0000       0.559903        15.2357 
 275   0.0000       0.565194        15.3797 
 276   0.0000       0.570730        15.5304 
 277   0.0000       0.575885        15.6706 
 278   0.0000       0.581453        15.8221 
 279   0.0000       0.584844        15.9144 
 280   0.0000       0.587173        15.9778 
 281   0.0000       0.591991        16.1089 
 282   0.0000       0.593764        16.1571 
 283   0.0000       0.597579        16.2609 
 284   0.0000       0.598711        16.2917 
 285   0.0000       0.600547        16.3417 
 286   0.0000       0.607142        16.5212 
 287   0.0000       0.611112        16.6292 
 288   0.0000       0.612148        16.6574 
 289   0.0000       0.618036        16.8176 
 290   0.0000       0.626055        17.0358 
 291   0.0000       0.628013        17.0891 
 292   0.0000       0.634522        17.2662 
 293   0.0000       0.636663        17.3245 
 294   0.0000       0.644621        17.5410 
 295   0.0000       0.650775        17.7085 
 296   0.0000       0.654445        17.8083 
 297   0.0000       0.657906        17.9025 
 298   0.0000       0.663843        18.0641 
 299   0.0000       0.667625        18.1670 
 300   0.0000       0.668381        18.1876 
 301   0.0000       0.670459        18.2441 
 302   0.0000       0.679066        18.4783 
 303   0.0000       0.681813        18.5531 
 304   0.0000       0.684600        18.6289 
 305   0.0000       0.687481        18.7073 
 306   0.0000       0.689637        18.7660 
 307   0.0000       0.693758        18.8781 
 308   0.0000       0.695365        18.9218 
 309   0.0000       0.697981        18.9930 
 310   0.0000       0.700682        19.0665 
 311   0.0000       0.704379        19.1671 
 312   0.0000       0.705872        19.2078 
 313   0.0000       0.709530        19.3073 
 314   0.0000       0.711862        19.3707 
 315   0.0000       0.714128        19.4324 
 316   0.0000       0.717062        19.5123 
 317   0.0000       0.719265        19.5722 
 318   0.0000       0.720921        19.6173 
 319   0.0000       0.722651        19.6643 
 320   0.0000       0.726162        19.7599 
 321   0.0000       0.729432        19.8489 
 322   0.0000       0.733155        19.9502 
 323   0.0000       0.735404        20.0114 
 324   0.0000       0.739731        20.1291 
 325   0.0000       0.740374        20.1466 
 326   0.0000       0.742709        20.2101 
 327   0.0000       0.744174        20.2500 
 328   0.0000       0.747994        20.3540 
 329   0.0000       0.749260        20.3884 
 330   0.0000       0.751522        20.4500 
 331   0.0000       0.756036        20.5728 
 332   0.0000       0.757742        20.6192 
 333   0.0000       0.762196        20.7404 
 334   0.0000       0.767558        20.8863 
 335   0.0000       0.771495        20.9934 
 336   0.0000       0.777485        21.1565 
 337   0.0000       0.785474        21.3738 
 338   0.0000       0.785648        21.3786 
 339   0.0000       0.787005        21.4155 
 340   0.0000       0.791276        21.5317 
 341   0.0000       0.792453        21.5637 
 342   0.0000       0.798039        21.7158 
 343   0.0000       0.802720        21.8431 
 344   0.0000       0.804386        21.8884 
 345   0.0000       0.807490        21.9729 
 346   0.0000       0.809761        22.0347 
 347   0.0000       0.810713        22.0606 
 348   0.0000       0.812715        22.1151 
 349   0.0000       0.818034        22.2598 
 350   0.0000       0.821498        22.3541 
 351   0.0000       0.823503        22.4086 
 352   0.0000       0.824542        22.4369 
 353   0.0000       0.828232        22.5373 
 354   0.0000       0.828984        22.5578 
 355   0.0000       0.831462        22.6252 
 356   0.0000       0.833350        22.6766 
 357   0.0000       0.834781        22.7156 
 358   0.0000       0.836094        22.7513 
 359   0.0000       0.838848        22.8262 
 360   0.0000       0.840193        22.8628 
 361   0.0000       0.840918        22.8826 
 362   0.0000       0.843403        22.9502 
 363   0.0000       0.845559        23.0088 
 364   0.0000       0.846157        23.0251 
 365   0.0000       0.850487        23.1429 
 366   0.0000       0.854724        23.2582 
 367   0.0000       0.858367        23.3574 
 368   0.0000       0.861376        23.4392 
 369   0.0000       0.864576        23.5263 
 370   0.0000       0.867450        23.6045 
 371   0.0000       0.871973        23.7276 
 372   0.0000       0.875803        23.8318 
 373   0.0000       0.876486        23.8504 
 374   0.0000       0.877672        23.8827 
 375   0.0000       0.883420        24.0391 
 376   0.0000       0.884586        24.0708 
 377   0.0000       0.888166        24.1682 
 378   0.0000       0.891448        24.2575 
 379   0.0000       0.893267        24.3070 
 380   0.0000       0.897048        24.4099 
 381   0.0000       0.898440        24.4478 
 382   0.0000       0.901950        24.5433 
 383   0.0000       0.903032        24.5727 
 384   0.0000       0.904729        24.6189 
 385   0.0000       0.905427        24.6379 
 386   0.0000       0.908256        24.7149 
 387   0.0000       0.909310        24.7436 
 388   0.0000       0.911121        24.7929 
 389   0.0000       0.914007        24.8714 
 390   0.0000       0.917226        24.9590 
 391   0.0000       0.920870        25.0581 
 392   0.0000       0.923886        25.1402 
 393   0.0000       0.926799        25.2195 
 394   0.0000       0.927977        25.2515 
 395   0.0000       0.930695        25.3255 
 396   0.0000       0.932725        25.3807 
 397   0.0000       0.932923        25.3861 
 398   0.0000       0.939192        25.5567 
 399   0.0000       0.941597        25.6221 
 400   0.0000       0.944659        25.7055 
 401   0.0000       0.947135        25.7728 
 402   0.0000       0.951843        25.9010 
 403   0.0000       0.954611        25.9763 
 404   0.0000       0.957431        26.0530 
 405   0.0000       0.959081        26.0979 
 406   0.0000       0.960577        26.1386 
 407   0.0000       0.965209        26.2647 
 408   0.0000       0.969573        26.3834 
 409   0.0000       0.973457        26.4891 
 410   0.0000       0.979303        26.6482 
 411   0.0000       0.984314        26.7846 
 412   0.0000       0.985758        26.8238 
 413   0.0000       0.987163        26.8621 
 414   0.0000       0.990315        26.9479 
 415   0.0000       0.993125        27.0243 
 416   0.0000       1.001910        27.2634 
 417   0.0000       1.002903        27.2904 
 418   0.0000       1.010490        27.4968 
 419   0.0000       1.017170        27.6786 
 420   0.0000       1.025412        27.9029 
 421   0.0000       1.028246        27.9800 
 422   0.0000       1.031326        28.0638 
 423   0.0000       1.040116        28.3030 
 424   0.0000       1.044208        28.4143 
 425   0.0000       1.047206        28.4959 
 426   0.0000       1.055779        28.7292 
 427   0.0000       1.064732        28.9728 
 428   0.0000       1.065714        28.9996 
 429   0.0000       1.074092        29.2275 
 430   0.0000       1.076944        29.3051 
 431   0.0000       1.080716        29.4078 
 432   0.0000       1.084288        29.5050 
 433   0.0000       1.091201        29.6931 
 434   0.0000       1.098142        29.8820 
 435   0.0000       1.102756        30.0075 
 436   0.0000       1.103785        30.0355 
 437   0.0000       1.112024        30.2597 
 438   0.0000       1.114965        30.3397 
 439   0.0000       1.117921        30.4202 
 440   0.0000       1.119625        30.4666 
 441   0.0000       1.123891        30.5826 
 442   0.0000       1.126142        30.6439 
 443   0.0000       1.129609        30.7382 
 444   0.0000       1.133074        30.8325 
 445   0.0000       1.135895        30.9093 
 446   0.0000       1.140821        31.0433 
 447   0.0000       1.142840        31.0983 
 448   0.0000       1.143724        31.1223 
 449   0.0000       1.146753        31.2047 
 450   0.0000       1.150052        31.2945 
 451   0.0000       1.151702        31.3394 
 452   0.0000       1.156286        31.4642 
 453   0.0000       1.158140        31.5146 
 454   0.0000       1.163836        31.6696 
 455   0.0000       1.169186        31.8152 
 456   0.0000       1.174291        31.9541 
 457   0.0000       1.174680        31.9647 
 458   0.0000       1.178072        32.0570 
 459   0.0000       1.184510        32.2321 
 460   0.0000       1.187439        32.3119 
 461   0.0000       1.194877        32.5142 
 462   0.0000       1.203003        32.7354 
 463   0.0000       1.204837        32.7853 
 464   0.0000       1.208535        32.8859 
 465   0.0000       1.210534        32.9403 
 466   0.0000       1.212964        33.0064 
 467   0.0000       1.218715        33.1629 
 468   0.0000       1.223407        33.2906 
 469   0.0000       1.226720        33.3807 
 470   0.0000       1.230586        33.4859 
 471   0.0000       1.233179        33.5565 
 472   0.0000       1.234832        33.6015 
 473   0.0000       1.237257        33.6675 
 474   0.0000       1.242693        33.8154 
 475   0.0000       1.247221        33.9386 
 476   0.0000       1.249814        34.0092 
 477   0.0000       1.250075        34.0163 
 478   0.0000       1.251539        34.0561 
 479   0.0000       1.254178        34.1279 
 480   0.0000       1.260678        34.3048 
 481   0.0000       1.265263        34.4296 
 482   0.0000       1.266182        34.4546 
 483   0.0000       1.270714        34.5779 
 484   0.0000       1.272789        34.6344 
 485   0.0000       1.277765        34.7698 
 486   0.0000       1.279087        34.8057 
 487   0.0000       1.280846        34.8536 
 488   0.0000       1.288047        35.0495 
 489   0.0000       1.290645        35.1202 
 490   0.0000       1.292034        35.1580 
 491   0.0000       1.296676        35.2844 
 492   0.0000       1.299548        35.3625 
 493   0.0000       1.309160        35.6240 
 494   0.0000       1.311127        35.6776 
 495   0.0000       1.312884        35.7254 
 496   0.0000       1.319052        35.8932 
 497   0.0000       1.323199        36.0061 
 498   0.0000       1.328211        36.1425 
 499   0.0000       1.328830        36.1593 
 500   0.0000       1.331888        36.2425 
 501   0.0000       1.337249        36.3884 
 502   0.0000       1.338152        36.4130 
 503   0.0000       1.344547        36.5870 
 504   0.0000       1.347320        36.6624 
 505   0.0000       1.351155        36.7668 
 506   0.0000       1.353530        36.8314 
 507   0.0000       1.358699        36.9721 
 508   0.0000       1.361383        37.0451 
 509   0.0000       1.362316        37.0705 
 510   0.0000       1.365991        37.1705 
[...]
      pz      :     0.022042  p :     0.079672
      px      :     0.043453
      py      :     0.014176
 77 H s       :     0.886872  s :     0.886872
      pz      :     0.047799  p :     0.079084
      px      :     0.015017
      py      :     0.016269
 78 H s       :     0.887254  s :     0.887254
      pz      :     0.025790  p :     0.079035
      px      :     0.020507
      py      :     0.032738
 79 H s       :     0.909835  s :     0.909835
      pz      :     0.021971  p :     0.086526
      px      :     0.021715
      py      :     0.042840
 80 H s       :     0.867689  s :     0.867689
      pz      :     0.039123  p :     0.084457
      px      :     0.030095
      py      :     0.015239
 81 H s       :     0.887165  s :     0.887165
      pz      :     0.037775  p :     0.084002
      px      :     0.016173
      py      :     0.030054
 82 H s       :     0.915533  s :     0.915533
      pz      :     0.022023  p :     0.086791
      px      :     0.031507
      py      :     0.033261
 83 H s       :     0.873044  s :     0.873044
      pz      :     0.039267  p :     0.084031
      px      :     0.015265
      py      :     0.029499
 84 H s       :     0.886913  s :     0.886913
      pz      :     0.035782  p :     0.083585
      px      :     0.031709
      py      :     0.016094
 85 H s       :     0.893287  s :     0.893287
      pz      :     0.022495  p :     0.079764
      px      :     0.014081
      py      :     0.043189
 86 H s       :     0.890898  s :     0.890898
      pz      :     0.024727  p :     0.078843
      px      :     0.032985
      py      :     0.021131
 87 H s       :     0.890098  s :     0.890098
      pz      :     0.047981  p :     0.078716
      px      :     0.015598
      py      :     0.015137
 88 H s       :     0.912106  s :     0.912106
      pz      :     0.021815  p :     0.086978
      px      :     0.042744
      py      :     0.022419
 89 H s       :     0.872136  s :     0.872136
      pz      :     0.037904  p :     0.083833
      px      :     0.030465
      py      :     0.015465


                      *****************************
                      * MAYER POPULATION ANALYSIS *
                      *****************************

  NA   - Mulliken gross atomic population
  ZA   - Total nuclear charge
  QA   - Mulliken gross atomic charge
  VA   - Mayer's total valence
  BVA  - Mayer's bonded valence
  FA   - Mayer's free valence

  ATOM       NA         ZA         QA         VA         BVA        FA
  0 C      5.7909     6.0000     0.2091     3.8350     3.8350     0.0000
  1 N      7.4513     7.0000    -0.4513     3.3408     3.3408    -0.0000
  2 C      6.0628     6.0000    -0.0628     3.9199     3.9199     0.0000
  3 N      7.3360     7.0000    -0.3360     3.4533     3.4533     0.0000
  4 C      6.0520     6.0000    -0.0520     3.9919     3.9919    -0.0000
  5 N      7.5628     7.0000    -0.5628     3.0905     3.0905    -0.0000
  6 C      6.0970     6.0000    -0.0970     4.0079     4.0079    -0.0000
  7 N      7.3391     7.0000    -0.3391     3.4377     3.4377    -0.0000
  8 C      5.7962     6.0000     0.2038     3.8367     3.8367    -0.0000
  9 N      7.5628     7.0000    -0.5628     3.0803     3.0803    -0.0000
 10 C      5.8828     6.0000     0.1172     3.9040     3.9040     0.0000
 11 N      7.4377     7.0000    -0.4377     3.3817     3.3817     0.0000
 12 C      6.0814     6.0000    -0.0814     3.9165     3.9165     0.0000
 13 N      7.4343     7.0000    -0.4343     3.4055     3.4055     0.0000
 14 C      5.7571     6.0000     0.2429     3.7798     3.7798    -0.0000
 15 N      7.4410     7.0000    -0.4410     3.3712     3.3712    -0.0000
 16 C      5.7710     6.0000     0.2290     3.7853     3.7853    -0.0000
 17 C      6.1010     6.0000    -0.1010     4.0061     4.0061    -0.0000
 18 C      6.2117     6.0000    -0.2117     3.7718     3.7718    -0.0000
 19 C      5.7627     6.0000     0.2373     3.8589     3.8589    -0.0000
 20 C      5.7885     6.0000     0.2115     3.8275     3.8275     0.0000
 21 C      6.0940     6.0000    -0.0940     3.9047     3.9047     0.0000
 22 C      6.0894     6.0000    -0.0894     3.9829     3.9829     0.0000
 23 C      6.0433     6.0000    -0.0433     3.9917     3.9917    -0.0000
 24 C      5.8010     6.0000     0.1990     3.8221     3.8221    -0.0000
 25 C      5.8858     6.0000     0.1142     3.8905     3.8905     0.0000
 26 C      6.0733     6.0000    -0.0733     3.9095     3.9095     0.0000
 27 C      5.7844     6.0000     0.2156     3.8723     3.8723    -0.0000
 28 C      6.0577     6.0000    -0.0577     3.9882     3.9882     0.0000
 29 C      6.1814     6.0000    -0.1814     3.7411     3.7411    -0.0000
 30 C      5.7588     6.0000     0.2412     3.7973     3.7973    -0.0000
 31 C      5.7785     6.0000     0.2215     3.8222     3.8222    -0.0000
 32 C      6.0634     6.0000    -0.0634     3.9208     3.9208     0.0000
 33 C      6.0702     6.0000    -0.0702     3.9787     3.9787     0.0000
 34 C      6.0504     6.0000    -0.0504     3.9876     3.9876    -0.0000
 35 C      5.7831     6.0000     0.2169     3.8208     3.8208     0.0000
 36 C      5.8890     6.0000     0.1110     3.8826     3.8826     0.0000
 37 C      6.0656     6.0000    -0.0656     3.9176     3.9176     0.0000
 38 C      5.7659     6.0000     0.2341     3.7997     3.7997     0.0000
 39 C      6.0595     6.0000    -0.0595     3.9869     3.9869    -0.0000
 40 C      6.1849     6.0000    -0.1849     3.7338     3.7338     0.0000
 41 C      5.7764     6.0000     0.2236     3.8839     3.8839     0.0000
 42 C      5.8003     6.0000     0.1997     3.8267     3.8267     0.0000
 43 C      6.0728     6.0000    -0.0728     3.9014     3.9014     0.0000
 44 C      6.0896     6.0000    -0.0896     3.9850     3.9850    -0.0000
 45 C      6.0574     6.0000    -0.0574     3.9927     3.9927    -0.0000
 46 C      5.7923     6.0000     0.2077     3.8273     3.8273    -0.0000
 47 C      5.8845     6.0000     0.1155     3.8935     3.8935     0.0000
 48 C      6.0703     6.0000    -0.0703     3.9072     3.9072     0.0000
 49 C      5.7668     6.0000     0.2332     3.8893     3.8893    -0.0000
 50 C      6.0494     6.0000    -0.0494     3.9905     3.9905    -0.0000
 51 C      6.1903     6.0000    -0.1903     3.7358     3.7358    -0.0000
 52 H      0.9545     1.0000     0.0455     0.9858     0.9858    -0.0000
 53 H      1.0153     1.0000    -0.0153     0.9983     0.9983     0.0000
 54 H      0.9519     1.0000     0.0481     1.0095     1.0095    -0.0000
 55 H      0.9564     1.0000     0.0436     0.9865     0.9865     0.0000
 56 H      0.9474     1.0000     0.0526     0.9702     0.9702    -0.0000
 57 H      0.9489     1.0000     0.0511     0.9833     0.9833     0.0000
 58 H      0.9492     1.0000     0.0508     0.9850     0.9850    -0.0000
 59 H      1.0029     1.0000    -0.0029     1.0021     1.0021     0.0000
 60 H      0.9489     1.0000     0.0511     1.0109     1.0109    -0.0000
 61 H      0.8282     1.0000     0.1718     1.0422     1.0422     0.0000
 62 H      0.8257     1.0000     0.1743     1.0435     1.0435    -0.0000
 63 H      0.9439     1.0000     0.0561     0.9853     0.9853     0.0000
 64 H      1.0105     1.0000    -0.0105     0.9979     0.9979     0.0000
 65 H      0.9523     1.0000     0.0477     1.0092     1.0092     0.0000
 66 H      0.9431     1.0000     0.0569     0.9853     0.9853     0.0000
 67 H      0.9373     1.0000     0.0627     0.9720     0.9720     0.0000
 68 H      0.9421     1.0000     0.0579     0.9868     0.9868     0.0000
 69 H      0.9424     1.0000     0.0576     0.9829     0.9829    -0.0000
 70 H      1.0271     1.0000    -0.0271     0.9936     0.9936     0.0000
 71 H      0.9537     1.0000     0.0463     1.0063     1.0063     0.0000
 72 H      0.9355     1.0000     0.0645     0.9842     0.9842    -0.0000
 73 H      1.0107     1.0000    -0.0107     0.9999     0.9999     0.0000
 74 H      0.9459     1.0000     0.0541     1.0100     1.0100    -0.0000
 75 H      0.9363     1.0000     0.0637     0.9847     0.9847     0.0000
 76 H      0.9310     1.0000     0.0690     0.9719     0.9719    -0.0000
 77 H      0.9365     1.0000     0.0635     0.9853     0.9853     0.0000
 78 H      0.9373     1.0000     0.0627     0.9851     0.9851    -0.0000
 79 H      1.0152     1.0000    -0.0152     0.9984     0.9984    -0.0000
 80 H      0.9452     1.0000     0.0548     1.0072     1.0072    -0.0000
 81 H      0.9464     1.0000     0.0536     0.9856     0.9856    -0.0000
 82 H      1.0242     1.0000    -0.0242     0.9938     0.9938    -0.0000
 83 H      0.9576     1.0000     0.0424     1.0087     1.0087    -0.0000
 84 H      0.9464     1.0000     0.0536     0.9854     0.9854    -0.0000
 85 H      0.9400     1.0000     0.0600     0.9716     0.9716     0.0000
 86 H      0.9442     1.0000     0.0558     0.9840     0.9840     0.0000
 87 H      0.9432     1.0000     0.0568     0.9856     0.9856     0.0000
 88 H      1.0176     1.0000    -0.0176     0.9957     0.9957    -0.0000
 89 H      0.9551     1.0000     0.0449     1.0073     1.0073     0.0000

  Mayer bond orders larger than 0.100000
B(  0-C ,  1-N ) :   1.0984 B(  0-C , 17-C ) :   1.6805 B(  0-C , 52-H ) :   0.9685 
B(  1-N ,  8-C ) :   1.0940 B(  1-N , 10-C ) :   0.9724 B(  2-C , 12-C ) :   1.5205 
B(  2-C , 16-C ) :   1.3431 B(  2-C , 53-H ) :   0.9766 B(  3-N , 14-C ) :   1.2130 
B(  3-N , 16-C ) :   1.1934 B(  3-N , 61-H ) :   0.8989 B(  4-C ,  6-C ) :   1.2286 
B(  4-C , 17-C ) :   1.2287 B(  4-C , 18-C ) :   1.3755 B(  5-N , 19-C ) :   1.4412 
B(  5-N , 27-C ) :   1.3878 B(  6-C ,  8-C ) :   1.6803 B(  6-C , 54-H ) :   0.9670 
B(  7-N , 30-C ) :   1.1950 B(  7-N , 38-C ) :   1.1956 B(  7-N , 62-H ) :   0.8974 
B(  8-C , 55-H ) :   0.9692 B(  9-N , 41-C ) :   1.3996 B(  9-N , 49-C ) :   1.4218 
B( 10-C , 56-H ) :   0.9766 B( 10-C , 57-H ) :   0.9820 B( 10-C , 58-H ) :   0.9841 
B( 11-N , 20-C ) :   1.1291 B( 11-N , 24-C ) :   1.1142 B( 11-N , 25-C ) :   0.9590 
B( 12-C , 14-C ) :   1.3445 B( 12-C , 59-H ) :   0.9745 B( 13-N , 31-C ) :   1.1440 
B( 13-N , 35-C ) :   1.1392 B( 13-N , 36-C ) :   0.9499 B( 14-C , 18-C ) :   1.1551 
B( 15-N , 42-C ) :   1.1106 B( 15-N , 46-C ) :   1.1191 B( 15-N , 47-C ) :   0.9620 
B( 16-C , 51-C ) :   1.1820 B( 17-C , 60-H ) :   0.9666 B( 18-C , 19-C ) :   1.1647 
B( 19-C , 21-C ) :   1.2293 B( 20-C , 28-C ) :   1.6254 B( 20-C , 63-H ) :   0.9702 
B( 21-C , 26-C ) :   1.6277 B( 21-C , 64-H ) :   0.9700 B( 22-C , 23-C ) :   1.2883 
B( 22-C , 28-C ) :   1.2691 B( 22-C , 29-C ) :   1.2229 B( 23-C , 24-C ) :   1.6181 
B( 23-C , 65-H ) :   0.9706 B( 24-C , 66-H ) :   0.9693 B( 25-C , 67-H ) :   0.9761 
B( 25-C , 68-H ) :   0.9828 B( 25-C , 69-H ) :   0.9822 B( 26-C , 27-C ) :   1.2260 
B( 26-C , 70-H ) :   0.9721 B( 27-C , 29-C ) :   1.2238 B( 28-C , 71-H ) :   0.9717 
B( 29-C , 30-C ) :   1.2274 B( 30-C , 32-C ) :   1.2959 B( 31-C , 39-C ) :   1.6079 
B( 31-C , 72-H ) :   0.9688 B( 32-C , 37-C ) :   1.5628 B( 32-C , 73-H ) :   0.9782 
B( 33-C , 34-C ) :   1.2928 B( 33-C , 39-C ) :   1.2869 B( 33-C , 40-C ) :   1.2092 
B( 34-C , 35-C ) :   1.6048 B( 34-C , 74-H ) :   0.9700 B( 35-C , 75-H ) :   0.9689 
B( 36-C , 76-H ) :   0.9765 B( 36-C , 77-H ) :   0.9818 B( 36-C , 78-H ) :   0.9827 
B( 37-C , 38-C ) :   1.2990 B( 37-C , 79-H ) :   0.9771 B( 38-C , 40-C ) :   1.2208 
B( 39-C , 80-H ) :   0.9710 B( 40-C , 41-C ) :   1.2368 B( 41-C , 43-C ) :   1.1977 
B( 42-C , 50-C ) :   1.6339 B( 42-C , 81-H ) :   0.9697 B( 43-C , 48-C ) :   1.6544 
B( 43-C , 82-H ) :   0.9729 B( 44-C , 45-C ) :   1.2662 B( 44-C , 50-C ) :   1.2695 
B( 44-C , 51-C ) :   1.2593 B( 45-C , 46-C ) :   1.6345 B( 45-C , 83-H ) :   0.9715 
B( 46-C , 84-H ) :   0.9701 B( 47-C , 85-H ) :   0.9761 B( 47-C , 86-H ) :   0.9829 
B( 47-C , 87-H ) :   0.9825 B( 48-C , 49-C ) :   1.1998 B( 48-C , 88-H ) :   0.9744 
B( 49-C , 51-C ) :   1.2319 B( 50-C , 89-H ) :   0.9712 

-------
TIMINGS
-------

Total SCF time: 0 days 0 hours 27 min 45 sec 

Total time                  ....    1665.336 sec
Sum of individual times     ....    1660.585 sec  ( 99.7%)

Fock matrix formation       ....    1633.506 sec  ( 98.1%)
Diagonalization             ....       8.792 sec  (  0.5%)
Density matrix formation    ....       0.519 sec  (  0.0%)
Population analysis         ....       0.587 sec  (  0.0%)
Initial guess               ....       2.508 sec  (  0.2%)
Orbital Transformation      ....       0.000 sec  (  0.0%)
Orbital Orthonormalization  ....       0.000 sec  (  0.0%)
DIIS solution               ....       3.964 sec  (  0.2%)
SOSCF solution              ....       9.376 sec  (  0.6%)

Maximum memory used throughout the entire SCF-calculation: 302.6 MB


           ************************************************************
           *        Program running with 16 parallel MPI-processes    *
           *              working on a common directory               *
           ************************************************************

------------------------------------------------------------------------------
                                ORCA  MP2 
------------------------------------------------------------------------------

Freezing NCore=104 chemical core electrons

----------
MP2 ENERGY (disk based algorithm)
----------

Dimension of the basis                    ...  918
Memory devoted to MP2                     ... 2000 MB   
Data format for buffers                   ... DOUBLE
Compression type for matrix containers    ... UNCOMPRESSED

-------------------------------
PARTIAL EXCHANGE TRANSFORMATION
-------------------------------

Transformation type                        ... one-operator
Generation of integrals (i,mue|j,nue)      ... ON
Generation of integrals (mue,kappa|nue,tau)... OFF
Generation of integrals (i,mue|a,nue)      ... OFF
Dimension of the basis                     ...  918
Number of internal MOs                     ...  127 (  52- 178)
Pair cutoff                                ... 2.500e-12 Eh
Number of AO pairs in the trafo            ... 421821
Total Number of distinct AO pairs          ... 421821
Memory devoted for trafo                   ... 2000.0 MB 
Max. Number of MO pairs treated together   ...  311      
Number Format for Storage                  ... Double (8 Byte)
Integral package used                      ... LIBINT

Starting integral evaluation:
    ... done with AO integral generation
Closing buffer AOK     (38.30 GB; CompressionRatio= 1.32)
Collecting buffer AOK 
Number of MO pairs included in the trafo   ... 8128
------------------------
SORTING OF (i,mue|j,nue)
------------------------

IBATCH = 1 of  2
IBATCH = 2 of  2
Closing buffer KAO     (51.03 GB; CompressionRatio= 1.00)
Collecting buffer KAO 
N(AO-Batches) Done                         ...  85656548 
N(AO-Batches) Skipped                      ...  82391973 
N(IJ)-pairs Skipped                        ...         0 
TOTAL TIME for half transformation         ...  2405.098 sec
AO-integral generation                     ...   208.372 sec
Half transformation                        ...   424.639 sec
K-integral sorting                         ...  1549.566 sec

Finished integral transformation - now doing MP2 part

OPERATOR COMBINATION   0   0: ij=( 52..178, 52..178)
Process 10:   Internal MO 132
Process 13:   Internal MO 156
Process  4:   Internal MO  84
Process  7:   Internal MO 108
Process  1:   Internal MO  60
Process  0:   Internal MO  54
Process  0:   Internal MO  57
Process  2:   Internal MO  69
Process  1:   Internal MO  63
Process  3:   Internal MO  78
Process  1:   Internal MO  66
Process  2:   Internal MO  72
Process  8:   Internal MO 117
Process  5:   Internal MO  93
Process 14:   Internal MO 165
Process 11:   Internal MO 141
Process  4:   Internal MO  87
Process  6:   Internal MO 102
Process  2:   Internal MO  75
Process  9:   Internal MO 126
Process  3:   Internal MO  81
Process  7:   Internal MO 111
Process 12:   Internal MO 150
Process  4:   Internal MO  90
Process  5:   Internal MO  96
Process 15:   Internal MO 174
Process 10:   Internal MO 135
Process  6:   Internal MO 105
Process  8:   Internal MO 120
Process  7:   Internal MO 114
Process  9:   Internal MO 129
Process  5:   Internal MO  99
Process 13:   Internal MO 159
Process 11:   Internal MO 144
Process 14:   Internal MO 168
Process 10:   Internal MO 138
Process 12:   Internal MO 153
Process  8:   Internal MO 123
Process 15:   Internal MO 177
Process 11:   Internal MO 147
Process 13:   Internal MO 162
Process 14:   Internal MO 171
-----------------------------------------------
 MP2 CORRELATION ENERGY   :     -7.286110749 Eh
-----------------------------------------------


-------
TIMINGS
-------
Total time                : 2692.997 sec
Integral trafo            : 2407.199 sec ( 89.4%)
K(i,j)                    :    7.370 sec (  0.3%)
T(i,j)                    :    0.066 sec (  0.0%)

---------------------------------------
MP2 TOTAL ENERGY:    -2130.909735635 Eh
---------------------------------------

Maximum memory used throughout the entire MP2-calculation: 2275.2 MB

-------------------------   --------------------
FINAL SINGLE POINT ENERGY     -2130.909735635338
-------------------------   --------------------


                            ***************************************
                            *     ORCA property calculations      *
                            ***************************************


  WARNING: The energy has been calculated at the MP2 level but the densities
           used in the property calculations are still SCF densities
           MP2 response densities have not been calculated 
           use %mp2 Density relaxed end
           or  %mp2 Density unrelaxed end

                                    ---------------------
                                    Active property flags
                                    ---------------------
   (+) Dipole Moment


------------------------------------------------------------------------------
                       ORCA ELECTRIC PROPERTIES CALCULATION
------------------------------------------------------------------------------

Dipole Moment Calculation                       ... on
Quadrupole Moment Calculation                   ... off
Polarizability Calculation                      ... off
GBWName                                         ... /scratch/allen/tmpyp4_amber_gaff2/conf1/conf1/Conf226.orca.gbw
Electron density                                ... /scratch/allen/tmpyp4_amber_gaff2/conf1/conf1/Conf226.orca.scfp
The origin for moment calculation is the CENTER OF MASS  = ( 0.002123, -0.002598 -0.001407)

-------------
DIPOLE MOMENT
-------------
                                X             Y             Z
Electronic contribution:      1.28462      -2.81405      -0.13617
Nuclear contribution   :      0.07911       0.24026       0.14283
                        -----------------------------------------
Total Dipole Moment    :      1.36373      -2.57378       0.00666
                        -----------------------------------------
Magnitude (a.u.)       :      2.91276
Magnitude (Debye)      :      7.40365



--------------------
Rotational spectrum 
--------------------
 
Rotational constants in cm-1:     0.001499     0.001476     0.000761 
Rotational constants in MHz :    44.950129    44.262854    22.822356 

 Dipole components along the rotational axes: 
x,y,z [a.u.] :     2.041011    -2.078082     0.004638 
x,y,z [Debye]:     5.187837    -5.282066     0.011789 

 

Timings for individual modules:

Sum of individual times         ...     4382.294 sec (=  73.038 min)
GTO integral calculation        ...        3.685 sec (=   0.061 min)   0.1 %
SCF iterations                  ...     1666.581 sec (=  27.776 min)  38.0 %
MP2 module                      ...     2712.027 sec (=  45.200 min)  61.9 %
                             ****ORCA TERMINATED NORMALLY****
TOTAL RUN TIME: 0 days 1 hours 13 minutes 5 seconds 793 msec
# of primitive gaussian functions

