
                                 *****************
                                 * O   R   C   A *
                                 *****************

                                            #,                                       
                                            ###                                      
                                            ####                                     
                                            #####                                    
                                            ######                                   
                                           ########,                                 
                                     ,,################,,,,,                         
                               ,,#################################,,                 
                          ,,##########################################,,             
                       ,#########################################, ''#####,          
                    ,#############################################,,   '####,        
                  ,##################################################,,,,####,       
                ,###########''''           ''''###############################       
              ,#####''   ,,,,##########,,,,          '''####'''          '####       
            ,##' ,,,,###########################,,,                        '##       
           ' ,,###''''                  '''############,,,                           
         ,,##''                                '''############,,,,        ,,,,,,###''
      ,#''                                            '''#######################'''  
     '                                                          ''''####''''         
             ,#######,   #######,   ,#######,      ##                                
            ,#'     '#,  ##    ##  ,#'     '#,    #''#        ######   ,####,        
            ##       ##  ##   ,#'  ##            #'  '#       #        #'  '#        
            ##       ##  #######   ##           ,######,      #####,   #    #        
            '#,     ,#'  ##    ##  '#,     ,#' ,#      #,         ##   #,  ,#        
             '#######'   ##     ##  '#######'  #'      '#     #####' # '####'        



                  #######################################################
                  #                        -***-                        #
                  #          Department of theory and spectroscopy      #
                  #    Directorship and core code : Frank Neese         #
                  #        Max Planck Institute fuer Kohlenforschung    #
                  #                Kaiser Wilhelm Platz 1               #
                  #                 D-45470 Muelheim/Ruhr               #
                  #                      Germany                        #
                  #                                                     #
                  #                  All rights reserved                #
                  #                        -***-                        #
                  #######################################################


                         Program Version 5.0.4 -  RELEASE  -


 With contributions from (in alphabetic order):
   Daniel Aravena         : Magnetic Suceptibility
   Michael Atanasov       : Ab Initio Ligand Field Theory (pilot matlab implementation)
   Alexander A. Auer      : GIAO ZORA, VPT2 properties, NMR spectrum
   Ute Becker             : Parallelization
   Giovanni Bistoni       : ED, misc. LED, open-shell LED, HFLD
   Martin Brehm           : Molecular dynamics
   Dmytro Bykov           : SCF Hessian
   Vijay G. Chilkuri      : MRCI spin determinant printing, contributions to CSF-ICE
   Dipayan Datta          : RHF DLPNO-CCSD density
   Achintya Kumar Dutta   : EOM-CC, STEOM-CC
   Dmitry Ganyushin       : Spin-Orbit,Spin-Spin,Magnetic field MRCI
   Miquel Garcia          : C-PCM and meta-GGA Hessian, CC/C-PCM, Gaussian charge scheme
   Yang Guo               : DLPNO-NEVPT2, F12-NEVPT2, CIM, IAO-localization
   Andreas Hansen         : Spin unrestricted coupled pair/coupled cluster methods
   Benjamin Helmich-Paris : MC-RPA, TRAH-SCF, COSX integrals
   Lee Huntington         : MR-EOM, pCC
   Robert Izsak           : Overlap fitted RIJCOSX, COSX-SCS-MP3, EOM
   Marcus Kettner         : VPT2
   Christian Kollmar      : KDIIS, OOCD, Brueckner-CCSD(T), CCSD density, CASPT2, CASPT2-K
   Simone Kossmann        : Meta GGA functionals, TD-DFT gradient, OOMP2, MP2 Hessian
   Martin Krupicka        : Initial AUTO-CI
   Lucas Lang             : DCDCAS
   Marvin Lechner         : AUTO-CI (C++ implementation), FIC-MRCC
   Dagmar Lenk            : GEPOL surface, SMD
   Dimitrios Liakos       : Extrapolation schemes; Compound Job, initial MDCI parallelization
   Dimitrios Manganas     : Further ROCIS development; embedding schemes
   Dimitrios Pantazis     : SARC Basis sets
   Anastasios Papadopoulos: AUTO-CI, single reference methods and gradients
   Taras Petrenko         : DFT Hessian,TD-DFT gradient, ASA, ECA, R-Raman, ABS, FL, XAS/XES, NRVS
   Peter Pinski           : DLPNO-MP2, DLPNO-MP2 Gradient
   Christoph Reimann      : Effective Core Potentials
   Marius Retegan         : Local ZFS, SOC
   Christoph Riplinger    : Optimizer, TS searches, QM/MM, DLPNO-CCSD(T), (RO)-DLPNO pert. Triples
   Tobias Risthaus        : Range-separated hybrids, TD-DFT gradient, RPA, STAB
   Michael Roemelt        : Original ROCIS implementation
   Masaaki Saitow         : Open-shell DLPNO-CCSD energy and density
   Barbara Sandhoefer     : DKH picture change effects
   Avijit Sen             : IP-ROCIS
   Kantharuban Sivalingam : CASSCF convergence, NEVPT2, FIC-MRCI
   Bernardo de Souza      : ESD, SOC TD-DFT
   Georgi Stoychev        : AutoAux, RI-MP2 NMR, DLPNO-MP2 response
   Willem Van den Heuvel  : Paramagnetic NMR
   Boris Wezisla          : Elementary symmetry handling
   Frank Wennmohs         : Technical directorship


 We gratefully acknowledge several colleagues who have allowed us to
 interface, adapt or use parts of their codes:
   Stefan Grimme, W. Hujo, H. Kruse, P. Pracht,  : VdW corrections, initial TS optimization,
                  C. Bannwarth, S. Ehlert          DFT functionals, gCP, sTDA/sTD-DF
   Ed Valeev, F. Pavosevic, A. Kumar             : LibInt (2-el integral package), F12 methods
   Garnet Chan, S. Sharma, J. Yang, R. Olivares  : DMRG
   Ulf Ekstrom                                   : XCFun DFT Library
   Mihaly Kallay                                 : mrcc  (arbitrary order and MRCC methods)
   Jiri Pittner, Ondrej Demel                    : Mk-CCSD
   Frank Weinhold                                : gennbo (NPA and NBO analysis)
   Christopher J. Cramer and Donald G. Truhlar   : smd solvation model
   Lars Goerigk                                  : TD-DFT with DH, B97 family of functionals
   V. Asgeirsson, H. Jonsson                     : NEB implementation
   FAccTs GmbH                                   : IRC, NEB, NEB-TS, DLPNO-Multilevel, CI-OPT
                                                   MM, QMMM, 2- and 3-layer-ONIOM, Crystal-QMMM,
                                                   LR-CPCM, SF, NACMEs, symmetry and pop. for TD-DFT,
                                                   nearIR, NL-DFT gradient (VV10), updates on ESD,
                                                   ML-optimized integration grids
   S Lehtola, MJT Oliveira, MAL Marques          : LibXC Library
   Liviu Ungur et al                             : ANISO software


 Your calculation uses the libint2 library for the computation of 2-el integrals
 For citations please refer to: http://libint.valeyev.net

 Your ORCA version has been built with support for libXC version: 5.1.0
 For citations please refer to: https://tddft.org/programs/libxc/

 This ORCA versions uses:
   CBLAS   interface :  Fast vector & matrix operations
   LAPACKE interface :  Fast linear algebra routines
   SCALAPACK package :  Parallel linear algebra routines
   Shared memory     :  Shared parallel matrices
   BLAS/LAPACK       :  OpenBLAS 0.3.15  USE64BITINT DYNAMIC_ARCH NO_AFFINITY Sandybridge SINGLE_THREADED
        Core in use  :  Sandybridge
   Copyright (c) 2011-2014, The OpenBLAS Project


================================================================================

----- Orbital basis set information -----
Your calculation utilizes the basis: cc-pVDZ 
       H, B-Ne : Obtained from the ccRepo (grant-hill.group.shef.ac.uk/ccrepo) Feb. 2017
                 T. H. Dunning, Jr., J. Chem. Phys. 90, 1007 (1989)
            He : Obtained from the ccRepo (grant-hill.group.shef.ac.uk/ccrepo) Feb. 2017
                 D. E. Woon, T. H. Dunning, Jr., J. Chem. Phys. 100, 2975 (1994)
  Li-Be, Na-Mg : Obtained from the ccRepo (grant-hill.group.shef.ac.uk/ccrepo) Feb. 2017
                 B. P. Prascher, D. E. Woon, K. A. Peterson, T. H. Dunning, Jr., A. K. Wilson, Theor. Chem. Acc. 128, 69 (2011)
         Al-Ar : Obtained from the ccRepo (grant-hill.group.shef.ac.uk/ccrepo) Feb. 2017
                 D. E. Woon, T. H. Dunning, Jr., J. Chem. Phys. 98, 1358 (1993)
            Ca : Obtained from the Peterson Research Group Website (tyr0.chem.wsu.edu/~kipeters) Feb. 2017
                 J. Koput, K. A. Peterson, J. Phys. Chem. 106, 9595 (2002)
         Sc-Zn : Obtained from the ccRepo (grant-hill.group.shef.ac.uk/ccrepo) Feb. 2017
                 N. B. Balabanov, K. A. Peterson, J. Chem. Phys. 123, 064107 (2005)
                 N. B. Balabanov, K. A. Peterson, J. Chem. Phys. 125, 074110 (2006)
         Ga-Kr : Obtained from the ccRepo (grant-hill.group.shef.ac.uk/ccrepo) Feb. 2017
                 A. K. Wilson, D. E. Woon, K. A. Peterson, T. H. Dunning, Jr., J. Chem. Phys. 110, 7667 (1999)

================================================================================
                                        WARNINGS
                       Please study these warnings very carefully!
================================================================================


WARNING: No MP2 level density has been requested!
         To caclulate MP2 level properties use
         %mp2 Density relaxed end
         or
         %mp2 Density unrelaxed end

WARNING: Post HF methods need fully converged wavefunctions
  ===> : Setting SCFConvForced true
         You can overwrite this default with %scf ConvForced false 


INFO   : the flag for use of the SHARK integral package has been found!

================================================================================
                                       INPUT FILE
================================================================================
NAME = /scratch/allen/tmpyp4_amber_gaff2/2.Mdgx/conf11/conf11/Conf9.orca
|  1> ! PAL2
|  2> ! mp2 cc-pvdz TightSCF  NoKeepInts
|  3> 
|  4> %scf
|  5>   MaxCore 2000
|  6> end
|  7> %mp2
|  8>   MaxCore 2000
|  9> end
| 10> * xyz 0 1
| 11>    C       -3.04100         6.49300        -0.04400
| 12>    C        1.47400         4.04100         0.05700
| 13>    C       -2.80200         4.09300         0.04900
| 14>    C       -4.19400         4.01200         0.21100
| 15>    C       -4.95700         5.16200         0.23600
| 16>    C       -5.22900         7.59100         0.10700
| 17>    C        0.13200         4.30700         0.06100
| 18>    C       -0.56900         3.05600         0.04700
| 19>    C        1.64900         2.61800         0.02300
| 20>    C       -2.23600         5.37100        -0.08200
| 21>    N       -4.37900         6.38000         0.11400
| 22>    N        0.38800         2.06700         0.02500
| 23>    N       -2.01000         0.39500        -0.07500
| 24>    N       -0.38800        -2.07400        -0.02700
| 25>    N        2.01000        -0.40100         0.06500
| 26>    C       -1.96000         2.86100         0.02400
| 27>    C       -2.62300         1.61500        -0.01800
| 28>    C       -5.57300        -4.32900         1.06600
| 29>    C       -4.07300         1.47100         0.05600
| 30>    C       -4.10600        -2.75600        -0.02600
| 31>    C       -4.99500        -2.75700        -1.11100
| 32>    C       -6.13200        -3.54200        -1.07600
| 33>    C       -7.65100        -5.11300         0.04000
| 34>    C       -4.32400         0.14100         0.03700
| 35>    C       -3.02500        -0.52000        -0.04800
| 36>    C       -4.42200        -3.56600         1.07500
| 37>    N       -6.40700        -4.31300         0.00100
| 38>    C       -2.86700        -1.92200        -0.04000
| 39>    C       -1.65000        -2.62400        -0.02700
| 40>    C        3.56800        -6.14200        -1.04000
| 41>    C       -1.47600        -4.04900        -0.03400
| 42>    C        2.80300        -4.09900        -0.00800
| 43>    C        3.65700        -4.38400         1.06900
| 44>    C        4.42700        -5.53000         1.05900
| 45>    C        5.24500        -7.58800         0.01400
| 46>    C       -0.13400        -4.31500        -0.02200
| 47>    C        0.56800        -3.06400        -0.02700
| 48>    C        2.77500        -5.01200        -1.07400
| 49>    N        4.37600        -6.39100         0.01700
| 50>    C        1.95900        -2.86900        -0.00900
| 51>    C        2.62100        -1.62200         0.00900
| 52>    C        5.54300         4.33900        -1.13000
| 53>    C        4.07000        -1.47900        -0.09400
| 54>    C        4.10400         2.75100        -0.02100
| 55>    C        5.02700         2.72900         1.03600
| 56>    C        6.16600         3.50900         0.97800
| 57>    C        7.61900         5.15300        -0.11500
| 58>    C        4.32100        -0.14800        -0.09200
| 59>    C        3.02500         0.51400         0.01500
| 60>    C        4.38700         3.58200        -1.11500
| 61>    C        2.86600         1.91600         0.01300
| 62>    N        6.41300         4.29600        -0.09500
| 63>    H       -2.64600         7.49800        -0.12900
| 64>    H        2.27400         4.76600         0.08100
| 65>    H       -4.69000         3.05400         0.30700
| 66>    H       -6.03300         5.14900         0.35000
| 67>    H       -5.58300         7.77200        -0.91000
| 68>    H       -6.07500         7.43000         0.77600
| 69>    H       -4.63600         8.43700         0.45300
| 70>    H       -0.33200         5.28200         0.06900
| 71>    H       -1.16600         5.50000        -0.19500
| 72>    H        0.18200         1.07200         0.00500
| 73>    H       -0.18300        -1.08000        -0.02100
| 74>    H       -5.86400        -4.96200         1.89500
| 75>    H       -4.79400         2.27200         0.13900
| 76>    H       -4.80000        -2.16000        -1.99400
| 77>    H       -6.84100        -3.58200        -1.89300
| 78>    H       -8.42800        -4.53600         0.54600
| 79>    H       -7.95600        -5.33700        -0.98100
| 80>    H       -7.45600        -6.03700         0.58400
| 81>    H       -5.28700        -0.34400         0.10000
| 82>    H       -3.78000        -3.60100         1.94700
| 83>    H        3.58700        -6.86800        -1.84300
| 84>    H       -2.27600        -4.77400        -0.05000
| 85>    H        3.71400        -3.72400         1.92600
| 86>    H        5.09200        -5.79500         1.87100
| 87>    H        6.20500        -7.32900        -0.43900
| 88>    H        5.39300        -7.91700         1.04200
| 89>    H        4.75900        -8.37300        -0.56400
| 90>    H        0.32900        -5.29000        -0.00800
| 91>    H        2.14600        -4.84200        -1.94000
| 92>    H        5.80800         4.98600        -1.95600
| 93>    H        4.78800        -2.28100        -0.18500
| 94>    H        4.86000         2.11400         1.91200
| 95>    H        6.90100         3.53100         1.77200
| 96>    H        7.38300         6.10900         0.35600
| 97>    H        8.41400         4.65200         0.43500
| 98>    H        7.92100         5.31000        -1.15000
| 99>    H        5.28300         0.33600        -0.17900
|100>    H        3.72000         3.63200        -1.96700
|101> *
|102> 
|103>                          ****END OF INPUT****
================================================================================

                       ****************************
                       * Single Point Calculation *
                       ****************************

---------------------------------
CARTESIAN COORDINATES (ANGSTROEM)
---------------------------------
  C     -3.041000    6.493000   -0.044000
  C      1.474000    4.041000    0.057000
  C     -2.802000    4.093000    0.049000
  C     -4.194000    4.012000    0.211000
  C     -4.957000    5.162000    0.236000
  C     -5.229000    7.591000    0.107000
  C      0.132000    4.307000    0.061000
  C     -0.569000    3.056000    0.047000
  C      1.649000    2.618000    0.023000
  C     -2.236000    5.371000   -0.082000
  N     -4.379000    6.380000    0.114000
  N      0.388000    2.067000    0.025000
  N     -2.010000    0.395000   -0.075000
  N     -0.388000   -2.074000   -0.027000
  N      2.010000   -0.401000    0.065000
  C     -1.960000    2.861000    0.024000
  C     -2.623000    1.615000   -0.018000
  C     -5.573000   -4.329000    1.066000
  C     -4.073000    1.471000    0.056000
  C     -4.106000   -2.756000   -0.026000
  C     -4.995000   -2.757000   -1.111000
  C     -6.132000   -3.542000   -1.076000
  C     -7.651000   -5.113000    0.040000
  C     -4.324000    0.141000    0.037000
  C     -3.025000   -0.520000   -0.048000
  C     -4.422000   -3.566000    1.075000
  N     -6.407000   -4.313000    0.001000
  C     -2.867000   -1.922000   -0.040000
  C     -1.650000   -2.624000   -0.027000
  C      3.568000   -6.142000   -1.040000
  C     -1.476000   -4.049000   -0.034000
  C      2.803000   -4.099000   -0.008000
  C      3.657000   -4.384000    1.069000
  C      4.427000   -5.530000    1.059000
  C      5.245000   -7.588000    0.014000
  C     -0.134000   -4.315000   -0.022000
  C      0.568000   -3.064000   -0.027000
  C      2.775000   -5.012000   -1.074000
  N      4.376000   -6.391000    0.017000
  C      1.959000   -2.869000   -0.009000
  C      2.621000   -1.622000    0.009000
  C      5.543000    4.339000   -1.130000
  C      4.070000   -1.479000   -0.094000
  C      4.104000    2.751000   -0.021000
  C      5.027000    2.729000    1.036000
  C      6.166000    3.509000    0.978000
  C      7.619000    5.153000   -0.115000
  C      4.321000   -0.148000   -0.092000
  C      3.025000    0.514000    0.015000
  C      4.387000    3.582000   -1.115000
  C      2.866000    1.916000    0.013000
  N      6.413000    4.296000   -0.095000
  H     -2.646000    7.498000   -0.129000
  H      2.274000    4.766000    0.081000
  H     -4.690000    3.054000    0.307000
  H     -6.033000    5.149000    0.350000
  H     -5.583000    7.772000   -0.910000
  H     -6.075000    7.430000    0.776000
  H     -4.636000    8.437000    0.453000
  H     -0.332000    5.282000    0.069000
  H     -1.166000    5.500000   -0.195000
  H      0.182000    1.072000    0.005000
  H     -0.183000   -1.080000   -0.021000
  H     -5.864000   -4.962000    1.895000
  H     -4.794000    2.272000    0.139000
  H     -4.800000   -2.160000   -1.994000
  H     -6.841000   -3.582000   -1.893000
  H     -8.428000   -4.536000    0.546000
  H     -7.956000   -5.337000   -0.981000
  H     -7.456000   -6.037000    0.584000
  H     -5.287000   -0.344000    0.100000
  H     -3.780000   -3.601000    1.947000
  H      3.587000   -6.868000   -1.843000
  H     -2.276000   -4.774000   -0.050000
  H      3.714000   -3.724000    1.926000
  H      5.092000   -5.795000    1.871000
  H      6.205000   -7.329000   -0.439000
  H      5.393000   -7.917000    1.042000
  H      4.759000   -8.373000   -0.564000
  H      0.329000   -5.290000   -0.008000
  H      2.146000   -4.842000   -1.940000
  H      5.808000    4.986000   -1.956000
  H      4.788000   -2.281000   -0.185000
  H      4.860000    2.114000    1.912000
  H      6.901000    3.531000    1.772000
  H      7.383000    6.109000    0.356000
  H      8.414000    4.652000    0.435000
  H      7.921000    5.310000   -1.150000
  H      5.283000    0.336000   -0.179000
  H      3.720000    3.632000   -1.967000

----------------------------
CARTESIAN COORDINATES (A.U.)
----------------------------
  NO LB      ZA    FRAG     MASS         X           Y           Z
   0 C     6.0000    0    12.011   -5.746657   12.269992   -0.083148
   1 C     6.0000    0    12.011    2.785456    7.636383    0.107714
   2 C     6.0000    0    12.011   -5.295013    7.734649    0.092597
   3 C     6.0000    0    12.011   -7.925511    7.581581    0.398732
   4 C     6.0000    0    12.011   -9.367372    9.754766    0.445975
   5 C     6.0000    0    12.011   -9.881378   14.344911    0.202201
   6 C     6.0000    0    12.011    0.249444    8.139050    0.115273
   7 C     6.0000    0    12.011   -1.075254    5.775003    0.088817
   8 C     6.0000    0    12.011    3.116158    4.947303    0.043464
   9 C     6.0000    0    12.011   -4.225428   10.149719   -0.154958
  10 N     7.0000    0    14.007   -8.275111   12.056453    0.215429
  11 N     7.0000    0    14.007    0.733214    3.906064    0.047243
  12 N     7.0000    0    14.007   -3.798350    0.746442   -0.141729
  13 N     7.0000    0    14.007   -0.733214   -3.919292   -0.051023
  14 N     7.0000    0    14.007    3.798350   -0.757780    0.122832
  15 C     6.0000    0    12.011   -3.703863    5.406506    0.045353
  16 C     6.0000    0    12.011   -4.956752    3.051908   -0.034015
  17 C     6.0000    0    12.011  -10.531444   -8.180624    2.014448
  18 C     6.0000    0    12.011   -7.696855    2.779787    0.105825
  19 C     6.0000    0    12.011   -7.759216   -5.208085   -0.049133
  20 C     6.0000    0    12.011   -9.439182   -5.209975   -2.099486
  21 C     6.0000    0    12.011  -11.587801   -6.693410   -2.033345
  22 C     6.0000    0    12.011  -14.458295   -9.662170    0.075589
  23 C     6.0000    0    12.011   -8.171176    0.266451    0.069920
  24 C     6.0000    0    12.011   -5.716422   -0.982658   -0.090707
  25 C     6.0000    0    12.011   -8.356369   -6.738763    2.031456
  26 N     7.0000    0    14.007  -12.107475   -8.150389    0.001890
  27 C     6.0000    0    12.011   -5.417845   -3.632054   -0.075589
  28 C     6.0000    0    12.011   -3.118048   -4.958641   -0.051023
  29 C     6.0000    0    12.011    6.742543  -11.606698   -1.965315
  30 C     6.0000    0    12.011   -2.789236   -7.651501   -0.064251
  31 C     6.0000    0    12.011    5.296902   -7.745987   -0.015118
  32 C     6.0000    0    12.011    6.910728   -8.284559    2.020117
  33 C     6.0000    0    12.011    8.365818  -10.450186    2.001220
  34 C     6.0000    0    12.011    9.911614  -14.339242    0.026456
  35 C     6.0000    0    12.011   -0.253223   -8.154168   -0.041574
  36 C     6.0000    0    12.011    1.073364   -5.790121   -0.051023
  37 C     6.0000    0    12.011    5.243990   -9.471307   -2.029566
  38 N     7.0000    0    14.007    8.269442  -12.077240    0.032125
  39 C     6.0000    0    12.011    3.701973   -5.421624   -0.017008
  40 C     6.0000    0    12.011    4.952972   -3.065136    0.017008
  41 C     6.0000    0    12.011   10.474752    8.199522   -2.135391
  42 C     6.0000    0    12.011    7.691185   -2.794905   -0.177634
  43 C     6.0000    0    12.011    7.755436    5.198637   -0.039684
  44 C     6.0000    0    12.011    9.499653    5.157063    1.957756
  45 C     6.0000    0    12.011   11.652051    6.631049    1.848152
  46 C     6.0000    0    12.011   14.397823    9.737759   -0.217319
  47 C     6.0000    0    12.011    8.165507   -0.279679   -0.173855
  48 C     6.0000    0    12.011    5.716422    0.971319    0.028346
  49 C     6.0000    0    12.011    8.290229    6.768999   -2.107045
  50 C     6.0000    0    12.011    5.415955    3.620715    0.024566
  51 N     7.0000    0    14.007   12.118814    8.118263   -0.179524
  52 H     1.0000    0     1.008   -5.000215   14.169167   -0.243775
  53 H     1.0000    0     1.008    4.297237    9.006435    0.153068
  54 H     1.0000    0     1.008   -8.862816    5.771224    0.580146
  55 H     1.0000    0     1.008  -11.400718    9.730200    0.661404
  56 H     1.0000    0     1.008  -10.550341   14.686952   -1.719651
  57 H     1.0000    0     1.008  -11.480086   14.040665    1.466427
  58 H     1.0000    0     1.008   -8.760770   15.943619    0.856046
  59 H     1.0000    0     1.008   -0.627389    9.981533    0.130391
  60 H     1.0000    0     1.008   -2.203421   10.393494   -0.368497
  61 H     1.0000    0     1.008    0.343930    2.025786    0.009449
  62 H     1.0000    0     1.008   -0.345820   -2.040904   -0.039684
  63 H     1.0000    0     1.008  -11.081354   -9.376821    3.581031
  64 H     1.0000    0     1.008   -9.059347    4.293458    0.262672
  65 H     1.0000    0     1.008   -9.070685   -4.081808   -3.768114
  66 H     1.0000    0     1.008  -12.927616   -6.768999   -3.577252
  67 H     1.0000    0     1.008  -15.926612   -8.571798    1.031790
  68 H     1.0000    0     1.008  -15.034661  -10.085468   -1.853821
  69 H     1.0000    0     1.008  -14.089798  -11.408277    1.103600
  70 H     1.0000    0     1.008   -9.990982   -0.650066    0.188973
  71 H     1.0000    0     1.008   -7.143165   -6.804904    3.679297
  72 H     1.0000    0     1.008    6.778448  -12.978639   -3.482765
  73 H     1.0000    0     1.008   -4.301017   -9.021553   -0.094486
  74 H     1.0000    0     1.008    7.018443   -7.037340    3.639613
  75 H     1.0000    0     1.008    9.622485  -10.950963    3.535678
  76 H     1.0000    0     1.008   11.725751  -13.849803   -0.829590
  77 H     1.0000    0     1.008   10.191293  -14.960962    1.969095
  78 H     1.0000    0     1.008    8.993207  -15.822677   -1.065806
  79 H     1.0000    0     1.008    0.621720   -9.996651   -0.015118
  80 H     1.0000    0     1.008    4.055352   -9.150054   -3.666069
  81 H     1.0000    0     1.008   10.975529    9.422175   -3.696304
  82 H     1.0000    0     1.008    9.048009   -4.310465   -0.349599
  83 H     1.0000    0     1.008    9.184069    3.994881    3.613156
  84 H     1.0000    0     1.008   13.041000    6.672623    3.348595
  85 H     1.0000    0     1.008   13.951848   11.544337    0.672743
  86 H     1.0000    0     1.008   15.900156    8.791006    0.822031
  87 H     1.0000    0     1.008   14.968521   10.034446   -2.173185
  88 H     1.0000    0     1.008    9.983423    0.634948   -0.338261
  89 H     1.0000    0     1.008    7.029781    6.863485   -3.717091

--------------------------------
INTERNAL COORDINATES (ANGSTROEM)
--------------------------------
 C      0   0   0     0.000000000000     0.00000000     0.00000000
 C      1   0   0     5.138845201015     0.00000000     0.00000000
 C      1   2   0     2.413663191085    55.79156771     0.00000000
 C      3   1   2     1.403733949151    87.91577212   173.42183560
 C      4   3   1     1.380323875038   120.14324788     0.19141912
 C      5   4   3     2.447583706434   152.53424857     1.51442611
 C      2   1   3     1.368114030335    17.34141124   357.73181241
 C      7   2   1     1.434084376876   108.05010202   175.03847226
 C      2   1   3     1.434123425651   125.46427526     4.37583951
 C      1   2   3     1.381431503912    25.97466127   352.17366711
 N      1   2   3     1.352026996772   145.82345303    11.80636333
 N      9   2   1     1.376127174356   106.58526707   357.15684363
 N     12   9   2     2.925062050624   168.53581413   171.12065651
 N     13  12   9     2.954513327098    91.55032014    11.12112580
 N     14  13  12     2.925371258490    88.43092389   359.84326247
 C      8   7   2     1.404790019896   127.24786865   181.11170171
 C     13  12   9     1.366535034311    81.72106996   188.00453233
 C     14  13  12     5.758810554272    80.56209567   166.76250791
 C     17  13  12     1.459010623676   111.08861209   183.82872609
 C     18  14  13     2.412235892279    27.27532823    36.33507194
 C     20  18  14     1.402692767501    87.95206320   148.94598259
 C     21  20  18     1.382106725257   120.14573887   359.70382047
 C     18  14  13     2.446510985056   144.15733107    82.80075377
 C     19  17  13     1.353610726908   106.29293361   359.75308708
 C     13  12   9     1.366813447402   172.21332906    33.46711076
 C     18  14  13     1.380960173213    15.08449437   309.23336894
 N     22  21  20     1.352773077792   120.73759875     0.27865223
 C     25  13  17     1.410897586645   125.60330303   182.37774668
 C     14  13  12     1.376642291955    80.24689249   177.85461986
 C     14  13  12     5.764089607215   164.51507311   312.20821879
 C     29  14  13     1.435600919476   106.58649366   178.76395472
 C     30  14  13     2.413316804732    27.10625047    82.12560436
 C     32  30  14     1.403734305344    87.90059683   149.76154742
 C     33  32  30     1.380694028378   120.14881443   359.74174632
 C     34  33  32     2.448777858443   152.49203239     2.45173620
 C     31  29  14     1.368160809262   108.16950133     0.70383075
 C     14  13  12     1.376239804685   169.26375223   353.09862627
 C     30  14  13     1.380907310430    14.68948582   353.70041132
 N     34  33  32     1.352658863128   120.85575621     0.19603406
 C     37  14  29     1.404717053360   126.01551127   180.90772073
 C     15  14  13     1.366491126938    81.61824056   183.09049352
 C      2   1   3     4.249062720177   143.36133782   152.25873761
 C     41  15  14     1.459677704153   111.05201287   175.08990246
 C     42   2   1     2.412953791518    41.78584867   182.05501960
 C     44  42   2     1.403446472082    87.95153797   233.97558675
 C     45  44  42     1.381696421071   120.11137308     0.19721020
 C     42   2   1     2.450019795838   135.97209175    92.36986870
 C     43  41  15     1.354461516618   106.26758155     0.30894352
 C     15  14  13     1.367461151185   171.87382904   332.35056460
 C     42   2   1     1.381886391857    32.59078432   230.91029879
 C      9   2   1     1.404988612053   126.98745415   178.16118116
 N     42   2   1     1.352765315936   113.57249190   120.10645790
 H      1   2   3     1.083178194020    97.11471882   182.49100497
 H      2   1   3     1.079907866440   109.32780135   182.85930252
 H      4   3   1     1.083049398689   121.02474817   179.49597537
 H      5   4   3     1.082100272618   122.78932922   179.46414168
 H      6   5   4     1.091955127283   104.45464418   100.18228753
 H      6   5   4     1.090503553410    84.68465484   209.64214300
 H      6   5   4     1.089532468539   133.89684374   322.42359997
 H      7   2   1     1.079807853278   126.66122480   355.27688604
 H     60   7   2     0.901540903121   127.85622395   157.98068331
 H     12   9   2     1.016297692608   125.29023241   180.00180175
 H     14  13  12     1.014936943854    44.97226959   359.42596618
 H     18  14  13     1.082871645210   128.03556573   234.20482432
 H     55   4   3     0.806575476939   153.91939627   323.57944517
 H     21  20  18     1.083569563987   121.05669627   180.67006309
 H     22  21  20     1.082483256222   122.73097286   180.59748951
 H     23  18  14     1.092105306278   103.92715769   234.93429879
 H     23  18  14     1.088871893291   134.19244188    12.25587044
 H     23  18  14     1.089833473518    84.85857450   125.45241208
 H     24  19  17     1.080075460327   127.28078426   178.44613241
 H     26  18  14     1.083408048706   118.76995697   244.94906660
 H     30  14  13     1.082703098730   127.99711412   279.66882698
 H     31  29  14     1.079759695488   125.22293469   180.92530585
 H     33  32  30     1.083188810873   121.01964473   180.74284758
 H     34  33  32     1.082494341787   122.70821597   180.59516895
 H     35  34  33     1.092652735319   105.73575241    97.19771933
 H     35  34  33     1.089462711615    84.05943581   206.43036958
 H     35  34  33     1.089268102902   133.08365142   318.50306270
 H     36  31  29     1.079439669458   126.61599965   178.98859863
 H     38  30  73     1.083742127999   118.77264435   359.90091293
 H     42   2   1     1.082178358682   119.31790784   336.73798835
 H     43  41  15     1.080281907652   126.36969097   182.06329380
 H     45  44  42     1.083277434455   121.10105945   179.58025624
 H     46  45  44     1.082194529648   122.72144639   179.46906377
 H     47  42   2     1.091546151109   106.65128841   315.16475048
 H     47  42   2     1.088818625851   132.46019523    94.52397119
 H     47  42   2     1.089531091801    83.63838232   206.04504406
 H     48  43  41     1.080402239909   127.23657387   181.62955349
 H     50  42   2     1.083186502870   118.77001737    94.71359229

---------------------------
INTERNAL COORDINATES (A.U.)
---------------------------
 C      0   0   0     0.000000000000     0.00000000     0.00000000
 C      1   0   0     9.711010074535     0.00000000     0.00000000
 C      1   2   0     4.561162410678    55.79156771     0.00000000
 C      3   1   2     2.652672728784    87.91577212   173.42183560
 C      4   3   1     2.608434099935   120.14324788     0.19141912
 C      5   4   3     4.625262895008   152.53424857     1.51442611
 C      2   1   3     2.585360837309    17.34141124   357.73181241
 C      7   2   1     2.710026725231   108.05010202   175.03847226
 C      2   1   3     2.710100516721   125.46427526     4.37583951
 C      1   2   3     2.610527215164    25.97466127   352.17366711
 N      1   2   3     2.554960749567   145.82345303    11.80636333
 N      9   2   1     2.600503484979   106.58526707   357.15684363
 N     12   9   2     5.527566200405   168.53581413   171.12065651
 N     13  12   9     5.583221047236    91.55032014    11.12112580
 N     14  13  12     5.528150518591    88.43092389   359.84326247
 C      8   7   2     2.654668413270   127.24786865   181.11170171
 C     13  12   9     2.582376967257    81.72106996   188.00453233
 C     14  13  12    10.882574804710    80.56209567   166.76250791
 C     17  13  12     2.757130505230   111.08861209   183.82872609
 C     18  14  13     4.558465206823    27.27532823    36.33507194
 C     20  18  14     2.650705180609    87.95206320   148.94598259
 C     21  20  18     2.611803198586   120.14573887   359.70382047
 C     18  14  13     4.623235745386   144.15733107    82.80075377
 C     19  17  13     2.557953565794   106.29293361   359.75308708
 C     13  12   9     2.582903091751   172.21332906    33.46711076
 C     18  14  13     2.609636529225    15.08449437   309.23336894
 N     22  21  20     2.556370638369   120.73759875     0.27865223
 C     25  13  17     2.666210041769   125.60330303   182.37774668
 C     14  13  12     2.601476916169    80.24689249   177.85461986
 C     14  13  12    10.892550769017   164.51507311   312.20821879
 C     29  14  13     2.712892575415   106.58649366   178.76395472
 C     30  14  13     4.560507835333    27.10625047    82.12560436
 C     32  30  14     2.652673401891    87.90059683   149.76154742
 C     33  32  30     2.609133588376   120.14881443   359.74174632
 C     34  33  32     4.627519515267   152.49203239     2.45173620
 C     31  29  14     2.585449236669   108.16950133     0.70383075
 C     14  13  12     2.600716325456   169.26375223   353.09862627
 C     30  14  13     2.609536633043    14.68948582   353.70041132
 N     34  33  32     2.556154803934   120.85575621     0.19603406
 C     37  14  29     2.654530526499   126.01551127   180.90772073
 C     15  14  13     2.582293994346    81.61824056   183.09049352
 C      2   1   3     8.029564866989   143.36133782   152.25873761
 C     41  15  14     2.758391104639   111.05201287   175.08990246
 C     42   2   1     4.559821839776    41.78584867   182.05501960
 C     44  42   2     2.652129475853    87.95153797   233.97558675
 C     45  44  42     2.611027836043   120.11137308     0.19721020
 C     42   2   1     4.629866436820   135.97209175    92.36986870
 C     43  41  15     2.559561325344   106.26758155     0.30894352
 C     15  14  13     2.584127074516   171.87382904   332.35056460
 C     42   2   1     2.611386828803    32.59078432   230.91029879
 C      9   2   1     2.655043698059   126.98745415   178.16118116
 N     42   2   1     2.556355970587   113.57249190   120.10645790
 H      1   2   3     2.046910140933    97.11471882   182.49100497
 H      2   1   3     2.040730117440   109.32780135   182.85930252
 H      4   3   1     2.046666753030   121.02474817   179.49597537
 H      5   4   3     2.044873164690   122.78932922   179.46414168
 H      6   5   4     2.063496141096   104.45464418   100.18228753
 H      6   5   4     2.060753064013    84.68465484   209.64214300
 H      6   5   4     2.058917979553   133.89684374   322.42359997
 H      7   2   1     2.040541119952   126.66122480   355.27688604
 H     60   7   2     1.703665405426   127.85622395   157.98068331
 H     12   9   2     1.920524309565   125.29023241   180.00180175
 H     14  13  12     1.917952867083    44.97226959   359.42596618
 H     18  14  13     2.046330847636   128.03556573   234.20482432
 H     55   4   3     1.524206757752   153.91939627   323.57944517
 H     21  20  18     2.047649722989   121.05669627   180.67006309
 H     22  21  20     2.045596898814   122.73097286   180.59748951
 H     23  18  14     2.063779938267   103.92715769   234.93429879
 H     23  18  14     2.057669673245   134.19244188    12.25587044
 H     23  18  14     2.059486796529    84.85857450   125.45241208
 H     24  19  17     2.041046823986   127.28078426   178.44613241
 H     26  18  14     2.047344503340   118.76995697   244.94906660
 H     30  14  13     2.046012340948   127.99711412   279.66882698
 H     31  29  14     2.040450114918   125.22293469   180.92530585
 H     33  32  30     2.046930203877   121.01964473   180.74284758
 H     34  33  32     2.045617847496   122.70821597   180.59516895
 H     35  34  33     2.064814429233   105.73575241    97.19771933
 H     35  34  33     2.058786158072    84.05943581   206.43036958
 H     35  34  33     2.058418400901   133.08365142   318.50306270
 H     36  31  29     2.039845353366   126.61599965   178.98859863
 H     38  30  73     2.047975821711   118.77264435   359.90091293
 H     42   2   1     2.045020725966   119.31790784   336.73798835
 H     43  41  15     2.041436952892   126.36969097   182.06329380
 H     45  44  42     2.047097678177   121.10105945   179.58025624
 H     46  45  44     2.045051284662   122.72144639   179.46906377
 H     47  42   2     2.062723288131   106.65128841   315.16475048
 H     47  42   2     2.057569012371   132.46019523    94.52397119
 H     47  42   2     2.058915377895    83.63838232   206.04504406
 H     48  43  41     2.041664347903   127.23657387   181.62955349
 H     50  42   2     2.046925842384   118.77001737    94.71359229

---------------------
BASIS SET INFORMATION
---------------------
There are 3 groups of distinct atoms

 Group   1 Type C   : 17s4p1d contracted to 3s2p1d pattern {881/31/1}
 Group   2 Type N   : 17s4p1d contracted to 3s2p1d pattern {881/31/1}
 Group   3 Type H   : 4s1p contracted to 2s1p pattern {31/1}

Atom   0C    basis set group =>   1
Atom   1N    basis set group =>   2
Atom   2C    basis set group =>   1
Atom   3N    basis set group =>   2
Atom   4C    basis set group =>   1
Atom   5N    basis set group =>   2
Atom   6C    basis set group =>   1
Atom   7N    basis set group =>   2
Atom   8C    basis set group =>   1
Atom   9N    basis set group =>   2
Atom  10C    basis set group =>   1
Atom  11N    basis set group =>   2
Atom  12C    basis set group =>   1
Atom  13N    basis set group =>   2
Atom  14C    basis set group =>   1
Atom  15N    basis set group =>   2
Atom  16C    basis set group =>   1
Atom  17C    basis set group =>   1
Atom  18C    basis set group =>   1
Atom  19C    basis set group =>   1
Atom  20C    basis set group =>   1
Atom  21C    basis set group =>   1
Atom  22C    basis set group =>   1
Atom  23C    basis set group =>   1
Atom  24C    basis set group =>   1
Atom  25C    basis set group =>   1
Atom  26C    basis set group =>   1
Atom  27C    basis set group =>   1
Atom  28C    basis set group =>   1
Atom  29C    basis set group =>   1
Atom  30C    basis set group =>   1
Atom  31C    basis set group =>   1
Atom  32C    basis set group =>   1
Atom  33C    basis set group =>   1
Atom  34C    basis set group =>   1
Atom  35C    basis set group =>   1
Atom  36C    basis set group =>   1
Atom  37C    basis set group =>   1
Atom  38C    basis set group =>   1
Atom  39C    basis set group =>   1
Atom  40C    basis set group =>   1
Atom  41C    basis set group =>   1
Atom  42C    basis set group =>   1
Atom  43C    basis set group =>   1
Atom  44C    basis set group =>   1
Atom  45C    basis set group =>   1
Atom  46C    basis set group =>   1
Atom  47C    basis set group =>   1
Atom  48C    basis set group =>   1
Atom  49C    basis set group =>   1
Atom  50C    basis set group =>   1
Atom  51C    basis set group =>   1
Atom  52H    basis set group =>   3
Atom  53H    basis set group =>   3
Atom  54H    basis set group =>   3
Atom  55H    basis set group =>   3
Atom  56H    basis set group =>   3
Atom  57H    basis set group =>   3
Atom  58H    basis set group =>   3
Atom  59H    basis set group =>   3
Atom  60H    basis set group =>   3
Atom  61H    basis set group =>   3
Atom  62H    basis set group =>   3
Atom  63H    basis set group =>   3
Atom  64H    basis set group =>   3
Atom  65H    basis set group =>   3
Atom  66H    basis set group =>   3
Atom  67H    basis set group =>   3
Atom  68H    basis set group =>   3
Atom  69H    basis set group =>   3
Atom  70H    basis set group =>   3
Atom  71H    basis set group =>   3
Atom  72H    basis set group =>   3
Atom  73H    basis set group =>   3
Atom  74H    basis set group =>   3
Atom  75H    basis set group =>   3
Atom  76H    basis set group =>   3
Atom  77H    basis set group =>   3
Atom  78H    basis set group =>   3
Atom  79H    basis set group =>   3
Atom  80H    basis set group =>   3
Atom  81H    basis set group =>   3
Atom  82H    basis set group =>   3
Atom  83H    basis set group =>   3
Atom  84H    basis set group =>   3
Atom  85H    basis set group =>   3
Atom  86H    basis set group =>   3
Atom  87H    basis set group =>   3
Atom  88H    basis set group =>   3
Atom  89H    basis set group =>   3


           ************************************************************
           *        Program running with 16 parallel MPI-processes    *
           *              working on a common directory               *
           ************************************************************
------------------------------------------------------------------------------
                           ORCA GTO INTEGRAL CALCULATION
------------------------------------------------------------------------------
------------------------------------------------------------------------------
                   ___                                                        
                  /   \      - P O W E R E D   B Y -                         
                 /     \                                                     
                 |  |  |   _    _      __       _____    __    __             
                 |  |  |  | |  | |    /  \     |  _  \  |  |  /  |          
                  \  \/   | |  | |   /    \    | | | |  |  | /  /          
                 / \  \   | |__| |  /  /\  \   | |_| |  |  |/  /          
                |  |  |   |  __  | /  /__\  \  |    /   |      \           
                |  |  |   | |  | | |   __   |  |    \   |  |\   \          
                \     /   | |  | | |  |  |  |  | |\  \  |  | \   \       
                 \___/    |_|  |_| |__|  |__|  |_| \__\ |__|  \__/        
                                                                              
                      - O R C A' S   B I G   F R I E N D -                    
                                      &                                       
                       - I N T E G R A L  F E E D E R -                       
                                                                              
 v1 FN, 2020, v2 2021                                                         
------------------------------------------------------------------------------


Reading SHARK input file /scratch/allen/tmpyp4_amber_gaff2/conf1/conf1/Conf9.orca.SHARKINP.tmp ... ok
----------------------
SHARK INTEGRAL PACKAGE
----------------------

Number of atoms                             ...     90
Number of basis functions                   ...   1230
Number of shells                            ...    738
Maximum angular momentum                    ...      2
Integral batch strategy                     ... SHARK/LIBINT Hybrid
RI-J (if used) integral strategy            ... SPLIT-RIJ (Revised 2003 algorithm where possible)
Printlevel                                  ...      1
Contraction scheme used                     ... PARTIAL GENERAL contraction
Coulomb Range Separation                    ... NOT USED
Exchange Range Separation                   ... NOT USED
Finite Nucleus Model                        ... NOT USED
Auxiliary Coulomb fitting basis             ... NOT available
Auxiliary J/K fitting basis                 ... NOT available
Auxiliary Correlation fitting basis         ... NOT available
Auxiliary 'external' fitting basis          ... NOT available
Integral threshold                          ...     2.500000e-11
Primitive cut-off                           ...     2.500000e-12
Primitive pair pre-selection threshold      ...     2.500000e-12

Calculating pre-screening integrals         ... done (  0.1 sec) Dimension = 738
Calculating pre-screening integrals (ORCA)  ... done (  0.3 sec) Dimension = 426
Organizing shell pair data                  ... done (  0.8 sec)
Shell pair information
Total number of shell pairs                 ...    272691
Shell pairs after pre-screening             ...     71732
Total number of primitive shell pairs       ...    422091
Primitive shell pairs kept                  ...     92635
          la=0 lb=0:  29445 shell pairs
          la=1 lb=0:  26035 shell pairs
          la=1 lb=1:   4700 shell pairs
          la=2 lb=0:   7893 shell pairs
          la=2 lb=1:   3130 shell pairs
          la=2 lb=2:    529 shell pairs

Calculating one electron integrals          ... done (  0.3 sec)
Calculating Nuclear repulsion               ... done (  0.0 sec) ENN=   6235.591497041975 Eh

SHARK setup successfully completed in   2.4 seconds

Maximum memory used throughout the entire GTOINT-calculation: 99.1 MB


           ************************************************************
           *        Program running with 16 parallel MPI-processes    *
           *              working on a common directory               *
           ************************************************************
-------------------------------------------------------------------------------
                                 ORCA SCF
-------------------------------------------------------------------------------

------------
SCF SETTINGS
------------
Hamiltonian:
 Ab initio Hamiltonian  Method          .... Hartree-Fock(GTOs)


General Settings:
 Integral files         IntName         .... /scratch/allen/tmpyp4_amber_gaff2/conf1/conf1/Conf9.orca
 Hartree-Fock type      HFTyp           .... RHF
 Total Charge           Charge          ....    0
 Multiplicity           Mult            ....    1
 Number of Electrons    NEL             ....  358
 Basis Dimension        Dim             ....  918
 Nuclear Repulsion      ENuc            ....   6235.5914970420 Eh

Convergence Acceleration:
 DIIS                   CNVDIIS         .... on
   Start iteration      DIISMaxIt       ....    12
   Startup error        DIISStart       ....  0.200000
   # of expansion vecs  DIISMaxEq       ....     5
   Bias factor          DIISBfac        ....   1.050
   Max. coefficient     DIISMaxC        ....  10.000
 Trust-Rad. Augm. Hess. CNVTRAH         .... auto
   Auto Start mean grad. ratio tolernc. ....  1.125000
   Auto Start start iteration           ....    20
   Auto Start num. interpolation iter.  ....    10
   Max. Number of Micro iterations      ....    16
   Max. Number of Macro iterations      .... Maxiter - #DIIS iter
   Number of Davidson start vectors     ....     2
   Converg. threshold I  (grad. norm)   ....   1.000e-05
   Converg. threshold II (energy diff.) ....   1.000e-08
   Grad. Scal. Fac. for Micro threshold ....   0.100
   Minimum threshold for Micro iter.    ....   0.010
   NR start threshold (gradient norm)   ....   0.001
   Initial trust radius                 ....   0.400
   Minimum AH scaling param. (alpha)    ....   1.000
   Maximum AH scaling param. (alpha)    .... 1000.000
   Orbital update algorithm             .... Taylor
   White noise on init. David. guess    .... on
   Maximum white noise                  ....   0.010
   Quad. conv. algorithm                .... NR
 SOSCF                  CNVSOSCF        .... on
   Start iteration      SOSCFMaxIt      ....   150
   Startup grad/error   SOSCFStart      ....  0.003300
 Level Shifting         CNVShift        .... on
   Level shift para.    LevelShift      ....    0.2500
   Turn off err/grad.   ShiftErr        ....    0.0010
 Zerner damping         CNVZerner       .... off
 Static damping         CNVDamp         .... on
   Fraction old density DampFac         ....    0.7000
   Max. Damping (<1)    DampMax         ....    0.9800
   Min. Damping (>=0)   DampMin         ....    0.0000
   Turn off err/grad.   DampErr         ....    0.1000
 Fernandez-Rico         CNVRico         .... off

SCF Procedure:
 Maximum # iterations   MaxIter         ....   125
 SCF integral mode      SCFMode         .... Direct
   Integral package                     .... SHARK and LIBINT hybrid scheme
 Reset frequency        DirectResetFreq ....    20
 Integral Threshold     Thresh          ....  2.500e-11 Eh
 Primitive CutOff       TCut            ....  2.500e-12 Eh

Convergence Tolerance:
 Convergence Check Mode ConvCheckMode   .... Total+1el-Energy
 Convergence forced     ConvForced      .... 1
 Energy Change          TolE            ....  1.000e-08 Eh
 1-El. energy change                    ....  1.000e-05 Eh
 Orbital Gradient       TolG            ....  1.000e-05
 Orbital Rotation angle TolX            ....  1.000e-05
 DIIS Error             TolErr          ....  5.000e-07


Diagonalization of the overlap matrix:
Smallest eigenvalue                        ... 1.697e-04
Time for diagonalization                   ...    0.383 sec
Threshold for overlap eigenvalues          ... 1.000e-08
Number of eigenvalues below threshold      ... 0
Time for construction of square roots      ...    0.248 sec
Total time needed                          ...    0.637 sec

Time for model grid setup =    1.051 sec

------------------------------
INITIAL GUESS: MODEL POTENTIAL
------------------------------
Loading Hartree-Fock densities                     ... done
Calculating cut-offs                               ... done
Initializing the effective Hamiltonian             ... done
Setting up the integral package (SHARK)            ... done
Starting the Coulomb interaction                   ... done (   1.2 sec)
Reading the grid                                   ... done
Mapping shells                                     ... done
Starting the XC term evaluation                    ... done (   0.2 sec)
Transforming the Hamiltonian                       ... done (   0.2 sec)
Diagonalizing the Hamiltonian                      ... done (   0.3 sec)
Back transforming the eigenvectors                 ... done (   0.1 sec)
Now organizing SCF variables                       ... done
                      ------------------
                      INITIAL GUESS DONE (   3.1 sec)
                      ------------------
--------------
SCF ITERATIONS
--------------
ITER       Energy         Delta-E        Max-DP      RMS-DP      [F,P]     Damp
               ***  Starting incremental Fock matrix formation  ***
  0  -2121.5648706987   0.000000000000 0.07464502  0.00130547  0.2310972 0.7000
  1  -2122.2037303206  -0.638859621833 0.06614949  0.00106316  0.1434482 0.7000
                               ***Turning on DIIS***
  2  -2122.6029164659  -0.399186145312 0.13347377  0.00240480  0.0803252 0.0000
  3  -2118.0455459353   4.557370530583 0.09488113  0.00073615  0.0434030 0.0000
  4  -2123.3082435263  -5.262697591023 0.02803671  0.00024068  0.0093686 0.0000
  5  -2123.4302295958  -0.121986069546 0.01228904  0.00013675  0.0048126 0.0000
  6  -2123.4140729901   0.016156605707 0.00696642  0.00008654  0.0022697 0.0000
  7  -2123.5056507179  -0.091577727739 0.00415199  0.00006741  0.0016306 0.0000
  8  -2123.5112578890  -0.005607171151 0.00332758  0.00006419  0.0015287 0.0000
  9  -2123.4854005345   0.025857354574 0.00267851  0.00004593  0.0012307 0.0000
 10  -2123.4926364828  -0.007235948293 0.00538914  0.00009632  0.0009661 0.0000
                      *** Initiating the SOSCF procedure ***
                           *** Shutting down DIIS ***
                      *** Re-Reading the Fockian *** 
                      *** Removing any level shift *** 
ITER      Energy       Delta-E        Grad      Rot      Max-DP    RMS-DP
 11  -2123.38739073   0.1052457556  0.000184  0.000184  0.000249  0.000005
               *** Restarting incremental Fock matrix formation ***
 12  -2123.45306571  -0.0656749871  0.000942  0.006303  0.001499  0.000035
 13  -2123.45317808  -0.0001123695  0.001151  0.031246  0.006809  0.000137
 14  -2123.45336366  -0.0001855812  0.000394  0.001931  0.000618  0.000013
 15  -2123.45337892  -0.0000152595  0.000194  0.002355  0.000497  0.000013
 16  -2123.45338569  -0.0000067618  0.000130  0.002039  0.000493  0.000009
 17  -2123.45338842  -0.0000027368  0.000132  0.002128  0.000301  0.000008
 18  -2123.45338973  -0.0000013117  0.000060  0.001271  0.000217  0.000005
 19  -2123.45339056  -0.0000008223  0.000047  0.001898  0.000276  0.000006
 20  -2123.45339112  -0.0000005642  0.000029  0.001078  0.000152  0.000004
 21  -2123.45339138  -0.0000002565  0.000028  0.001286  0.000183  0.000004
 22  -2123.45339163  -0.0000002511  0.000026  0.001067  0.000163  0.000003
 23  -2123.45339178  -0.0000001485  0.000016  0.000382  0.000067  0.000001
 24  -2123.45339183  -0.0000000531  0.000009  0.000248  0.000055  0.000001
 25  -2123.45339186  -0.0000000283  0.000008  0.000129  0.000042  0.000001
 26  -2123.45339187  -0.0000000130  0.000006  0.000077  0.000028  0.000000
 27  -2123.45339187   0.0000000011  0.000003  0.000061  0.000020  0.000000
                  ***Gradient check signals convergence***
              ***Rediagonalizing the Fockian in SOSCF/NRSCF***

               *****************************************************
               *                     SUCCESS                       *
               *           SCF CONVERGED AFTER  28 CYCLES          *
               *****************************************************


----------------
TOTAL SCF ENERGY
----------------

Total Energy       :        -2123.45339187 Eh          -57782.10438 eV

Components:
Nuclear Repulsion  :         6235.59149704 Eh          169679.07095 eV
Electronic Energy  :        -8359.04488891 Eh         -227461.17533 eV
One Electron Energy:       -15311.59340639 Eh         -416649.63865 eV
Two Electron Energy:         6952.54851748 Eh          189188.46332 eV

Virial components:
Potential Energy   :        -4246.08066298 Eh         -115541.72887 eV
Kinetic Energy     :         2122.62727111 Eh           57759.62449 eV
Virial Ratio       :            2.00038920


---------------
SCF CONVERGENCE
---------------

  Last Energy change         ...    1.0059e-09  Tolerance :   1.0000e-08
  Last MAX-Density change    ...    9.6750e-06  Tolerance :   1.0000e-07
  Last RMS-Density change    ...    1.6772e-07  Tolerance :   5.0000e-09
  Last Orbital Gradient      ...    1.8260e-06  Tolerance :   1.0000e-05
  Last Orbital Rotation      ...    3.2541e-05  Tolerance :   1.0000e-05

             **** THE GBW FILE WAS UPDATED (/scratch/allen/tmpyp4_amber_gaff2/conf1/conf1/Conf9.orca.gbw) ****
             **** DENSITY /scratch/allen/tmpyp4_amber_gaff2/conf1/conf1/Conf9.orca.scfp WAS UPDATED ****
             **** ENERGY FILE WAS UPDATED (/scratch/allen/tmpyp4_amber_gaff2/conf1/conf1/Conf9.orca.en.tmp) ****
             **** THE GBW FILE WAS UPDATED (/scratch/allen/tmpyp4_amber_gaff2/conf1/conf1/Conf9.orca.gbw) ****
             **** DENSITY /scratch/allen/tmpyp4_amber_gaff2/conf1/conf1/Conf9.orca.scfp WAS UPDATED ****
----------------
ORBITAL ENERGIES
----------------

  NO   OCC          E(Eh)            E(eV) 
   0   2.0000     -15.679983      -426.6740 
   1   2.0000     -15.632903      -425.3929 
   2   2.0000     -15.632809      -425.3904 
   3   2.0000     -15.588102      -424.1738 
   4   2.0000     -15.524835      -422.4522 
   5   2.0000     -15.515467      -422.1973 
   6   2.0000     -15.454036      -420.5257 
   7   2.0000     -15.439353      -420.1262 
   8   2.0000     -11.329444      -308.2899 
   9   2.0000     -11.328657      -308.2684 
  10   2.0000     -11.328044      -308.2517 
  11   2.0000     -11.299033      -307.4623 
  12   2.0000     -11.298620      -307.4511 
  13   2.0000     -11.292148      -307.2750 
  14   2.0000     -11.292072      -307.2729 
  15   2.0000     -11.287396      -307.1457 
  16   2.0000     -11.285515      -307.0945 
  17   2.0000     -11.282205      -307.0044 
  18   2.0000     -11.269533      -306.6596 
  19   2.0000     -11.263461      -306.4943 
  20   2.0000     -11.262457      -306.4670 
  21   2.0000     -11.251486      -306.1685 
  22   2.0000     -11.247631      -306.0636 
  23   2.0000     -11.237620      -305.7912 
  24   2.0000     -11.236638      -305.7645 
  25   2.0000     -11.230523      -305.5981 
  26   2.0000     -11.230357      -305.5935 
  27   2.0000     -11.230281      -305.5915 
  28   2.0000     -11.229557      -305.5718 
  29   2.0000     -11.210699      -305.0586 
  30   2.0000     -11.209288      -305.0202 
  31   2.0000     -11.194036      -304.6052 
  32   2.0000     -11.192071      -304.5517 
  33   2.0000     -11.191399      -304.5334 
  34   2.0000     -11.188860      -304.4644 
  35   2.0000     -11.188196      -304.4463 
  36   2.0000     -11.187374      -304.4239 
  37   2.0000     -11.174419      -304.0714 
  38   2.0000     -11.172767      -304.0265 
  39   2.0000     -11.171599      -303.9947 
  40   2.0000     -11.171404      -303.9894 
  41   2.0000     -11.167925      -303.8947 
  42   2.0000     -11.166882      -303.8663 
  43   2.0000     -11.162249      -303.7402 
  44   2.0000     -11.160928      -303.7043 
  45   2.0000     -11.157186      -303.6025 
  46   2.0000     -11.156156      -303.5744 
  47   2.0000     -11.151036      -303.4351 
  48   2.0000     -11.147288      -303.3331 
  49   2.0000     -11.135500      -303.0124 
  50   2.0000     -11.129376      -302.8457 
  51   2.0000     -11.117659      -302.5269 
  52   2.0000      -1.360538       -37.0221 
  53   2.0000      -1.320531       -35.9335 
  54   2.0000      -1.320229       -35.9253 
  55   2.0000      -1.280155       -34.8348 
  56   2.0000      -1.225899       -33.3584 
  57   2.0000      -1.210412       -32.9370 
  58   2.0000      -1.173767       -31.9398 
  59   2.0000      -1.150622       -31.3100 
  60   2.0000      -1.143776       -31.1237 
  61   2.0000      -1.110371       -30.2147 
  62   2.0000      -1.108808       -30.1722 
  63   2.0000      -1.082208       -29.4484 
  64   2.0000      -1.077239       -29.3132 
  65   2.0000      -1.045127       -28.4394 
  66   2.0000      -1.044471       -28.4215 
  67   2.0000      -1.041169       -28.3316 
  68   2.0000      -1.014922       -27.6174 
  69   2.0000      -1.014673       -27.6107 
  70   2.0000      -1.009109       -27.4593 
  71   2.0000      -0.993286       -27.0287 
  72   2.0000      -0.985634       -26.8205 
  73   2.0000      -0.981751       -26.7148 
  74   2.0000      -0.973777       -26.4978 
  75   2.0000      -0.962513       -26.1913 
  76   2.0000      -0.955079       -25.9890 
  77   2.0000      -0.946677       -25.7604 
  78   2.0000      -0.939681       -25.5700 
  79   2.0000      -0.916719       -24.9452 
  80   2.0000      -0.910703       -24.7815 
  81   2.0000      -0.898127       -24.4393 
  82   2.0000      -0.877185       -23.8694 
  83   2.0000      -0.871733       -23.7211 
  84   2.0000      -0.871218       -23.7071 
  85   2.0000      -0.861447       -23.4412 
  86   2.0000      -0.846007       -23.0210 
  87   2.0000      -0.837263       -22.7831 
  88   2.0000      -0.829245       -22.5649 
  89   2.0000      -0.796374       -21.6704 
  90   2.0000      -0.789251       -21.4766 
  91   2.0000      -0.773597       -21.0506 
  92   2.0000      -0.753129       -20.4937 
  93   2.0000      -0.733895       -19.9703 
  94   2.0000      -0.728128       -19.8134 
  95   2.0000      -0.726765       -19.7763 
  96   2.0000      -0.720333       -19.6013 
  97   2.0000      -0.717926       -19.5358 
  98   2.0000      -0.714331       -19.4379 
  99   2.0000      -0.699903       -19.0453 
 100   2.0000      -0.698249       -19.0003 
 101   2.0000      -0.694686       -18.9034 
 102   2.0000      -0.685429       -18.6515 
 103   2.0000      -0.684468       -18.6253 
 104   2.0000      -0.678792       -18.4709 
 105   2.0000      -0.674598       -18.3568 
 106   2.0000      -0.672934       -18.3115 
 107   2.0000      -0.660994       -17.9866 
 108   2.0000      -0.658134       -17.9087 
 109   2.0000      -0.652868       -17.7654 
 110   2.0000      -0.652031       -17.7427 
 111   2.0000      -0.646308       -17.5869 
 112   2.0000      -0.645782       -17.5726 
 113   2.0000      -0.637888       -17.3578 
 114   2.0000      -0.635580       -17.2950 
 115   2.0000      -0.628855       -17.1120 
 116   2.0000      -0.623327       -16.9616 
 117   2.0000      -0.620670       -16.8893 
 118   2.0000      -0.612893       -16.6777 
 119   2.0000      -0.612284       -16.6611 
 120   2.0000      -0.611611       -16.6428 
 121   2.0000      -0.611474       -16.6390 
 122   2.0000      -0.601708       -16.3733 
 123   2.0000      -0.589091       -16.0300 
 124   2.0000      -0.581417       -15.8212 
 125   2.0000      -0.580869       -15.8062 
 126   2.0000      -0.580187       -15.7877 
 127   2.0000      -0.571205       -15.5433 
 128   2.0000      -0.566705       -15.4208 
 129   2.0000      -0.560080       -15.2405 
 130   2.0000      -0.555267       -15.1096 
 131   2.0000      -0.547868       -14.9083 
 132   2.0000      -0.542720       -14.7682 
 133   2.0000      -0.540224       -14.7003 
 134   2.0000      -0.538360       -14.6495 
 135   2.0000      -0.536467       -14.5980 
 136   2.0000      -0.531729       -14.4691 
 137   2.0000      -0.518362       -14.1053 
 138   2.0000      -0.516450       -14.0533 
 139   2.0000      -0.514677       -14.0051 
 140   2.0000      -0.512197       -13.9376 
 141   2.0000      -0.509906       -13.8752 
 142   2.0000      -0.507183       -13.8011 
 143   2.0000      -0.505646       -13.7593 
 144   2.0000      -0.502609       -13.6767 
 145   2.0000      -0.495589       -13.4857 
 146   2.0000      -0.488238       -13.2856 
 147   2.0000      -0.481110       -13.0917 
 148   2.0000      -0.476925       -12.9778 
 149   2.0000      -0.467836       -12.7305 
 150   2.0000      -0.466288       -12.6883 
 151   2.0000      -0.456566       -12.4238 
 152   2.0000      -0.451749       -12.2927 
 153   2.0000      -0.445045       -12.1103 
 154   2.0000      -0.438010       -11.9189 
 155   2.0000      -0.427661       -11.6373 
 156   2.0000      -0.409400       -11.1403 
 157   2.0000      -0.391440       -10.6516 
 158   2.0000      -0.389239       -10.5917 
 159   2.0000      -0.387610       -10.5474 
 160   2.0000      -0.378559       -10.3011 
 161   2.0000      -0.372696       -10.1416 
 162   2.0000      -0.359528        -9.7833 
 163   2.0000      -0.356704        -9.7064 
 164   2.0000      -0.355759        -9.6807 
 165   2.0000      -0.342081        -9.3085 
 166   2.0000      -0.337567        -9.1857 
 167   2.0000      -0.324501        -8.8301 
 168   2.0000      -0.321546        -8.7497 
 169   2.0000      -0.305084        -8.3018 
 170   2.0000      -0.299412        -8.1474 
 171   2.0000      -0.285872        -7.7790 
 172   2.0000      -0.278336        -7.5739 
 173   2.0000      -0.263762        -7.1773 
 174   2.0000      -0.242060        -6.5868 
 175   2.0000      -0.189970        -5.1693 
 176   2.0000      -0.181324        -4.9341 
 177   2.0000      -0.079966        -2.1760 
 178   2.0000      -0.059784        -1.6268 
 179   0.0000       0.028424         0.7735 
 180   0.0000       0.065357         1.7785 
 181   0.0000       0.090161         2.4534 
 182   0.0000       0.106151         2.8885 
 183   0.0000       0.116630         3.1737 
 184   0.0000       0.137187         3.7330 
 185   0.0000       0.139316         3.7910 
 186   0.0000       0.140856         3.8329 
 187   0.0000       0.164284         4.4704 
 188   0.0000       0.165141         4.4937 
 189   0.0000       0.165677         4.5083 
 190   0.0000       0.174575         4.7504 
 191   0.0000       0.180284         4.9058 
 192   0.0000       0.183689         4.9984 
 193   0.0000       0.189325         5.1518 
 194   0.0000       0.204848         5.5742 
 195   0.0000       0.205597         5.5946 
 196   0.0000       0.208076         5.6620 
 197   0.0000       0.208843         5.6829 
 198   0.0000       0.216465         5.8903 
 199   0.0000       0.228386         6.2147 
 200   0.0000       0.233684         6.3589 
 201   0.0000       0.233913         6.3651 
 202   0.0000       0.238969         6.5027 
 203   0.0000       0.239750         6.5239 
 204   0.0000       0.246210         6.6997 
 205   0.0000       0.255013         6.9393 
 206   0.0000       0.256273         6.9736 
 207   0.0000       0.257800         7.0151 
 208   0.0000       0.259011         7.0481 
 209   0.0000       0.260533         7.0895 
 210   0.0000       0.263713         7.1760 
 211   0.0000       0.265622         7.2280 
 212   0.0000       0.268602         7.3090 
 213   0.0000       0.270999         7.3743 
 214   0.0000       0.273023         7.4293 
 215   0.0000       0.275778         7.5043 
 216   0.0000       0.278067         7.5666 
 217   0.0000       0.283189         7.7060 
 218   0.0000       0.286685         7.8011 
 219   0.0000       0.287481         7.8227 
 220   0.0000       0.290031         7.8921 
 221   0.0000       0.292407         7.9568 
 222   0.0000       0.294773         8.0212 
 223   0.0000       0.296706         8.0738 
 224   0.0000       0.297276         8.0893 
 225   0.0000       0.301590         8.2067 
 226   0.0000       0.305634         8.3167 
 227   0.0000       0.308035         8.3821 
 228   0.0000       0.317418         8.6374 
 229   0.0000       0.324520         8.8306 
 230   0.0000       0.328270         8.9327 
 231   0.0000       0.335295         9.1238 
 232   0.0000       0.343046         9.3348 
 233   0.0000       0.356944         9.7129 
 234   0.0000       0.371126        10.0988 
 235   0.0000       0.373424        10.1614 
 236   0.0000       0.385550        10.4913 
 237   0.0000       0.390257        10.6194 
 238   0.0000       0.397356        10.8126 
 239   0.0000       0.402417        10.9503 
 240   0.0000       0.407032        11.0759 
 241   0.0000       0.411066        11.1857 
 242   0.0000       0.414828        11.2880 
 243   0.0000       0.417451        11.3594 
 244   0.0000       0.429812        11.6958 
 245   0.0000       0.433736        11.8025 
 246   0.0000       0.440037        11.9740 
 247   0.0000       0.441789        12.0217 
 248   0.0000       0.442607        12.0439 
 249   0.0000       0.448479        12.2037 
 250   0.0000       0.453500        12.3404 
 251   0.0000       0.461467        12.5572 
 252   0.0000       0.465973        12.6798 
 253   0.0000       0.467919        12.7327 
 254   0.0000       0.472380        12.8541 
 255   0.0000       0.474270        12.9056 
 256   0.0000       0.474966        12.9245 
 257   0.0000       0.482177        13.1207 
 258   0.0000       0.489197        13.3117 
 259   0.0000       0.495183        13.4746 
 260   0.0000       0.503664        13.7054 
 261   0.0000       0.504611        13.7312 
 262   0.0000       0.506525        13.7833 
 263   0.0000       0.512186        13.9373 
 264   0.0000       0.515842        14.0368 
 265   0.0000       0.520693        14.1688 
 266   0.0000       0.524985        14.2856 
 267   0.0000       0.528075        14.3697 
 268   0.0000       0.535448        14.5703 
 269   0.0000       0.540449        14.7064 
 270   0.0000       0.549542        14.9538 
 271   0.0000       0.553503        15.0616 
 272   0.0000       0.558624        15.2009 
 273   0.0000       0.560221        15.2444 
 274   0.0000       0.566413        15.4129 
 275   0.0000       0.570986        15.5373 
 276   0.0000       0.573407        15.6032 
 277   0.0000       0.575101        15.6493 
 278   0.0000       0.581382        15.8202 
 279   0.0000       0.586795        15.9675 
 280   0.0000       0.593085        16.1387 
 281   0.0000       0.593469        16.1491 
 282   0.0000       0.595789        16.2122 
 283   0.0000       0.596411        16.2292 
 284   0.0000       0.598339        16.2816 
 285   0.0000       0.600957        16.3529 
 286   0.0000       0.604703        16.4548 
 287   0.0000       0.611906        16.6508 
 288   0.0000       0.617923        16.8145 
 289   0.0000       0.623327        16.9616 
 290   0.0000       0.625098        17.0098 
 291   0.0000       0.631481        17.1835 
 292   0.0000       0.633613        17.2415 
 293   0.0000       0.636254        17.3134 
 294   0.0000       0.646201        17.5840 
 295   0.0000       0.650136        17.6911 
 296   0.0000       0.653528        17.7834 
 297   0.0000       0.656014        17.8510 
 298   0.0000       0.662128        18.0174 
 299   0.0000       0.666145        18.1267 
 300   0.0000       0.670873        18.2554 
 301   0.0000       0.675714        18.3871 
 302   0.0000       0.678360        18.4591 
 303   0.0000       0.680886        18.5278 
 304   0.0000       0.683244        18.5920 
 305   0.0000       0.686531        18.6814 
 306   0.0000       0.689042        18.7498 
 307   0.0000       0.692949        18.8561 
 308   0.0000       0.695472        18.9247 
 309   0.0000       0.700862        19.0714 
 310   0.0000       0.702675        19.1208 
 311   0.0000       0.704888        19.1810 
 312   0.0000       0.706760        19.2319 
 313   0.0000       0.711201        19.3528 
 314   0.0000       0.711932        19.3726 
 315   0.0000       0.716321        19.4921 
 316   0.0000       0.717102        19.5133 
 317   0.0000       0.718512        19.5517 
 318   0.0000       0.724667        19.7192 
 319   0.0000       0.727464        19.7953 
 320   0.0000       0.727954        19.8086 
 321   0.0000       0.729913        19.8620 
 322   0.0000       0.732027        19.9195 
 323   0.0000       0.733496        19.9594 
 324   0.0000       0.736645        20.0451 
 325   0.0000       0.741467        20.1763 
 326   0.0000       0.742251        20.1977 
 327   0.0000       0.746960        20.3258 
 328   0.0000       0.751816        20.4580 
 329   0.0000       0.755583        20.5605 
 330   0.0000       0.758052        20.6276 
 331   0.0000       0.765579        20.8325 
 332   0.0000       0.767159        20.8754 
 333   0.0000       0.768283        20.9060 
 334   0.0000       0.770255        20.9597 
 335   0.0000       0.773248        21.0411 
 336   0.0000       0.779453        21.2100 
 337   0.0000       0.780988        21.2518 
 338   0.0000       0.785598        21.3772 
 339   0.0000       0.790181        21.5019 
 340   0.0000       0.792458        21.5639 
 341   0.0000       0.795364        21.6429 
 342   0.0000       0.800261        21.7762 
 343   0.0000       0.801528        21.8107 
 344   0.0000       0.805665        21.9233 
 345   0.0000       0.808568        22.0023 
 346   0.0000       0.813421        22.1343 
 347   0.0000       0.813762        22.1436 
 348   0.0000       0.815895        22.2016 
 349   0.0000       0.817415        22.2430 
 350   0.0000       0.820367        22.3233 
 351   0.0000       0.824008        22.4224 
 352   0.0000       0.826644        22.4941 
 353   0.0000       0.827448        22.5160 
 354   0.0000       0.831593        22.6288 
 355   0.0000       0.832284        22.6476 
 356   0.0000       0.834498        22.7078 
 357   0.0000       0.837639        22.7933 
 358   0.0000       0.838600        22.8195 
 359   0.0000       0.839518        22.8444 
 360   0.0000       0.842546        22.9269 
 361   0.0000       0.843502        22.9529 
 362   0.0000       0.845821        23.0160 
 363   0.0000       0.849016        23.1029 
 364   0.0000       0.852659        23.2020 
 365   0.0000       0.855550        23.2807 
 366   0.0000       0.860924        23.4269 
 367   0.0000       0.862631        23.4734 
 368   0.0000       0.867792        23.6138 
 369   0.0000       0.870196        23.6792 
 370   0.0000       0.872645        23.7459 
 371   0.0000       0.874596        23.7990 
 372   0.0000       0.876376        23.8474 
 373   0.0000       0.877388        23.8749 
 374   0.0000       0.881139        23.9770 
 375   0.0000       0.882615        24.0172 
 376   0.0000       0.889623        24.2079 
 377   0.0000       0.891522        24.2595 
 378   0.0000       0.893628        24.3169 
 379   0.0000       0.895276        24.3617 
 380   0.0000       0.897309        24.4170 
 381   0.0000       0.899521        24.4772 
 382   0.0000       0.901063        24.5192 
 383   0.0000       0.902610        24.5613 
 384   0.0000       0.906819        24.6758 
 385   0.0000       0.907731        24.7006 
 386   0.0000       0.909478        24.7481 
 387   0.0000       0.912904        24.8414 
 388   0.0000       0.915626        24.9154 
 389   0.0000       0.918976        25.0066 
 390   0.0000       0.922538        25.1035 
 391   0.0000       0.926272        25.2051 
 392   0.0000       0.927432        25.2367 
 393   0.0000       0.929461        25.2919 
 394   0.0000       0.930222        25.3126 
 395   0.0000       0.934339        25.4247 
 396   0.0000       0.936437        25.4818 
 397   0.0000       0.941494        25.6194 
 398   0.0000       0.945315        25.7233 
 399   0.0000       0.947386        25.7797 
 400   0.0000       0.949085        25.8259 
 401   0.0000       0.954013        25.9600 
 402   0.0000       0.954938        25.9852 
 403   0.0000       0.959069        26.0976 
 404   0.0000       0.961292        26.1581 
 405   0.0000       0.962527        26.1917 
 406   0.0000       0.972043        26.4506 
 407   0.0000       0.979086        26.6423 
 408   0.0000       0.982492        26.7350 
 409   0.0000       0.987417        26.8690 
 410   0.0000       0.989758        26.9327 
 411   0.0000       0.993484        27.0341 
 412   0.0000       0.999806        27.2061 
 413   0.0000       1.006358        27.3844 
 414   0.0000       1.011496        27.5242 
 415   0.0000       1.013494        27.5786 
 416   0.0000       1.019420        27.7398 
 417   0.0000       1.023622        27.8542 
 418   0.0000       1.031443        28.0670 
 419   0.0000       1.034815        28.1588 
 420   0.0000       1.037270        28.2256 
 421   0.0000       1.040143        28.3037 
 422   0.0000       1.044655        28.4265 
 423   0.0000       1.053737        28.6736 
 424   0.0000       1.064168        28.9575 
 425   0.0000       1.069569        29.1045 
 426   0.0000       1.074745        29.2453 
 427   0.0000       1.077471        29.3195 
 428   0.0000       1.080291        29.3962 
 429   0.0000       1.088580        29.6218 
 430   0.0000       1.089615        29.6499 
 431   0.0000       1.094523        29.7835 
 432   0.0000       1.098674        29.8965 
 433   0.0000       1.103569        30.0296 
 434   0.0000       1.108450        30.1625 
 435   0.0000       1.112274        30.2665 
 436   0.0000       1.116882        30.3919 
 437   0.0000       1.118223        30.4284 
 438   0.0000       1.121663        30.5220 
 439   0.0000       1.124689        30.6043 
 440   0.0000       1.126025        30.6407 
 441   0.0000       1.130417        30.7602 
 442   0.0000       1.134399        30.8686 
 443   0.0000       1.135658        30.9028 
 444   0.0000       1.138672        30.9848 
 445   0.0000       1.143574        31.1182 
 446   0.0000       1.147636        31.2288 
 447   0.0000       1.150451        31.3054 
 448   0.0000       1.154446        31.4141 
 449   0.0000       1.158967        31.5371 
 450   0.0000       1.160853        31.5884 
 451   0.0000       1.165495        31.7147 
 452   0.0000       1.168055        31.7844 
 453   0.0000       1.169254        31.8170 
 454   0.0000       1.172956        31.9178 
 455   0.0000       1.177054        32.0293 
 456   0.0000       1.183326        32.1999 
 457   0.0000       1.191056        32.4103 
 458   0.0000       1.196714        32.5642 
 459   0.0000       1.198483        32.6124 
 460   0.0000       1.202970        32.7345 
 461   0.0000       1.205106        32.7926 
 462   0.0000       1.208263        32.8785 
 463   0.0000       1.210287        32.9336 
 464   0.0000       1.213755        33.0280 
 465   0.0000       1.217519        33.1304 
 466   0.0000       1.223405        33.2905 
 467   0.0000       1.229042        33.4439 
 468   0.0000       1.229576        33.4585 
 469   0.0000       1.232594        33.5406 
 470   0.0000       1.236947        33.6590 
 471   0.0000       1.239760        33.7356 
 472   0.0000       1.242790        33.8180 
 473   0.0000       1.244980        33.8776 
 474   0.0000       1.247885        33.9567 
 475   0.0000       1.250344        34.0236 
 476   0.0000       1.251571        34.0570 
 477   0.0000       1.252276        34.0762 
 478   0.0000       1.260906        34.3110 
 479   0.0000       1.264040        34.3963 
 480   0.0000       1.265201        34.4279 
 481   0.0000       1.267357        34.4865 
 482   0.0000       1.269830        34.5538 
 483   0.0000       1.275101        34.6973 
 484   0.0000       1.279448        34.8156 
 485   0.0000       1.282742        34.9052 
 486   0.0000       1.286645        35.0114 
 487   0.0000       1.290189        35.1078 
 488   0.0000       1.291920        35.1549 
 489   0.0000       1.295154        35.2429 
 490   0.0000       1.300148        35.3788 
 491   0.0000       1.303526        35.4707 
 492   0.0000       1.308166        35.5970 
 493   0.0000       1.311580        35.6899 
 494   0.0000       1.317525        35.8517 
 495   0.0000       1.319644        35.9094 
 496   0.0000       1.322676        35.9918 
 497   0.0000       1.325952        36.0810 
 498   0.0000       1.328750        36.1571 
 499   0.0000       1.334439        36.3119 
 500   0.0000       1.337589        36.3976 
 501   0.0000       1.341573        36.5060 
 502   0.0000       1.343112        36.5479 
 503   0.0000       1.345225        36.6054 
 504   0.0000       1.348436        36.6928 
 505   0.0000       1.350119        36.7386 
 506   0.0000       1.352274        36.7972 
 507   0.0000       1.359610        36.9969 
 508   0.0000       1.360771        37.0285 
 509   0.0000       1.363826        37.1116 
[...]
      px      :     0.043612
      py      :     0.014045
 77 H s       :     0.884445  s :     0.884445
      pz      :     0.047980  p :     0.079297
      px      :     0.015024
      py      :     0.016293
 78 H s       :     0.884767  s :     0.884767
      pz      :     0.025887  p :     0.079272
      px      :     0.020454
      py      :     0.032931
 79 H s       :     0.910888  s :     0.910888
      pz      :     0.021796  p :     0.086287
      px      :     0.021655
      py      :     0.042836
 80 H s       :     0.864272  s :     0.864272
      pz      :     0.039398  p :     0.084835
      px      :     0.030286
      py      :     0.015151
 81 H s       :     0.886600  s :     0.886600
      pz      :     0.037840  p :     0.084135
      px      :     0.016169
      py      :     0.030125
 82 H s       :     0.915981  s :     0.915981
      pz      :     0.021951  p :     0.086732
      px      :     0.031660
      py      :     0.033121
 83 H s       :     0.873199  s :     0.873199
      pz      :     0.039296  p :     0.084128
      px      :     0.015270
      py      :     0.029562
 84 H s       :     0.886460  s :     0.886460
      pz      :     0.035782  p :     0.083421
      px      :     0.031705
      py      :     0.015934
 85 H s       :     0.892616  s :     0.892616
      pz      :     0.022495  p :     0.079795
      px      :     0.014060
      py      :     0.043239
 86 H s       :     0.890849  s :     0.890849
      pz      :     0.024736  p :     0.078840
      px      :     0.032991
      py      :     0.021114
 87 H s       :     0.889698  s :     0.889698
      pz      :     0.048030  p :     0.078755
      px      :     0.015586
      py      :     0.015139
 88 H s       :     0.910546  s :     0.910546
      pz      :     0.021601  p :     0.087007
      px      :     0.042950
      py      :     0.022456
 89 H s       :     0.870923  s :     0.870923
      pz      :     0.037973  p :     0.083875
      px      :     0.030518
      py      :     0.015384


                      *****************************
                      * MAYER POPULATION ANALYSIS *
                      *****************************

  NA   - Mulliken gross atomic population
  ZA   - Total nuclear charge
  QA   - Mulliken gross atomic charge
  VA   - Mayer's total valence
  BVA  - Mayer's bonded valence
  FA   - Mayer's free valence

  ATOM       NA         ZA         QA         VA         BVA        FA
  0 C      5.7758     6.0000     0.2242     3.8509     3.8509     0.0000
  1 N      7.4551     7.0000    -0.4551     3.3491     3.3491    -0.0000
  2 C      6.0700     6.0000    -0.0700     3.9231     3.9231     0.0000
  3 N      7.3416     7.0000    -0.3416     3.4540     3.4540     0.0000
  4 C      6.1023     6.0000    -0.1023     4.1596     4.1596    -0.0000
  5 N      7.5687     7.0000    -0.5687     3.0959     3.0959     0.0000
  6 C      6.0933     6.0000    -0.0933     3.9249     3.9249    -0.0000
  7 N      7.3411     7.0000    -0.3411     3.4322     3.4322     0.0000
  8 C      5.7836     6.0000     0.2164     3.8529     3.8529    -0.0000
  9 N      7.5622     7.0000    -0.5622     3.0767     3.0767    -0.0000
 10 C      5.8806     6.0000     0.1194     3.9091     3.9091    -0.0000
 11 N      7.4387     7.0000    -0.4387     3.3768     3.3768    -0.0000
 12 C      6.0516     6.0000    -0.0516     3.8282     3.8282    -0.0000
 13 N      7.4293     7.0000    -0.4293     3.4287     3.4287     0.0000
 14 C      5.7837     6.0000     0.2163     3.8068     3.8068     0.0000
 15 N      7.4407     7.0000    -0.4407     3.3738     3.3738    -0.0000
 16 C      5.7670     6.0000     0.2330     3.7763     3.7763    -0.0000
 17 C      6.1104     6.0000    -0.1104     3.9413     3.9413     0.0000
 18 C      6.1802     6.0000    -0.1802     3.7503     3.7503     0.0000
 19 C      5.7863     6.0000     0.2137     3.8845     3.8845    -0.0000
 20 C      5.7867     6.0000     0.2133     3.8293     3.8293     0.0000
 21 C      6.0536     6.0000    -0.0536     3.7831     3.7831    -0.0000
 22 C      6.0912     6.0000    -0.0912     3.9828     3.9828     0.0000
 23 C      6.0395     6.0000    -0.0395     3.9928     3.9928    -0.0000
 24 C      5.8071     6.0000     0.1929     3.8211     3.8211    -0.0000
 25 C      5.8852     6.0000     0.1148     3.8920     3.8920    -0.0000
 26 C      6.0853     6.0000    -0.0853     3.9075     3.9075    -0.0000
 27 C      5.7815     6.0000     0.2185     3.8628     3.8628    -0.0000
 28 C      6.0620     6.0000    -0.0620     3.9888     3.9888     0.0000
 29 C      6.1827     6.0000    -0.1827     3.7472     3.7472    -0.0000
 30 C      5.7543     6.0000     0.2457     3.8011     3.8011    -0.0000
 31 C      5.7700     6.0000     0.2300     3.8169     3.8169    -0.0000
 32 C      6.0616     6.0000    -0.0616     3.9231     3.9231     0.0000
 33 C      6.0599     6.0000    -0.0599     3.9711     3.9711     0.0000
 34 C      6.0516     6.0000    -0.0516     3.9832     3.9832    -0.0000
 35 C      5.7708     6.0000     0.2292     3.8164     3.8164    -0.0000
 36 C      5.8918     6.0000     0.1082     3.8746     3.8746    -0.0000
 37 C      6.0645     6.0000    -0.0645     3.9177     3.9177    -0.0000
 38 C      5.7693     6.0000     0.2307     3.8009     3.8009     0.0000
 39 C      6.0573     6.0000    -0.0573     3.9830     3.9830     0.0000
 40 C      6.1818     6.0000    -0.1818     3.7261     3.7261    -0.0000
 41 C      5.7735     6.0000     0.2265     3.8881     3.8881    -0.0000
 42 C      5.8024     6.0000     0.1976     3.8254     3.8254    -0.0000
 43 C      6.0725     6.0000    -0.0725     3.8999     3.8999    -0.0000
 44 C      6.0891     6.0000    -0.0891     3.9849     3.9849    -0.0000
 45 C      6.0617     6.0000    -0.0617     3.9918     3.9918     0.0000
 46 C      5.7876     6.0000     0.2124     3.8283     3.8283    -0.0000
 47 C      5.8848     6.0000     0.1152     3.8924     3.8924    -0.0000
 48 C      6.0664     6.0000    -0.0664     3.9096     3.9096    -0.0000
 49 C      5.7615     6.0000     0.2385     3.8947     3.8947    -0.0000
 50 C      6.0460     6.0000    -0.0460     3.9903     3.9903    -0.0000
 51 C      6.1926     6.0000    -0.1926     3.7375     3.7375    -0.0000
 52 H      0.9659     1.0000     0.0341     0.9856     0.9856     0.0000
 53 H      1.0185     1.0000    -0.0185     0.9989     0.9989     0.0000
 54 H      0.9429     1.0000     0.0571     0.9706     0.9706     0.0000
 55 H      0.9683     1.0000     0.0317     0.9862     0.9862     0.0000
 56 H      0.9507     1.0000     0.0493     0.9695     0.9695    -0.0000
 57 H      0.9523     1.0000     0.0477     0.9824     0.9824    -0.0000
 58 H      0.9537     1.0000     0.0463     0.9846     0.9846    -0.0000
 59 H      1.0181     1.0000    -0.0181     0.9862     0.9862    -0.0000
 60 H      0.9547     1.0000     0.0453     0.9905     0.9905    -0.0000
 61 H      0.8289     1.0000     0.1711     1.0423     1.0423     0.0000
 62 H      0.8246     1.0000     0.1754     1.0436     1.0436    -0.0000
 63 H      0.9452     1.0000     0.0548     0.9853     0.9853     0.0000
 64 H      1.0441     1.0000    -0.0441     0.9760     0.9760     0.0000
 65 H      0.9533     1.0000     0.0467     1.0100     1.0100     0.0000
 66 H      0.9449     1.0000     0.0551     0.9855     0.9855    -0.0000
 67 H      0.9380     1.0000     0.0620     0.9719     0.9719     0.0000
 68 H      0.9430     1.0000     0.0570     0.9868     0.9868     0.0000
 69 H      0.9439     1.0000     0.0561     0.9828     0.9828     0.0000
 70 H      1.0308     1.0000    -0.0308     0.9944     0.9944     0.0000
 71 H      0.9557     1.0000     0.0443     1.0059     1.0059     0.0000
 72 H      0.9285     1.0000     0.0715     0.9835     0.9835     0.0000
 73 H      1.0079     1.0000    -0.0079     1.0010     1.0010     0.0000
 74 H      0.9394     1.0000     0.0606     1.0100     1.0100    -0.0000
 75 H      0.9290     1.0000     0.0710     0.9838     0.9838    -0.0000
 76 H      0.9249     1.0000     0.0751     0.9721     0.9721     0.0000
 77 H      0.9319     1.0000     0.0681     0.9855     0.9855    -0.0000
 78 H      0.9325     1.0000     0.0675     0.9854     0.9854    -0.0000
 79 H      1.0169     1.0000    -0.0169     0.9974     0.9974    -0.0000
 80 H      0.9384     1.0000     0.0616     1.0072     1.0072     0.0000
 81 H      0.9452     1.0000     0.0548     0.9856     0.9856     0.0000
 82 H      1.0248     1.0000    -0.0248     0.9935     0.9935    -0.0000
 83 H      0.9577     1.0000     0.0423     1.0082     1.0082     0.0000
 84 H      0.9453     1.0000     0.0547     0.9852     0.9852    -0.0000
 85 H      0.9387     1.0000     0.0613     0.9716     0.9716     0.0000
 86 H      0.9442     1.0000     0.0558     0.9839     0.9839     0.0000
 87 H      0.9425     1.0000     0.0575     0.9857     0.9857    -0.0000
 88 H      1.0144     1.0000    -0.0144     0.9968     0.9968     0.0000
 89 H      0.9527     1.0000     0.0473     1.0077     1.0077    -0.0000

  Mayer bond orders larger than 0.100000
B(  0-C ,  1-N ) :   1.1035 B(  0-C , 17-C ) :   1.7184 B(  0-C , 52-H ) :   0.9604 
B(  1-N ,  8-C ) :   1.0900 B(  1-N , 10-C ) :   0.9773 B(  2-C , 12-C ) :   1.4869 
B(  2-C , 16-C ) :   1.3752 B(  2-C , 53-H ) :   0.9713 B(  3-N , 14-C ) :   1.2239 
B(  3-N , 16-C ) :   1.1780 B(  3-N , 61-H ) :   0.8981 B(  4-C ,  6-C ) :   1.2235 
B(  4-C , 17-C ) :   1.2252 B(  4-C , 18-C ) :   1.4831 B(  5-N , 19-C ) :   1.4639 
B(  5-N , 27-C ) :   1.3685 B(  6-C ,  8-C ) :   1.7354 B(  6-C , 54-H ) :   0.8449 
B(  7-N , 30-C ) :   1.1955 B(  7-N , 38-C ) :   1.1892 B(  7-N , 62-H ) :   0.8968 
B(  8-C , 55-H ) :   0.9600 B(  9-N , 41-C ) :   1.3954 B(  9-N , 49-C ) :   1.4239 
B( 10-C , 56-H ) :   0.9777 B( 10-C , 57-H ) :   0.9823 B( 10-C , 58-H ) :   0.9839 
B( 11-N , 20-C ) :   1.1304 B( 11-N , 24-C ) :   1.1056 B( 11-N , 25-C ) :   0.9607 
B( 12-C , 14-C ) :   1.3592 B( 12-C , 59-H ) :   0.9166 B( 13-N , 31-C ) :   1.1614 
B( 13-N , 35-C ) :   1.1614 B( 13-N , 36-C ) :   0.9411 B( 14-C , 18-C ) :   1.1175 
B( 15-N , 42-C ) :   1.1084 B( 15-N , 46-C ) :   1.1257 B( 15-N , 47-C ) :   0.9608 
B( 16-C , 51-C ) :   1.1683 B( 17-C , 60-H ) :   0.8790 B( 18-C , 19-C ) :   1.1152 
B( 19-C , 21-C ) :   1.2557 B( 20-C , 28-C ) :   1.6298 B( 20-C , 63-H ) :   0.9703 
B( 21-C , 26-C ) :   1.5754 B( 21-C , 64-H ) :   0.8842 B( 22-C , 23-C ) :   1.2885 
B( 22-C , 28-C ) :   1.2626 B( 22-C , 29-C ) :   1.2281 B( 23-C , 24-C ) :   1.6214 
B( 23-C , 65-H ) :   0.9703 B( 24-C , 66-H ) :   0.9696 B( 25-C , 67-H ) :   0.9760 
B( 25-C , 68-H ) :   0.9828 B( 25-C , 69-H ) :   0.9824 B( 26-C , 27-C ) :   1.2685 
B( 26-C , 70-H ) :   0.9658 B( 27-C , 29-C ) :   1.2047 B( 28-C , 71-H ) :   0.9720 
B( 29-C , 30-C ) :   1.2470 B( 30-C , 32-C ) :   1.2790 B( 31-C , 39-C ) :   1.5872 
B( 31-C , 72-H ) :   0.9681 B( 32-C , 37-C ) :   1.5796 B( 32-C , 73-H ) :   0.9787 
B( 33-C , 34-C ) :   1.3067 B( 33-C , 39-C ) :   1.3049 B( 33-C , 40-C ) :   1.1759 
B( 34-C , 35-C ) :   1.5851 B( 34-C , 74-H ) :   0.9696 B( 35-C , 75-H ) :   0.9681 
B( 36-C , 76-H ) :   0.9768 B( 36-C , 77-H ) :   0.9816 B( 36-C , 78-H ) :   0.9823 
B( 37-C , 38-C ) :   1.2853 B( 37-C , 79-H ) :   0.9764 B( 38-C , 40-C ) :   1.2339 
B( 39-C , 80-H ) :   0.9705 B( 40-C , 41-C ) :   1.2507 B( 41-C , 43-C ) :   1.1835 
B( 42-C , 50-C ) :   1.6317 B( 42-C , 81-H ) :   0.9696 B( 43-C , 48-C ) :   1.6697 
B( 43-C , 82-H ) :   0.9721 B( 44-C , 45-C ) :   1.2643 B( 44-C , 50-C ) :   1.2738 
B( 44-C , 51-C ) :   1.2584 B( 45-C , 46-C ) :   1.6333 B( 45-C , 83-H ) :   0.9718 
B( 46-C , 84-H ) :   0.9700 B( 47-C , 85-H ) :   0.9762 B( 47-C , 86-H ) :   0.9829 
B( 47-C , 87-H ) :   0.9824 B( 48-C , 49-C ) :   1.1868 B( 48-C , 88-H ) :   0.9748 
B( 49-C , 51-C ) :   1.2467 B( 50-C , 89-H ) :   0.9708 B( 54-H , 64-H ) :   0.1397 


-------
TIMINGS
-------

Total SCF time: 0 days 0 hours 31 min 42 sec 

Total time                  ....    1902.206 sec
Sum of individual times     ....    1897.533 sec  ( 99.8%)

Fock matrix formation       ....    1874.062 sec  ( 98.5%)
Diagonalization             ....       6.915 sec  (  0.4%)
Density matrix formation    ....       0.749 sec  (  0.0%)
Population analysis         ....       0.530 sec  (  0.0%)
Initial guess               ....       2.066 sec  (  0.1%)
Orbital Transformation      ....       0.000 sec  (  0.0%)
Orbital Orthonormalization  ....       0.000 sec  (  0.0%)
DIIS solution               ....       3.567 sec  (  0.2%)
SOSCF solution              ....       8.592 sec  (  0.5%)

Maximum memory used throughout the entire SCF-calculation: 302.7 MB


           ************************************************************
           *        Program running with 16 parallel MPI-processes    *
           *              working on a common directory               *
           ************************************************************

------------------------------------------------------------------------------
                                ORCA  MP2 
------------------------------------------------------------------------------

Freezing NCore=104 chemical core electrons

----------
MP2 ENERGY (disk based algorithm)
----------

Dimension of the basis                    ...  918
Memory devoted to MP2                     ... 2000 MB   
Data format for buffers                   ... DOUBLE
Compression type for matrix containers    ... UNCOMPRESSED

-------------------------------
PARTIAL EXCHANGE TRANSFORMATION
-------------------------------

Transformation type                        ... one-operator
Generation of integrals (i,mue|j,nue)      ... ON
Generation of integrals (mue,kappa|nue,tau)... OFF
Generation of integrals (i,mue|a,nue)      ... OFF
Dimension of the basis                     ...  918
Number of internal MOs                     ...  127 (  52- 178)
Pair cutoff                                ... 2.500e-12 Eh
Number of AO pairs in the trafo            ... 421821
Total Number of distinct AO pairs          ... 421821
Memory devoted for trafo                   ... 2000.0 MB 
Max. Number of MO pairs treated together   ...  311      
Number Format for Storage                  ... Double (8 Byte)
Integral package used                      ... LIBINT

Starting integral evaluation:
    ... done with AO integral generation
Closing buffer AOK     (38.25 GB; CompressionRatio= 1.33)
Collecting buffer AOK 
Number of MO pairs included in the trafo   ... 8128
------------------------
SORTING OF (i,mue|j,nue)
------------------------

IBATCH = 1 of  2
IBATCH = 2 of  2
Closing buffer KAO     (51.03 GB; CompressionRatio= 1.00)
Collecting buffer KAO 
N(AO-Batches) Done                         ...  86199928 
N(AO-Batches) Skipped                      ...  82267420 
N(IJ)-pairs Skipped                        ...         0 
TOTAL TIME for half transformation         ...  3332.431 sec
AO-integral generation                     ...   223.827 sec
Half transformation                        ...   374.534 sec
K-integral sorting                         ...  2569.057 sec
Process 10:   Internal MO 132

Finished integral transformation - now doing MP2 part

Process 13:   Internal MO 156
Process  4:   Internal MO  84
Process  7:   Internal MO 108
OPERATOR COMBINATION   0   0: ij=( 52..178, 52..178)
Process  1:   Internal MO  60
Process  0:   Internal MO  54
Process  0:   Internal MO  57
Process  2:   Internal MO  69
Process  1:   Internal MO  63
Process  5:   Internal MO  93
Process  3:   Internal MO  78
Process  8:   Internal MO 117
Process  1:   Internal MO  66
Process  2:   Internal MO  72
Process  6:   Internal MO 102
Process 11:   Internal MO 141
Process  4:   Internal MO  87
Process 14:   Internal MO 165
Process  3:   Internal MO  81
Process  2:   Internal MO  75
Process  9:   Internal MO 126
Process  5:   Internal MO  96
Process  7:   Internal MO 111
Process 12:   Internal MO 150
Process  4:   Internal MO  90
Process 10:   Internal MO 135
Process 15:   Internal MO 174
Process  6:   Internal MO 105
Process  8:   Internal MO 120
Process  5:   Internal MO  99
Process 13:   Internal MO 159
Process  7:   Internal MO 114
Process  9:   Internal MO 129
Process 11:   Internal MO 144
Process 14:   Internal MO 168
Process 10:   Internal MO 138
Process  8:   Internal MO 123
Process 12:   Internal MO 153
Process 15:   Internal MO 177
Process 13:   Internal MO 162
Process 11:   Internal MO 147
Process 14:   Internal MO 171
-----------------------------------------------
 MP2 CORRELATION ENERGY   :     -7.292888431 Eh
-----------------------------------------------


-------
TIMINGS
-------
Total time                : 3875.443 sec
Integral trafo            : 3334.397 sec ( 86.0%)
K(i,j)                    :    6.337 sec (  0.2%)
T(i,j)                    :    0.085 sec (  0.0%)

---------------------------------------
MP2 TOTAL ENERGY:    -2130.746280300 Eh
---------------------------------------

Maximum memory used throughout the entire MP2-calculation: 2275.3 MB

-------------------------   --------------------
FINAL SINGLE POINT ENERGY     -2130.746280300388
-------------------------   --------------------


                            ***************************************
                            *     ORCA property calculations      *
                            ***************************************


  WARNING: The energy has been calculated at the MP2 level but the densities
           used in the property calculations are still SCF densities
           MP2 response densities have not been calculated 
           use %mp2 Density relaxed end
           or  %mp2 Density unrelaxed end

                                    ---------------------
                                    Active property flags
                                    ---------------------
   (+) Dipole Moment


------------------------------------------------------------------------------
                       ORCA ELECTRIC PROPERTIES CALCULATION
------------------------------------------------------------------------------

Dipole Moment Calculation                       ... on
Quadrupole Moment Calculation                   ... off
Polarizability Calculation                      ... off
GBWName                                         ... /scratch/allen/tmpyp4_amber_gaff2/conf1/conf1/Conf9.orca.gbw
Electron density                                ... /scratch/allen/tmpyp4_amber_gaff2/conf1/conf1/Conf9.orca.scfp
The origin for moment calculation is the CENTER OF MASS  = (-0.001174, -0.004913  0.002399)

-------------
DIPOLE MOMENT
-------------
                                X             Y             Z
Electronic contribution:      2.95546      -4.24446      -0.09008
Nuclear contribution   :     -0.04066       0.15825       0.10681
                        -----------------------------------------
Total Dipole Moment    :      2.91480      -4.08621       0.01673
                        -----------------------------------------
Magnitude (a.u.)       :      5.01931
Magnitude (Debye)      :     12.75807



--------------------
Rotational spectrum 
--------------------
 
Rotational constants in cm-1:     0.001503     0.001478     0.000760 
Rotational constants in MHz :    45.071109    44.300155    22.781455 

 Dipole components along the rotational axes: 
x,y,z [a.u.] :     3.579855     3.518192     0.020576 
x,y,z [Debye]:     9.099269     8.942534     0.052301 

 

Timings for individual modules:

Sum of individual times         ...     5813.021 sec (=  96.884 min)
GTO integral calculation        ...        8.490 sec (=   0.141 min)   0.1 %
SCF iterations                  ...     1904.601 sec (=  31.743 min)  32.8 %
MP2 module                      ...     3899.931 sec (=  64.999 min)  67.1 %
                             ****ORCA TERMINATED NORMALLY****
TOTAL RUN TIME: 0 days 1 hours 36 minutes 56 seconds 609 msec
# of primitive gaussian functions

