
                                 *****************
                                 * O   R   C   A *
                                 *****************

                                            #,                                       
                                            ###                                      
                                            ####                                     
                                            #####                                    
                                            ######                                   
                                           ########,                                 
                                     ,,################,,,,,                         
                               ,,#################################,,                 
                          ,,##########################################,,             
                       ,#########################################, ''#####,          
                    ,#############################################,,   '####,        
                  ,##################################################,,,,####,       
                ,###########''''           ''''###############################       
              ,#####''   ,,,,##########,,,,          '''####'''          '####       
            ,##' ,,,,###########################,,,                        '##       
           ' ,,###''''                  '''############,,,                           
         ,,##''                                '''############,,,,        ,,,,,,###''
      ,#''                                            '''#######################'''  
     '                                                          ''''####''''         
             ,#######,   #######,   ,#######,      ##                                
            ,#'     '#,  ##    ##  ,#'     '#,    #''#        ######   ,####,        
            ##       ##  ##   ,#'  ##            #'  '#       #        #'  '#        
            ##       ##  #######   ##           ,######,      #####,   #    #        
            '#,     ,#'  ##    ##  '#,     ,#' ,#      #,         ##   #,  ,#        
             '#######'   ##     ##  '#######'  #'      '#     #####' # '####'        



                  #######################################################
                  #                        -***-                        #
                  #          Department of theory and spectroscopy      #
                  #    Directorship and core code : Frank Neese         #
                  #        Max Planck Institute fuer Kohlenforschung    #
                  #                Kaiser Wilhelm Platz 1               #
                  #                 D-45470 Muelheim/Ruhr               #
                  #                      Germany                        #
                  #                                                     #
                  #                  All rights reserved                #
                  #                        -***-                        #
                  #######################################################


                         Program Version 5.0.4 -  RELEASE  -


 With contributions from (in alphabetic order):
   Daniel Aravena         : Magnetic Suceptibility
   Michael Atanasov       : Ab Initio Ligand Field Theory (pilot matlab implementation)
   Alexander A. Auer      : GIAO ZORA, VPT2 properties, NMR spectrum
   Ute Becker             : Parallelization
   Giovanni Bistoni       : ED, misc. LED, open-shell LED, HFLD
   Martin Brehm           : Molecular dynamics
   Dmytro Bykov           : SCF Hessian
   Vijay G. Chilkuri      : MRCI spin determinant printing, contributions to CSF-ICE
   Dipayan Datta          : RHF DLPNO-CCSD density
   Achintya Kumar Dutta   : EOM-CC, STEOM-CC
   Dmitry Ganyushin       : Spin-Orbit,Spin-Spin,Magnetic field MRCI
   Miquel Garcia          : C-PCM and meta-GGA Hessian, CC/C-PCM, Gaussian charge scheme
   Yang Guo               : DLPNO-NEVPT2, F12-NEVPT2, CIM, IAO-localization
   Andreas Hansen         : Spin unrestricted coupled pair/coupled cluster methods
   Benjamin Helmich-Paris : MC-RPA, TRAH-SCF, COSX integrals
   Lee Huntington         : MR-EOM, pCC
   Robert Izsak           : Overlap fitted RIJCOSX, COSX-SCS-MP3, EOM
   Marcus Kettner         : VPT2
   Christian Kollmar      : KDIIS, OOCD, Brueckner-CCSD(T), CCSD density, CASPT2, CASPT2-K
   Simone Kossmann        : Meta GGA functionals, TD-DFT gradient, OOMP2, MP2 Hessian
   Martin Krupicka        : Initial AUTO-CI
   Lucas Lang             : DCDCAS
   Marvin Lechner         : AUTO-CI (C++ implementation), FIC-MRCC
   Dagmar Lenk            : GEPOL surface, SMD
   Dimitrios Liakos       : Extrapolation schemes; Compound Job, initial MDCI parallelization
   Dimitrios Manganas     : Further ROCIS development; embedding schemes
   Dimitrios Pantazis     : SARC Basis sets
   Anastasios Papadopoulos: AUTO-CI, single reference methods and gradients
   Taras Petrenko         : DFT Hessian,TD-DFT gradient, ASA, ECA, R-Raman, ABS, FL, XAS/XES, NRVS
   Peter Pinski           : DLPNO-MP2, DLPNO-MP2 Gradient
   Christoph Reimann      : Effective Core Potentials
   Marius Retegan         : Local ZFS, SOC
   Christoph Riplinger    : Optimizer, TS searches, QM/MM, DLPNO-CCSD(T), (RO)-DLPNO pert. Triples
   Tobias Risthaus        : Range-separated hybrids, TD-DFT gradient, RPA, STAB
   Michael Roemelt        : Original ROCIS implementation
   Masaaki Saitow         : Open-shell DLPNO-CCSD energy and density
   Barbara Sandhoefer     : DKH picture change effects
   Avijit Sen             : IP-ROCIS
   Kantharuban Sivalingam : CASSCF convergence, NEVPT2, FIC-MRCI
   Bernardo de Souza      : ESD, SOC TD-DFT
   Georgi Stoychev        : AutoAux, RI-MP2 NMR, DLPNO-MP2 response
   Willem Van den Heuvel  : Paramagnetic NMR
   Boris Wezisla          : Elementary symmetry handling
   Frank Wennmohs         : Technical directorship


 We gratefully acknowledge several colleagues who have allowed us to
 interface, adapt or use parts of their codes:
   Stefan Grimme, W. Hujo, H. Kruse, P. Pracht,  : VdW corrections, initial TS optimization,
                  C. Bannwarth, S. Ehlert          DFT functionals, gCP, sTDA/sTD-DF
   Ed Valeev, F. Pavosevic, A. Kumar             : LibInt (2-el integral package), F12 methods
   Garnet Chan, S. Sharma, J. Yang, R. Olivares  : DMRG
   Ulf Ekstrom                                   : XCFun DFT Library
   Mihaly Kallay                                 : mrcc  (arbitrary order and MRCC methods)
   Jiri Pittner, Ondrej Demel                    : Mk-CCSD
   Frank Weinhold                                : gennbo (NPA and NBO analysis)
   Christopher J. Cramer and Donald G. Truhlar   : smd solvation model
   Lars Goerigk                                  : TD-DFT with DH, B97 family of functionals
   V. Asgeirsson, H. Jonsson                     : NEB implementation
   FAccTs GmbH                                   : IRC, NEB, NEB-TS, DLPNO-Multilevel, CI-OPT
                                                   MM, QMMM, 2- and 3-layer-ONIOM, Crystal-QMMM,
                                                   LR-CPCM, SF, NACMEs, symmetry and pop. for TD-DFT,
                                                   nearIR, NL-DFT gradient (VV10), updates on ESD,
                                                   ML-optimized integration grids
   S Lehtola, MJT Oliveira, MAL Marques          : LibXC Library
   Liviu Ungur et al                             : ANISO software


 Your calculation uses the libint2 library for the computation of 2-el integrals
 For citations please refer to: http://libint.valeyev.net

 Your ORCA version has been built with support for libXC version: 5.1.0
 For citations please refer to: https://tddft.org/programs/libxc/

 This ORCA versions uses:
   CBLAS   interface :  Fast vector & matrix operations
   LAPACKE interface :  Fast linear algebra routines
   SCALAPACK package :  Parallel linear algebra routines
   Shared memory     :  Shared parallel matrices
   BLAS/LAPACK       :  OpenBLAS 0.3.15  USE64BITINT DYNAMIC_ARCH NO_AFFINITY Sandybridge SINGLE_THREADED
        Core in use  :  Sandybridge
   Copyright (c) 2011-2014, The OpenBLAS Project


================================================================================

----- Orbital basis set information -----
Your calculation utilizes the basis: cc-pVDZ 
       H, B-Ne : Obtained from the ccRepo (grant-hill.group.shef.ac.uk/ccrepo) Feb. 2017
                 T. H. Dunning, Jr., J. Chem. Phys. 90, 1007 (1989)
            He : Obtained from the ccRepo (grant-hill.group.shef.ac.uk/ccrepo) Feb. 2017
                 D. E. Woon, T. H. Dunning, Jr., J. Chem. Phys. 100, 2975 (1994)
  Li-Be, Na-Mg : Obtained from the ccRepo (grant-hill.group.shef.ac.uk/ccrepo) Feb. 2017
                 B. P. Prascher, D. E. Woon, K. A. Peterson, T. H. Dunning, Jr., A. K. Wilson, Theor. Chem. Acc. 128, 69 (2011)
         Al-Ar : Obtained from the ccRepo (grant-hill.group.shef.ac.uk/ccrepo) Feb. 2017
                 D. E. Woon, T. H. Dunning, Jr., J. Chem. Phys. 98, 1358 (1993)
            Ca : Obtained from the Peterson Research Group Website (tyr0.chem.wsu.edu/~kipeters) Feb. 2017
                 J. Koput, K. A. Peterson, J. Phys. Chem. 106, 9595 (2002)
         Sc-Zn : Obtained from the ccRepo (grant-hill.group.shef.ac.uk/ccrepo) Feb. 2017
                 N. B. Balabanov, K. A. Peterson, J. Chem. Phys. 123, 064107 (2005)
                 N. B. Balabanov, K. A. Peterson, J. Chem. Phys. 125, 074110 (2006)
         Ga-Kr : Obtained from the ccRepo (grant-hill.group.shef.ac.uk/ccrepo) Feb. 2017
                 A. K. Wilson, D. E. Woon, K. A. Peterson, T. H. Dunning, Jr., J. Chem. Phys. 110, 7667 (1999)

================================================================================
                                        WARNINGS
                       Please study these warnings very carefully!
================================================================================


WARNING: No MP2 level density has been requested!
         To caclulate MP2 level properties use
         %mp2 Density relaxed end
         or
         %mp2 Density unrelaxed end

WARNING: Post HF methods need fully converged wavefunctions
  ===> : Setting SCFConvForced true
         You can overwrite this default with %scf ConvForced false 


INFO   : the flag for use of the SHARK integral package has been found!

================================================================================
                                       INPUT FILE
================================================================================
NAME = /scratch/allen/tmpyp4_amber_gaff2/2.Mdgx/conf11/conf11/Conf147.orca
|  1> ! PAL2
|  2> ! mp2 cc-pvdz TightSCF  NoKeepInts
|  3> 
|  4> %scf
|  5>   MaxCore 2000
|  6> end
|  7> %mp2
|  8>   MaxCore 2000
|  9> end
| 10> * xyz 0 1
| 11>    C       -4.78200         5.31400        -0.59400
| 12>    C        1.47400         4.04100         0.05700
| 13>    C       -2.80200         4.09300         0.04900
| 14>    C       -2.38700         5.23600         0.74900
| 15>    C       -3.17600         6.36900         0.75800
| 16>    C       -5.19300         7.61500         0.15000
| 17>    C        0.13200         4.30700         0.06100
| 18>    C       -0.56900         3.05600         0.04700
| 19>    C        1.64900         2.61800         0.02300
| 20>    C       -4.03000         4.15500        -0.62700
| 21>    N       -4.35200         6.39900         0.09000
| 22>    N        0.38800         2.06700         0.02500
| 23>    N       -2.01000         0.39500        -0.07500
| 24>    N       -0.38800        -2.07400        -0.02700
| 25>    N        2.01000        -0.40100         0.06500
| 26>    C       -1.96000         2.86100         0.02400
| 27>    C       -2.62300         1.61500        -0.01800
| 28>    C       -5.57300        -4.32900         1.06600
| 29>    C       -4.07300         1.47100         0.05600
| 30>    C       -4.10600        -2.75600        -0.02600
| 31>    C       -4.99500        -2.75700        -1.11100
| 32>    C       -6.13200        -3.54200        -1.07600
| 33>    C       -7.65100        -5.11300         0.04000
| 34>    C       -4.32400         0.14100         0.03700
| 35>    C       -3.02500        -0.52000        -0.04800
| 36>    C       -4.42200        -3.56600         1.07500
| 37>    N       -6.40700        -4.31300         0.00100
| 38>    C       -2.86700        -1.92200        -0.04000
| 39>    C       -1.65000        -2.62400        -0.02700
| 40>    C        3.56800        -6.14200        -1.04000
| 41>    C       -1.47600        -4.04900        -0.03400
| 42>    C        2.80300        -4.09900        -0.00800
| 43>    C        3.65700        -4.38400         1.06900
| 44>    C        4.42700        -5.53000         1.05900
| 45>    C        5.24500        -7.58800         0.01400
| 46>    C       -0.13400        -4.31500        -0.02200
| 47>    C        0.56800        -3.06400        -0.02700
| 48>    C        2.77500        -5.01200        -1.07400
| 49>    N        4.37600        -6.39100         0.01700
| 50>    C        1.95900        -2.86900        -0.00900
| 51>    C        2.62100        -1.62200         0.00900
| 52>    C        5.54300         4.33900        -1.13000
| 53>    C        4.07000        -1.47900        -0.09400
| 54>    C        4.10400         2.75100        -0.02100
| 55>    C        5.02700         2.72900         1.03600
| 56>    C        6.16600         3.50900         0.97800
| 57>    C        7.61900         5.15300        -0.11500
| 58>    C        4.32100        -0.14800        -0.09200
| 59>    C        3.02500         0.51400         0.01500
| 60>    C        4.38700         3.58200        -1.11500
| 61>    C        2.86600         1.91600         0.01300
| 62>    N        6.41300         4.29600        -0.09500
| 63>    H       -5.72900         5.41100        -1.11100
| 64>    H        2.27400         4.76600         0.08100
| 65>    H       -1.45300         5.24700         1.29900
| 66>    H       -2.90200         7.27100         1.29000
| 67>    H       -5.82000         7.57000         1.04300
| 68>    H       -4.54300         8.48900         0.19200
| 69>    H       -5.81500         7.65500        -0.74400
| 70>    H       -0.33200         5.28200         0.06900
| 71>    H       -4.39900         3.31100        -1.19800
| 72>    H        0.18200         1.07200         0.00500
| 73>    H       -0.18300        -1.08000        -0.02100
| 74>    H       -5.86400        -4.96200         1.89500
| 75>    H       -4.79400         2.27200         0.13900
| 76>    H       -4.80000        -2.16000        -1.99400
| 77>    H       -6.84100        -3.58200        -1.89300
| 78>    H       -8.42800        -4.53600         0.54600
| 79>    H       -7.95600        -5.33700        -0.98100
| 80>    H       -7.45600        -6.03700         0.58400
| 81>    H       -5.28700        -0.34400         0.10000
| 82>    H       -3.78000        -3.60100         1.94700
| 83>    H        3.58700        -6.86800        -1.84300
| 84>    H       -2.27600        -4.77400        -0.05000
| 85>    H        3.71400        -3.72400         1.92600
| 86>    H        5.09200        -5.79500         1.87100
| 87>    H        6.20500        -7.32900        -0.43900
| 88>    H        5.39300        -7.91700         1.04200
| 89>    H        4.75900        -8.37300        -0.56400
| 90>    H        0.32900        -5.29000        -0.00800
| 91>    H        2.14600        -4.84200        -1.94000
| 92>    H        5.80800         4.98600        -1.95600
| 93>    H        4.78800        -2.28100        -0.18500
| 94>    H        4.86000         2.11400         1.91200
| 95>    H        6.90100         3.53100         1.77200
| 96>    H        7.38300         6.10900         0.35600
| 97>    H        8.41400         4.65200         0.43500
| 98>    H        7.92100         5.31000        -1.15000
| 99>    H        5.28300         0.33600        -0.17900
|100>    H        3.72000         3.63200        -1.96700
|101> *
|102> 
|103>                          ****END OF INPUT****
================================================================================

                       ****************************
                       * Single Point Calculation *
                       ****************************

---------------------------------
CARTESIAN COORDINATES (ANGSTROEM)
---------------------------------
  C     -4.782000    5.314000   -0.594000
  C      1.474000    4.041000    0.057000
  C     -2.802000    4.093000    0.049000
  C     -2.387000    5.236000    0.749000
  C     -3.176000    6.369000    0.758000
  C     -5.193000    7.615000    0.150000
  C      0.132000    4.307000    0.061000
  C     -0.569000    3.056000    0.047000
  C      1.649000    2.618000    0.023000
  C     -4.030000    4.155000   -0.627000
  N     -4.352000    6.399000    0.090000
  N      0.388000    2.067000    0.025000
  N     -2.010000    0.395000   -0.075000
  N     -0.388000   -2.074000   -0.027000
  N      2.010000   -0.401000    0.065000
  C     -1.960000    2.861000    0.024000
  C     -2.623000    1.615000   -0.018000
  C     -5.573000   -4.329000    1.066000
  C     -4.073000    1.471000    0.056000
  C     -4.106000   -2.756000   -0.026000
  C     -4.995000   -2.757000   -1.111000
  C     -6.132000   -3.542000   -1.076000
  C     -7.651000   -5.113000    0.040000
  C     -4.324000    0.141000    0.037000
  C     -3.025000   -0.520000   -0.048000
  C     -4.422000   -3.566000    1.075000
  N     -6.407000   -4.313000    0.001000
  C     -2.867000   -1.922000   -0.040000
  C     -1.650000   -2.624000   -0.027000
  C      3.568000   -6.142000   -1.040000
  C     -1.476000   -4.049000   -0.034000
  C      2.803000   -4.099000   -0.008000
  C      3.657000   -4.384000    1.069000
  C      4.427000   -5.530000    1.059000
  C      5.245000   -7.588000    0.014000
  C     -0.134000   -4.315000   -0.022000
  C      0.568000   -3.064000   -0.027000
  C      2.775000   -5.012000   -1.074000
  N      4.376000   -6.391000    0.017000
  C      1.959000   -2.869000   -0.009000
  C      2.621000   -1.622000    0.009000
  C      5.543000    4.339000   -1.130000
  C      4.070000   -1.479000   -0.094000
  C      4.104000    2.751000   -0.021000
  C      5.027000    2.729000    1.036000
  C      6.166000    3.509000    0.978000
  C      7.619000    5.153000   -0.115000
  C      4.321000   -0.148000   -0.092000
  C      3.025000    0.514000    0.015000
  C      4.387000    3.582000   -1.115000
  C      2.866000    1.916000    0.013000
  N      6.413000    4.296000   -0.095000
  H     -5.729000    5.411000   -1.111000
  H      2.274000    4.766000    0.081000
  H     -1.453000    5.247000    1.299000
  H     -2.902000    7.271000    1.290000
  H     -5.820000    7.570000    1.043000
  H     -4.543000    8.489000    0.192000
  H     -5.815000    7.655000   -0.744000
  H     -0.332000    5.282000    0.069000
  H     -4.399000    3.311000   -1.198000
  H      0.182000    1.072000    0.005000
  H     -0.183000   -1.080000   -0.021000
  H     -5.864000   -4.962000    1.895000
  H     -4.794000    2.272000    0.139000
  H     -4.800000   -2.160000   -1.994000
  H     -6.841000   -3.582000   -1.893000
  H     -8.428000   -4.536000    0.546000
  H     -7.956000   -5.337000   -0.981000
  H     -7.456000   -6.037000    0.584000
  H     -5.287000   -0.344000    0.100000
  H     -3.780000   -3.601000    1.947000
  H      3.587000   -6.868000   -1.843000
  H     -2.276000   -4.774000   -0.050000
  H      3.714000   -3.724000    1.926000
  H      5.092000   -5.795000    1.871000
  H      6.205000   -7.329000   -0.439000
  H      5.393000   -7.917000    1.042000
  H      4.759000   -8.373000   -0.564000
  H      0.329000   -5.290000   -0.008000
  H      2.146000   -4.842000   -1.940000
  H      5.808000    4.986000   -1.956000
  H      4.788000   -2.281000   -0.185000
  H      4.860000    2.114000    1.912000
  H      6.901000    3.531000    1.772000
  H      7.383000    6.109000    0.356000
  H      8.414000    4.652000    0.435000
  H      7.921000    5.310000   -1.150000
  H      5.283000    0.336000   -0.179000
  H      3.720000    3.632000   -1.967000

----------------------------
CARTESIAN COORDINATES (A.U.)
----------------------------
  NO LB      ZA    FRAG     MASS         X           Y           Z
   0 C     6.0000    0    12.011   -9.036670   10.042005   -1.122497
   1 C     6.0000    0    12.011    2.785456    7.636383    0.107714
   2 C     6.0000    0    12.011   -5.295013    7.734649    0.092597
   3 C     6.0000    0    12.011   -4.510776    9.894606    1.415405
   4 C     6.0000    0    12.011   -6.001770   12.035666    1.432412
   5 C     6.0000    0    12.011   -9.813348   14.390265    0.283459
   6 C     6.0000    0    12.011    0.249444    8.139050    0.115273
   7 C     6.0000    0    12.011   -1.075254    5.775003    0.088817
   8 C     6.0000    0    12.011    3.116158    4.947303    0.043464
   9 C     6.0000    0    12.011   -7.615596    7.851812   -1.184858
  10 N     7.0000    0    14.007   -8.224088   12.092358    0.170075
  11 N     7.0000    0    14.007    0.733214    3.906064    0.047243
  12 N     7.0000    0    14.007   -3.798350    0.746442   -0.141729
  13 N     7.0000    0    14.007   -0.733214   -3.919292   -0.051023
  14 N     7.0000    0    14.007    3.798350   -0.757780    0.122832
  15 C     6.0000    0    12.011   -3.703863    5.406506    0.045353
  16 C     6.0000    0    12.011   -4.956752    3.051908   -0.034015
  17 C     6.0000    0    12.011  -10.531444   -8.180624    2.014448
  18 C     6.0000    0    12.011   -7.696855    2.779787    0.105825
  19 C     6.0000    0    12.011   -7.759216   -5.208085   -0.049133
  20 C     6.0000    0    12.011   -9.439182   -5.209975   -2.099486
  21 C     6.0000    0    12.011  -11.587801   -6.693410   -2.033345
  22 C     6.0000    0    12.011  -14.458295   -9.662170    0.075589
  23 C     6.0000    0    12.011   -8.171176    0.266451    0.069920
  24 C     6.0000    0    12.011   -5.716422   -0.982658   -0.090707
  25 C     6.0000    0    12.011   -8.356369   -6.738763    2.031456
  26 N     7.0000    0    14.007  -12.107475   -8.150389    0.001890
  27 C     6.0000    0    12.011   -5.417845   -3.632054   -0.075589
  28 C     6.0000    0    12.011   -3.118048   -4.958641   -0.051023
  29 C     6.0000    0    12.011    6.742543  -11.606698   -1.965315
  30 C     6.0000    0    12.011   -2.789236   -7.651501   -0.064251
  31 C     6.0000    0    12.011    5.296902   -7.745987   -0.015118
  32 C     6.0000    0    12.011    6.910728   -8.284559    2.020117
  33 C     6.0000    0    12.011    8.365818  -10.450186    2.001220
  34 C     6.0000    0    12.011    9.911614  -14.339242    0.026456
  35 C     6.0000    0    12.011   -0.253223   -8.154168   -0.041574
  36 C     6.0000    0    12.011    1.073364   -5.790121   -0.051023
  37 C     6.0000    0    12.011    5.243990   -9.471307   -2.029566
  38 N     7.0000    0    14.007    8.269442  -12.077240    0.032125
  39 C     6.0000    0    12.011    3.701973   -5.421624   -0.017008
  40 C     6.0000    0    12.011    4.952972   -3.065136    0.017008
  41 C     6.0000    0    12.011   10.474752    8.199522   -2.135391
  42 C     6.0000    0    12.011    7.691185   -2.794905   -0.177634
  43 C     6.0000    0    12.011    7.755436    5.198637   -0.039684
  44 C     6.0000    0    12.011    9.499653    5.157063    1.957756
  45 C     6.0000    0    12.011   11.652051    6.631049    1.848152
  46 C     6.0000    0    12.011   14.397823    9.737759   -0.217319
  47 C     6.0000    0    12.011    8.165507   -0.279679   -0.173855
  48 C     6.0000    0    12.011    5.716422    0.971319    0.028346
  49 C     6.0000    0    12.011    8.290229    6.768999   -2.107045
  50 C     6.0000    0    12.011    5.415955    3.620715    0.024566
  51 N     7.0000    0    14.007   12.118814    8.118263   -0.179524
  52 H     1.0000    0     1.008  -10.826241   10.225308   -2.099486
  53 H     1.0000    0     1.008    4.297237    9.006435    0.153068
  54 H     1.0000    0     1.008   -2.745772    9.915393    2.454754
  55 H     1.0000    0     1.008   -5.483985   13.740199    2.437747
  56 H     1.0000    0     1.008  -10.998206   14.305227    1.970984
  57 H     1.0000    0     1.008   -8.585026   16.041885    0.362827
  58 H     1.0000    0     1.008  -10.988757   14.465854   -1.405956
  59 H     1.0000    0     1.008   -0.627389    9.981533    0.130391
  60 H     1.0000    0     1.008   -8.312905    6.256883   -2.263892
  61 H     1.0000    0     1.008    0.343930    2.025786    0.009449
  62 H     1.0000    0     1.008   -0.345820   -2.040904   -0.039684
  63 H     1.0000    0     1.008  -11.081354   -9.376821    3.581031
  64 H     1.0000    0     1.008   -9.059347    4.293458    0.262672
  65 H     1.0000    0     1.008   -9.070685   -4.081808   -3.768114
  66 H     1.0000    0     1.008  -12.927616   -6.768999   -3.577252
  67 H     1.0000    0     1.008  -15.926612   -8.571798    1.031790
  68 H     1.0000    0     1.008  -15.034661  -10.085468   -1.853821
  69 H     1.0000    0     1.008  -14.089798  -11.408277    1.103600
  70 H     1.0000    0     1.008   -9.990982   -0.650066    0.188973
  71 H     1.0000    0     1.008   -7.143165   -6.804904    3.679297
  72 H     1.0000    0     1.008    6.778448  -12.978639   -3.482765
  73 H     1.0000    0     1.008   -4.301017   -9.021553   -0.094486
  74 H     1.0000    0     1.008    7.018443   -7.037340    3.639613
  75 H     1.0000    0     1.008    9.622485  -10.950963    3.535678
  76 H     1.0000    0     1.008   11.725751  -13.849803   -0.829590
  77 H     1.0000    0     1.008   10.191293  -14.960962    1.969095
  78 H     1.0000    0     1.008    8.993207  -15.822677   -1.065806
  79 H     1.0000    0     1.008    0.621720   -9.996651   -0.015118
  80 H     1.0000    0     1.008    4.055352   -9.150054   -3.666069
  81 H     1.0000    0     1.008   10.975529    9.422175   -3.696304
  82 H     1.0000    0     1.008    9.048009   -4.310465   -0.349599
  83 H     1.0000    0     1.008    9.184069    3.994881    3.613156
  84 H     1.0000    0     1.008   13.041000    6.672623    3.348595
  85 H     1.0000    0     1.008   13.951848   11.544337    0.672743
  86 H     1.0000    0     1.008   15.900156    8.791006    0.822031
  87 H     1.0000    0     1.008   14.968521   10.034446   -2.173185
  88 H     1.0000    0     1.008    9.983423    0.634948   -0.338261
  89 H     1.0000    0     1.008    7.029781    6.863485   -3.717091

--------------------------------
INTERNAL COORDINATES (ANGSTROEM)
--------------------------------
 C      0   0   0     0.000000000000     0.00000000     0.00000000
 C      1   0   0     6.417309872524     0.00000000     0.00000000
 C      1   2   0     2.413439454389    22.00218981     0.00000000
 C      3   1   2     1.403094437306    87.90479131    55.64980706
 C      4   3   1     1.380684974931   120.18008420     0.15830215
 C      5   4   3     2.447543462331   152.50717138     1.57253214
 C      2   1   3     1.368114030335     5.99688019   300.32767064
 C      7   2   4     1.434084376876   108.05010202   237.57321631
 C      2   1   3     1.434123425651   108.26331670    30.91474415
 C      1   2   7     1.381981910157    46.01989446   265.20947836
 N      1   2   7     1.352767903227    78.34221689    62.91839332
 N      9   2   1     1.376127174356   106.58526707   352.92314494
 N     12   9   2     2.925062050624   168.53581413   171.12065651
 N     13  12   9     2.954513327098    91.55032014    11.12112580
 N     14  13  12     2.925371258490    88.43092389   359.84326247
 C      8   7   2     1.404790019896   127.24786865   181.11170171
 C     13  12   9     1.366535034311    81.72106996   188.00453233
 C     14  13  12     5.758810554272    80.56209567   166.76250791
 C     17  13  12     1.459010623676   111.08861209   183.82872609
 C     18  14  13     2.412235892279    27.27532823    36.33507194
 C     20  18  14     1.402692767501    87.95206320   148.94598259
 C     21  20  18     1.382106725257   120.14573887   359.70382047
 C     18  14  13     2.446510985056   144.15733107    82.80075377
 C     19  17  13     1.353610726908   106.29293361   359.75308708
 C     13  12   9     1.366813447402   172.21332906    33.46711076
 C     18  14  13     1.380960173213    15.08449437   309.23336894
 N     22  21  20     1.352773077792   120.73759875     0.27865223
 C     25  13  17     1.410897586645   125.60330303   182.37774668
 C     14  13  12     1.376642291955    80.24689249   177.85461986
 C     14  13  12     5.764089607215   164.51507311   312.20821879
 C     29  14  13     1.435600919476   106.58649366   178.76395472
 C     30  14  13     2.413316804732    27.10625047    82.12560436
 C     32  30  14     1.403734305344    87.90059683   149.76154742
 C     33  32  30     1.380694028378   120.14881443   359.74174632
 C     34  33  32     2.448777858443   152.49203239     2.45173620
 C     31  29  14     1.368160809262   108.16950133     0.70383075
 C     14  13  12     1.376239804685   169.26375223   353.09862627
 C     30  14  13     1.380907310430    14.68948582   353.70041132
 N     34  33  32     1.352658863128   120.85575621     0.19603406
 C     37  14  29     1.404717053360   126.01551127   180.90772073
 C     15  14  13     1.366491126938    81.61824056   183.09049352
 C      2   1   3     4.249062720177   153.03707908   152.48610923
 C     41  15  14     1.459677704153   111.05201287   175.08990246
 C     42   2   1     2.412953791518    41.78584867   210.47590234
 C     44  42   2     1.403446472082    87.95153797   233.97558675
 C     45  44  42     1.381696421071   120.11137308     0.19721020
 C     42   2   1     2.450019795838   135.97209175   120.79075145
 C     43  41  15     1.354461516618   106.26758155     0.30894352
 C     15  14  13     1.367461151185   171.87382904   332.35056460
 C     42   2   1     1.381886391857    32.59078432   259.33118154
 C      9   2   1     1.404988612053   126.98745415   173.92748247
 N     42   2   1     1.352765315936   113.57249190   148.52734064
 H      1   2   7     1.083285280986   156.69260966   195.41888370
 H      2   1   3     1.079907866440   126.24653478   204.84965732
 H      4   3   1     1.083963560273   121.08177803   179.51891780
 H      5   4   3     1.082452770332   122.84428997   179.47775378
 H      6   5   4     1.092063642834   104.42054895   100.13832925
 H      6   5   4     1.090018348469    84.67520587   209.56895846
 H      6   5   4     1.089825674133   133.85199279   322.36739554
 H      7   2  54     1.079807853278   126.66122480     1.30600390
 H     10   1   2     1.083761043773   118.71316947   206.55979680
 H     12   9   2     1.016297692608   125.29023241   180.00180175
 H     14  13  12     1.014936943854    44.97226959   359.42596618
 H     18  14  13     1.082871645210   128.03556573   234.20482432
 H     19  17  13     1.080893611786   126.41830519   178.11313280
 H     21  20  18     1.083569563987   121.05669627   180.67006309
 H     22  21  20     1.082483256222   122.73097286   180.59748951
 H     23  18  14     1.092105306278   103.92715769   234.93429879
 H     23  18  14     1.088871893291   134.19244188    12.25587044
 H     23  18  14     1.089833473518    84.85857450   125.45241208
 H     24  19  17     1.080075460327   127.28078426   178.44613241
 H     26  18  14     1.083408048706   118.76995697   244.94906660
 H     30  14  13     1.082703098730   127.99711412   279.66882698
 H     31  29  14     1.079759695488   125.22293469   180.92530585
 H     33  32  30     1.083188810873   121.01964473   180.74284758
 H     34  33  32     1.082494341787   122.70821597   180.59516895
 H     35  34  33     1.092652735319   105.73575241    97.19771933
 H     35  34  33     1.089462711615    84.05943581   206.43036958
 H     35  34  33     1.089268102902   133.08365142   318.50306270
 H     36  31  29     1.079439669458   126.61599965   178.98859863
 H     38  30  73     1.083742127999   118.77264435   359.90091293
 H     42   2   1     1.082178358682   119.31790784     5.15887109
 H     43  41  15     1.080281907652   126.36969097   182.06329380
 H     45  44  42     1.083277434455   121.10105945   179.58025624
 H     46  45  44     1.082194529648   122.72144639   179.46906377
 H     47  42   2     1.091546151109   106.65128841   315.16475048
 H     47  42   2     1.088818625851   132.46019523    94.52397119
 H     47  42   2     1.089531091801    83.63838232   206.04504406
 H     48  43  41     1.080402239909   127.23657387   181.62955349
 H     50  42   2     1.083186502870   118.77001737    94.71359229

---------------------------
INTERNAL COORDINATES (A.U.)
---------------------------
 C      0   0   0     0.000000000000     0.00000000     0.00000000
 C      1   0   0    12.126958175580     0.00000000     0.00000000
 C      1   2   0     4.560739609595    22.00218981     0.00000000
 C      3   1   2     2.651464226537    87.90479131    55.64980706
 C      4   3   1     2.609116479839   120.18008420     0.15830215
 C      5   4   3     4.625186844675   152.50717138     1.57253214
 C      2   1   3     2.585360837309     5.99688019   300.32767064
 C      7   2   4     2.710026725231   108.05010202   237.57321631
 C      2   1   3     2.710100516721   108.26331670    30.91474415
 C      1   2   7     2.611567332229    46.01989446   265.20947836
 N      1   2   7     2.556360859857    78.34221689    62.91839332
 N      9   2   1     2.600503484979   106.58526707   352.92314494
 N     12   9   2     5.527566200405   168.53581413   171.12065651
 N     13  12   9     5.583221047236    91.55032014    11.12112580
 N     14  13  12     5.528150518591    88.43092389   359.84326247
 C      8   7   2     2.654668413270   127.24786865   181.11170171
 C     13  12   9     2.582376967257    81.72106996   188.00453233
 C     14  13  12    10.882574804710    80.56209567   166.76250791
 C     17  13  12     2.757130505230   111.08861209   183.82872609
 C     18  14  13     4.558465206823    27.27532823    36.33507194
 C     20  18  14     2.650705180609    87.95206320   148.94598259
 C     21  20  18     2.611803198586   120.14573887   359.70382047
 C     18  14  13     4.623235745386   144.15733107    82.80075377
 C     19  17  13     2.557953565794   106.29293361   359.75308708
 C     13  12   9     2.582903091751   172.21332906    33.46711076
 C     18  14  13     2.609636529225    15.08449437   309.23336894
 N     22  21  20     2.556370638369   120.73759875     0.27865223
 C     25  13  17     2.666210041769   125.60330303   182.37774668
 C     14  13  12     2.601476916169    80.24689249   177.85461986
 C     14  13  12    10.892550769017   164.51507311   312.20821879
 C     29  14  13     2.712892575415   106.58649366   178.76395472
 C     30  14  13     4.560507835333    27.10625047    82.12560436
 C     32  30  14     2.652673401891    87.90059683   149.76154742
 C     33  32  30     2.609133588376   120.14881443   359.74174632
 C     34  33  32     4.627519515267   152.49203239     2.45173620
 C     31  29  14     2.585449236669   108.16950133     0.70383075
 C     14  13  12     2.600716325456   169.26375223   353.09862627
 C     30  14  13     2.609536633043    14.68948582   353.70041132
 N     34  33  32     2.556154803934   120.85575621     0.19603406
 C     37  14  29     2.654530526499   126.01551127   180.90772073
 C     15  14  13     2.582293994346    81.61824056   183.09049352
 C      2   1   3     8.029564866989   153.03707908   152.48610923
 C     41  15  14     2.758391104639   111.05201287   175.08990246
 C     42   2   1     4.559821839776    41.78584867   210.47590234
 C     44  42   2     2.652129475853    87.95153797   233.97558675
 C     45  44  42     2.611027836043   120.11137308     0.19721020
 C     42   2   1     4.629866436820   135.97209175   120.79075145
 C     43  41  15     2.559561325344   106.26758155     0.30894352
 C     15  14  13     2.584127074516   171.87382904   332.35056460
 C     42   2   1     2.611386828803    32.59078432   259.33118154
 C      9   2   1     2.655043698059   126.98745415   173.92748247
 N     42   2   1     2.556355970587   113.57249190   148.52734064
 H      1   2   7     2.047112505971   156.69260966   195.41888370
 H      2   1   3     2.040730117440   126.24653478   204.84965732
 H      4   3   1     2.048394268066   121.08177803   179.51891780
 H      5   4   3     2.045539288832   122.84428997   179.47775378
 H      6   5   4     2.063701205769   104.42054895   100.13832925
 H      6   5   4     2.059836159556    84.67520587   209.56895846
 H      6   5   4     2.059472057828   133.85199279   322.36739554
 H      7   2  54     2.040541119952   126.66122480     1.30600390
 H     10   1   2     2.048011567344   118.71316947   206.55979680
 H     12   9   2     1.920524309565   125.29023241   180.00180175
 H     14  13  12     1.917952867083    44.97226959   359.42596618
 H     18  14  13     2.046330847636   128.03556573   234.20482432
 H     19  17  13     2.042592906181   126.41830519   178.11313280
 H     21  20  18     2.047649722989   121.05669627   180.67006309
 H     22  21  20     2.045596898814   122.73097286   180.59748951
 H     23  18  14     2.063779938267   103.92715769   234.93429879
 H     23  18  14     2.057669673245   134.19244188    12.25587044
 H     23  18  14     2.059486796529    84.85857450   125.45241208
 H     24  19  17     2.041046823986   127.28078426   178.44613241
 H     26  18  14     2.047344503340   118.76995697   244.94906660
 H     30  14  13     2.046012340948   127.99711412   279.66882698
 H     31  29  14     2.040450114918   125.22293469   180.92530585
 H     33  32  30     2.046930203877   121.01964473   180.74284758
 H     34  33  32     2.045617847496   122.70821597   180.59516895
 H     35  34  33     2.064814429233   105.73575241    97.19771933
 H     35  34  33     2.058786158072    84.05943581   206.43036958
 H     35  34  33     2.058418400901   133.08365142   318.50306270
 H     36  31  29     2.039845353366   126.61599965   178.98859863
 H     38  30  73     2.047975821711   118.77264435   359.90091293
 H     42   2   1     2.045020725966   119.31790784     5.15887109
 H     43  41  15     2.041436952892   126.36969097   182.06329380
 H     45  44  42     2.047097678177   121.10105945   179.58025624
 H     46  45  44     2.045051284662   122.72144639   179.46906377
 H     47  42   2     2.062723288131   106.65128841   315.16475048
 H     47  42   2     2.057569012371   132.46019523    94.52397119
 H     47  42   2     2.058915377895    83.63838232   206.04504406
 H     48  43  41     2.041664347903   127.23657387   181.62955349
 H     50  42   2     2.046925842384   118.77001737    94.71359229

---------------------
BASIS SET INFORMATION
---------------------
There are 3 groups of distinct atoms

 Group   1 Type C   : 17s4p1d contracted to 3s2p1d pattern {881/31/1}
 Group   2 Type N   : 17s4p1d contracted to 3s2p1d pattern {881/31/1}
 Group   3 Type H   : 4s1p contracted to 2s1p pattern {31/1}

Atom   0C    basis set group =>   1
Atom   1N    basis set group =>   2
Atom   2C    basis set group =>   1
Atom   3N    basis set group =>   2
Atom   4C    basis set group =>   1
Atom   5N    basis set group =>   2
Atom   6C    basis set group =>   1
Atom   7N    basis set group =>   2
Atom   8C    basis set group =>   1
Atom   9N    basis set group =>   2
Atom  10C    basis set group =>   1
Atom  11N    basis set group =>   2
Atom  12C    basis set group =>   1
Atom  13N    basis set group =>   2
Atom  14C    basis set group =>   1
Atom  15N    basis set group =>   2
Atom  16C    basis set group =>   1
Atom  17C    basis set group =>   1
Atom  18C    basis set group =>   1
Atom  19C    basis set group =>   1
Atom  20C    basis set group =>   1
Atom  21C    basis set group =>   1
Atom  22C    basis set group =>   1
Atom  23C    basis set group =>   1
Atom  24C    basis set group =>   1
Atom  25C    basis set group =>   1
Atom  26C    basis set group =>   1
Atom  27C    basis set group =>   1
Atom  28C    basis set group =>   1
Atom  29C    basis set group =>   1
Atom  30C    basis set group =>   1
Atom  31C    basis set group =>   1
Atom  32C    basis set group =>   1
Atom  33C    basis set group =>   1
Atom  34C    basis set group =>   1
Atom  35C    basis set group =>   1
Atom  36C    basis set group =>   1
Atom  37C    basis set group =>   1
Atom  38C    basis set group =>   1
Atom  39C    basis set group =>   1
Atom  40C    basis set group =>   1
Atom  41C    basis set group =>   1
Atom  42C    basis set group =>   1
Atom  43C    basis set group =>   1
Atom  44C    basis set group =>   1
Atom  45C    basis set group =>   1
Atom  46C    basis set group =>   1
Atom  47C    basis set group =>   1
Atom  48C    basis set group =>   1
Atom  49C    basis set group =>   1
Atom  50C    basis set group =>   1
Atom  51C    basis set group =>   1
Atom  52H    basis set group =>   3
Atom  53H    basis set group =>   3
Atom  54H    basis set group =>   3
Atom  55H    basis set group =>   3
Atom  56H    basis set group =>   3
Atom  57H    basis set group =>   3
Atom  58H    basis set group =>   3
Atom  59H    basis set group =>   3
Atom  60H    basis set group =>   3
Atom  61H    basis set group =>   3
Atom  62H    basis set group =>   3
Atom  63H    basis set group =>   3
Atom  64H    basis set group =>   3
Atom  65H    basis set group =>   3
Atom  66H    basis set group =>   3
Atom  67H    basis set group =>   3
Atom  68H    basis set group =>   3
Atom  69H    basis set group =>   3
Atom  70H    basis set group =>   3
Atom  71H    basis set group =>   3
Atom  72H    basis set group =>   3
Atom  73H    basis set group =>   3
Atom  74H    basis set group =>   3
Atom  75H    basis set group =>   3
Atom  76H    basis set group =>   3
Atom  77H    basis set group =>   3
Atom  78H    basis set group =>   3
Atom  79H    basis set group =>   3
Atom  80H    basis set group =>   3
Atom  81H    basis set group =>   3
Atom  82H    basis set group =>   3
Atom  83H    basis set group =>   3
Atom  84H    basis set group =>   3
Atom  85H    basis set group =>   3
Atom  86H    basis set group =>   3
Atom  87H    basis set group =>   3
Atom  88H    basis set group =>   3
Atom  89H    basis set group =>   3


           ************************************************************
           *        Program running with 16 parallel MPI-processes    *
           *              working on a common directory               *
           ************************************************************
------------------------------------------------------------------------------
                           ORCA GTO INTEGRAL CALCULATION
------------------------------------------------------------------------------
------------------------------------------------------------------------------
                   ___                                                        
                  /   \      - P O W E R E D   B Y -                         
                 /     \                                                     
                 |  |  |   _    _      __       _____    __    __             
                 |  |  |  | |  | |    /  \     |  _  \  |  |  /  |          
                  \  \/   | |  | |   /    \    | | | |  |  | /  /          
                 / \  \   | |__| |  /  /\  \   | |_| |  |  |/  /          
                |  |  |   |  __  | /  /__\  \  |    /   |      \           
                |  |  |   | |  | | |   __   |  |    \   |  |\   \          
                \     /   | |  | | |  |  |  |  | |\  \  |  | \   \       
                 \___/    |_|  |_| |__|  |__|  |_| \__\ |__|  \__/        
                                                                              
                      - O R C A' S   B I G   F R I E N D -                    
                                      &                                       
                       - I N T E G R A L  F E E D E R -                       
                                                                              
 v1 FN, 2020, v2 2021                                                         
------------------------------------------------------------------------------


Reading SHARK input file /scratch/allen/tmpyp4_amber_gaff2/conf1/conf1/Conf147.orca.SHARKINP.tmp ... ok
----------------------
SHARK INTEGRAL PACKAGE
----------------------

Number of atoms                             ...     90
Number of basis functions                   ...   1230
Number of shells                            ...    738
Maximum angular momentum                    ...      2
Integral batch strategy                     ... SHARK/LIBINT Hybrid
RI-J (if used) integral strategy            ... SPLIT-RIJ (Revised 2003 algorithm where possible)
Printlevel                                  ...      1
Contraction scheme used                     ... PARTIAL GENERAL contraction
Coulomb Range Separation                    ... NOT USED
Exchange Range Separation                   ... NOT USED
Finite Nucleus Model                        ... NOT USED
Auxiliary Coulomb fitting basis             ... NOT available
Auxiliary J/K fitting basis                 ... NOT available
Auxiliary Correlation fitting basis         ... NOT available
Auxiliary 'external' fitting basis          ... NOT available
Integral threshold                          ...     2.500000e-11
Primitive cut-off                           ...     2.500000e-12
Primitive pair pre-selection threshold      ...     2.500000e-12

Calculating pre-screening integrals         ... done (  0.1 sec) Dimension = 738
Calculating pre-screening integrals (ORCA)  ... done (  0.3 sec) Dimension = 426
Organizing shell pair data                  ... done (  0.7 sec)
Shell pair information
Total number of shell pairs                 ...    272691
Shell pairs after pre-screening             ...     71631
Total number of primitive shell pairs       ...    422091
Primitive shell pairs kept                  ...     92459
          la=0 lb=0:  29405 shell pairs
          la=1 lb=0:  25992 shell pairs
          la=1 lb=1:   4706 shell pairs
          la=2 lb=0:   7877 shell pairs
          la=2 lb=1:   3122 shell pairs
          la=2 lb=2:    529 shell pairs

Calculating one electron integrals          ... done (  0.2 sec)
Calculating Nuclear repulsion               ... done (  0.0 sec) ENN=   6230.293067997917 Eh

SHARK setup successfully completed in   4.3 seconds

Maximum memory used throughout the entire GTOINT-calculation: 99.0 MB


           ************************************************************
           *        Program running with 16 parallel MPI-processes    *
           *              working on a common directory               *
           ************************************************************
-------------------------------------------------------------------------------
                                 ORCA SCF
-------------------------------------------------------------------------------

------------
SCF SETTINGS
------------
Hamiltonian:
 Ab initio Hamiltonian  Method          .... Hartree-Fock(GTOs)


General Settings:
 Integral files         IntName         .... /scratch/allen/tmpyp4_amber_gaff2/conf1/conf1/Conf147.orca
 Hartree-Fock type      HFTyp           .... RHF
 Total Charge           Charge          ....    0
 Multiplicity           Mult            ....    1
 Number of Electrons    NEL             ....  358
 Basis Dimension        Dim             ....  918
 Nuclear Repulsion      ENuc            ....   6230.2930679979 Eh

Convergence Acceleration:
 DIIS                   CNVDIIS         .... on
   Start iteration      DIISMaxIt       ....    12
   Startup error        DIISStart       ....  0.200000
   # of expansion vecs  DIISMaxEq       ....     5
   Bias factor          DIISBfac        ....   1.050
   Max. coefficient     DIISMaxC        ....  10.000
 Trust-Rad. Augm. Hess. CNVTRAH         .... auto
   Auto Start mean grad. ratio tolernc. ....  1.125000
   Auto Start start iteration           ....    20
   Auto Start num. interpolation iter.  ....    10
   Max. Number of Micro iterations      ....    16
   Max. Number of Macro iterations      .... Maxiter - #DIIS iter
   Number of Davidson start vectors     ....     2
   Converg. threshold I  (grad. norm)   ....   1.000e-05
   Converg. threshold II (energy diff.) ....   1.000e-08
   Grad. Scal. Fac. for Micro threshold ....   0.100
   Minimum threshold for Micro iter.    ....   0.010
   NR start threshold (gradient norm)   ....   0.001
   Initial trust radius                 ....   0.400
   Minimum AH scaling param. (alpha)    ....   1.000
   Maximum AH scaling param. (alpha)    .... 1000.000
   Orbital update algorithm             .... Taylor
   White noise on init. David. guess    .... on
   Maximum white noise                  ....   0.010
   Quad. conv. algorithm                .... NR
 SOSCF                  CNVSOSCF        .... on
   Start iteration      SOSCFMaxIt      ....   150
   Startup grad/error   SOSCFStart      ....  0.003300
 Level Shifting         CNVShift        .... on
   Level shift para.    LevelShift      ....    0.2500
   Turn off err/grad.   ShiftErr        ....    0.0010
 Zerner damping         CNVZerner       .... off
 Static damping         CNVDamp         .... on
   Fraction old density DampFac         ....    0.7000
   Max. Damping (<1)    DampMax         ....    0.9800
   Min. Damping (>=0)   DampMin         ....    0.0000
   Turn off err/grad.   DampErr         ....    0.1000
 Fernandez-Rico         CNVRico         .... off

SCF Procedure:
 Maximum # iterations   MaxIter         ....   125
 SCF integral mode      SCFMode         .... Direct
   Integral package                     .... SHARK and LIBINT hybrid scheme
 Reset frequency        DirectResetFreq ....    20
 Integral Threshold     Thresh          ....  2.500e-11 Eh
 Primitive CutOff       TCut            ....  2.500e-12 Eh

Convergence Tolerance:
 Convergence Check Mode ConvCheckMode   .... Total+1el-Energy
 Convergence forced     ConvForced      .... 1
 Energy Change          TolE            ....  1.000e-08 Eh
 1-El. energy change                    ....  1.000e-05 Eh
 Orbital Gradient       TolG            ....  1.000e-05
 Orbital Rotation angle TolX            ....  1.000e-05
 DIIS Error             TolErr          ....  5.000e-07


Diagonalization of the overlap matrix:
Smallest eigenvalue                        ... 2.213e-04
Time for diagonalization                   ...    0.462 sec
Threshold for overlap eigenvalues          ... 1.000e-08
Number of eigenvalues below threshold      ... 0
Time for construction of square roots      ...    0.271 sec
Total time needed                          ...    0.740 sec

Time for model grid setup =    1.288 sec

------------------------------
INITIAL GUESS: MODEL POTENTIAL
------------------------------
Loading Hartree-Fock densities                     ... done
Calculating cut-offs                               ... done
Initializing the effective Hamiltonian             ... done
Setting up the integral package (SHARK)            ... done
Starting the Coulomb interaction                   ... done (   1.4 sec)
Reading the grid                                   ... done
Mapping shells                                     ... done
Starting the XC term evaluation                    ... done (   0.2 sec)
Transforming the Hamiltonian                       ... done (   0.3 sec)
Diagonalizing the Hamiltonian                      ... done (   0.4 sec)
Back transforming the eigenvectors                 ... done (   0.1 sec)
Now organizing SCF variables                       ... done
                      ------------------
                      INITIAL GUESS DONE (   3.8 sec)
                      ------------------
--------------
SCF ITERATIONS
--------------
ITER       Energy         Delta-E        Max-DP      RMS-DP      [F,P]     Damp
               ***  Starting incremental Fock matrix formation  ***
  0  -2121.6950403189   0.000000000000 0.07533327  0.00121248  0.2321297 0.7000
  1  -2122.3498807737  -0.654840454732 0.05666202  0.00098566  0.1438105 0.7000
                               ***Turning on DIIS***
  2  -2122.7570738293  -0.407193055646 0.13185618  0.00223884  0.0802491 0.0000
  3  -2117.9341681627   4.822905666657 0.03021234  0.00066816  0.0438925 0.0000
  4  -2123.4334640273  -5.499295864656 0.00986492  0.00022464  0.0078236 0.0000
  5  -2123.5912146966  -0.157750669267 0.00521249  0.00013212  0.0049865 0.0000
  6  -2123.5746915882   0.016523108350 0.00359285  0.00008497  0.0019716 0.0000
  7  -2123.6726646420  -0.097973053789 0.00306417  0.00006683  0.0015746 0.0000
  8  -2123.6837521832  -0.011087541146 0.00323430  0.00006297  0.0014637 0.0000
  9  -2123.6531084725   0.030643710706 0.00258466  0.00004396  0.0011690 0.0000
 10  -2123.6627001630  -0.009591690576 0.00522004  0.00009117  0.0009029 0.0000
                      *** Initiating the SOSCF procedure ***
                           *** Shutting down DIIS ***
                      *** Re-Reading the Fockian *** 
                      *** Removing any level shift *** 
ITER      Energy       Delta-E        Grad      Rot      Max-DP    RMS-DP
 11  -2123.55352587   0.1091742901  0.000190  0.000190  0.000248  0.000005
               *** Restarting incremental Fock matrix formation ***
 12  -2123.61936909  -0.0658432214  0.000844  0.005911  0.001366  0.000034
 13  -2123.61946840  -0.0000993007  0.001041  0.030289  0.006489  0.000133
 14  -2123.61964065  -0.0001722542  0.000340  0.002027  0.000621  0.000012
 15  -2123.61965639  -0.0000157401  0.000161  0.003022  0.000747  0.000018
 16  -2123.61966590  -0.0000095123  0.000163  0.003033  0.000491  0.000010
 17  -2123.61966893  -0.0000030260  0.000128  0.002011  0.000321  0.000007
 18  -2123.61967054  -0.0000016143  0.000071  0.000772  0.000294  0.000004
 19  -2123.61967125  -0.0000007102  0.000042  0.000562  0.000140  0.000003
 20  -2123.61967148  -0.0000002314  0.000021  0.000401  0.000092  0.000002
 21  -2123.61967159  -0.0000001108  0.000022  0.000314  0.000098  0.000002
 22  -2123.61967167  -0.0000000715  0.000014  0.000297  0.000080  0.000001
 23  -2123.61967171  -0.0000000434  0.000007  0.000203  0.000046  0.000001
 24  -2123.61967173  -0.0000000248  0.000004  0.000151  0.000031  0.000001
 25  -2123.61967175  -0.0000000117  0.000004  0.000115  0.000018  0.000000
 26  -2123.61967175  -0.0000000076  0.000003  0.000138  0.000021  0.000000
 27  -2123.61967176  -0.0000000061  0.000003  0.000137  0.000020  0.000000
                  ***Gradient check signals convergence***
              ***Rediagonalizing the Fockian in SOSCF/NRSCF***

               *****************************************************
               *                     SUCCESS                       *
               *           SCF CONVERGED AFTER  28 CYCLES          *
               *****************************************************


----------------
TOTAL SCF ENERGY
----------------

Total Energy       :        -2123.61967176 Eh          -57786.62908 eV

Components:
Nuclear Repulsion  :         6230.29306800 Eh          169534.89337 eV
Electronic Energy  :        -8353.91273976 Eh         -227321.52245 eV
One Electron Energy:       -15301.41254471 Eh         -416372.60332 eV
Two Electron Energy:         6947.49980495 Eh          189051.08086 eV

Virial components:
Potential Energy   :        -4245.74540442 Eh         -115532.60602 eV
Kinetic Energy     :         2122.12573266 Eh           57745.97693 eV
Virial Ratio       :            2.00070398


---------------
SCF CONVERGENCE
---------------

  Last Energy change         ...   -2.0809e-09  Tolerance :   1.0000e-08
  Last MAX-Density change    ...    1.3079e-05  Tolerance :   1.0000e-07
  Last RMS-Density change    ...    3.3391e-07  Tolerance :   5.0000e-09
  Last Orbital Gradient      ...    2.1112e-06  Tolerance :   1.0000e-05
  Last Orbital Rotation      ...    1.0858e-04  Tolerance :   1.0000e-05

             **** THE GBW FILE WAS UPDATED (/scratch/allen/tmpyp4_amber_gaff2/conf1/conf1/Conf147.orca.gbw) ****
             **** DENSITY /scratch/allen/tmpyp4_amber_gaff2/conf1/conf1/Conf147.orca.scfp WAS UPDATED ****
             **** ENERGY FILE WAS UPDATED (/scratch/allen/tmpyp4_amber_gaff2/conf1/conf1/Conf147.orca.en.tmp) ****
             **** THE GBW FILE WAS UPDATED (/scratch/allen/tmpyp4_amber_gaff2/conf1/conf1/Conf147.orca.gbw) ****
             **** DENSITY /scratch/allen/tmpyp4_amber_gaff2/conf1/conf1/Conf147.orca.scfp WAS UPDATED ****
----------------
ORBITAL ENERGIES
----------------

  NO   OCC          E(Eh)            E(eV) 
   0   2.0000     -15.670536      -426.4170 
   1   2.0000     -15.637681      -425.5229 
   2   2.0000     -15.628616      -425.2763 
   3   2.0000     -15.591996      -424.2798 
   4   2.0000     -15.524869      -422.4532 
   5   2.0000     -15.515885      -422.2087 
   6   2.0000     -15.451278      -420.4506 
   7   2.0000     -15.442982      -420.2249 
   8   2.0000     -11.322223      -308.0934 
   9   2.0000     -11.322200      -308.0927 
  10   2.0000     -11.320051      -308.0342 
  11   2.0000     -11.301629      -307.5330 
  12   2.0000     -11.296280      -307.3874 
  13   2.0000     -11.295585      -307.3685 
  14   2.0000     -11.290427      -307.2281 
  15   2.0000     -11.287927      -307.1601 
  16   2.0000     -11.284187      -307.0583 
  17   2.0000     -11.274084      -306.7834 
  18   2.0000     -11.273376      -306.7641 
  19   2.0000     -11.257156      -306.3228 
  20   2.0000     -11.256900      -306.3158 
  21   2.0000     -11.256409      -306.3024 
  22   2.0000     -11.255963      -306.2903 
  23   2.0000     -11.241314      -305.8917 
  24   2.0000     -11.233951      -305.6913 
  25   2.0000     -11.233411      -305.6767 
  26   2.0000     -11.233376      -305.6757 
  27   2.0000     -11.227284      -305.5099 
  28   2.0000     -11.226990      -305.5019 
  29   2.0000     -11.210100      -305.0423 
  30   2.0000     -11.208691      -305.0040 
  31   2.0000     -11.201894      -304.8190 
  32   2.0000     -11.195832      -304.6541 
  33   2.0000     -11.195460      -304.6439 
  34   2.0000     -11.189676      -304.4866 
  35   2.0000     -11.189125      -304.4716 
  36   2.0000     -11.187454      -304.4261 
  37   2.0000     -11.183594      -304.3211 
  38   2.0000     -11.182630      -304.2948 
  39   2.0000     -11.174554      -304.0751 
  40   2.0000     -11.172287      -304.0134 
  41   2.0000     -11.168440      -303.9087 
  42   2.0000     -11.168073      -303.8987 
  43   2.0000     -11.162366      -303.7434 
  44   2.0000     -11.161023      -303.7069 
  45   2.0000     -11.159095      -303.6544 
  46   2.0000     -11.156816      -303.5924 
  47   2.0000     -11.152018      -303.4618 
  48   2.0000     -11.147755      -303.3458 
  49   2.0000     -11.141108      -303.1650 
  50   2.0000     -11.134512      -302.9855 
  51   2.0000     -11.126935      -302.7793 
  52   2.0000      -1.352507       -36.8036 
  53   2.0000      -1.324429       -36.0395 
  54   2.0000      -1.316802       -35.8320 
  55   2.0000      -1.286199       -34.9993 
  56   2.0000      -1.225428       -33.3456 
  57   2.0000      -1.210336       -32.9349 
  58   2.0000      -1.169785       -31.8315 
  59   2.0000      -1.153581       -31.3905 
  60   2.0000      -1.137007       -30.9395 
  61   2.0000      -1.112894       -30.2834 
  62   2.0000      -1.106566       -30.1112 
  63   2.0000      -1.082063       -29.4444 
  64   2.0000      -1.074773       -29.2461 
  65   2.0000      -1.048483       -28.5307 
  66   2.0000      -1.041577       -28.3428 
  67   2.0000      -1.036860       -28.2144 
  68   2.0000      -1.014937       -27.6178 
  69   2.0000      -1.014280       -27.6000 
  70   2.0000      -1.009384       -27.4667 
  71   2.0000      -0.992962       -27.0199 
  72   2.0000      -0.987180       -26.8625 
  73   2.0000      -0.979141       -26.6438 
  74   2.0000      -0.972117       -26.4527 
  75   2.0000      -0.959773       -26.1168 
  76   2.0000      -0.952062       -25.9069 
  77   2.0000      -0.946788       -25.7634 
  78   2.0000      -0.935452       -25.4550 
  79   2.0000      -0.919884       -25.0313 
  80   2.0000      -0.904158       -24.6034 
  81   2.0000      -0.892835       -24.2953 
  82   2.0000      -0.875727       -23.8298 
  83   2.0000      -0.871552       -23.7161 
  84   2.0000      -0.867015       -23.5927 
  85   2.0000      -0.855698       -23.2847 
  86   2.0000      -0.840527       -22.8719 
  87   2.0000      -0.837277       -22.7835 
  88   2.0000      -0.823043       -22.3961 
  89   2.0000      -0.798265       -21.7219 
  90   2.0000      -0.792509       -21.5653 
  91   2.0000      -0.748469       -20.3669 
  92   2.0000      -0.739586       -20.1252 
  93   2.0000      -0.732967       -19.9451 
  94   2.0000      -0.724121       -19.7043 
  95   2.0000      -0.720433       -19.6040 
  96   2.0000      -0.714886       -19.4530 
  97   2.0000      -0.708810       -19.2877 
  98   2.0000      -0.704363       -19.1667 
  99   2.0000      -0.696422       -18.9506 
 100   2.0000      -0.695814       -18.9341 
 101   2.0000      -0.683044       -18.5866 
 102   2.0000      -0.679783       -18.4978 
 103   2.0000      -0.678169       -18.4539 
 104   2.0000      -0.675318       -18.3763 
 105   2.0000      -0.671152       -18.2630 
 106   2.0000      -0.667432       -18.1618 
 107   2.0000      -0.662092       -18.0164 
 108   2.0000      -0.655765       -17.8443 
 109   2.0000      -0.653581       -17.7848 
 110   2.0000      -0.649041       -17.6613 
 111   2.0000      -0.643173       -17.5016 
 112   2.0000      -0.641664       -17.4606 
 113   2.0000      -0.639372       -17.3982 
 114   2.0000      -0.636958       -17.3325 
 115   2.0000      -0.626021       -17.0349 
 116   2.0000      -0.625000       -17.0071 
 117   2.0000      -0.616257       -16.7692 
 118   2.0000      -0.615133       -16.7386 
 119   2.0000      -0.612956       -16.6794 
 120   2.0000      -0.608966       -16.5708 
 121   2.0000      -0.605541       -16.4776 
 122   2.0000      -0.599725       -16.3193 
 123   2.0000      -0.586795       -15.9675 
 124   2.0000      -0.583752       -15.8847 
 125   2.0000      -0.581744       -15.8301 
 126   2.0000      -0.578870       -15.7519 
 127   2.0000      -0.577740       -15.7211 
 128   2.0000      -0.565477       -15.3874 
 129   2.0000      -0.558579       -15.1997 
 130   2.0000      -0.551547       -15.0083 
 131   2.0000      -0.547931       -14.9099 
 132   2.0000      -0.543358       -14.7855 
 133   2.0000      -0.539509       -14.6808 
 134   2.0000      -0.539127       -14.6704 
 135   2.0000      -0.534149       -14.5349 
 136   2.0000      -0.526003       -14.3133 
 137   2.0000      -0.523427       -14.2432 
 138   2.0000      -0.518199       -14.1009 
 139   2.0000      -0.513077       -13.9615 
 140   2.0000      -0.512515       -13.9462 
 141   2.0000      -0.510246       -13.8845 
 142   2.0000      -0.510022       -13.8784 
 143   2.0000      -0.503345       -13.6967 
 144   2.0000      -0.500507       -13.6195 
 145   2.0000      -0.496653       -13.5146 
 146   2.0000      -0.494294       -13.4504 
 147   2.0000      -0.484415       -13.1816 
 148   2.0000      -0.480227       -13.0676 
 149   2.0000      -0.467441       -12.7197 
 150   2.0000      -0.465365       -12.6632 
 151   2.0000      -0.457085       -12.4379 
 152   2.0000      -0.449446       -12.2300 
 153   2.0000      -0.446320       -12.1450 
 154   2.0000      -0.442996       -12.0545 
 155   2.0000      -0.437927       -11.9166 
 156   2.0000      -0.429975       -11.7002 
 157   2.0000      -0.424650       -11.5553 
 158   2.0000      -0.403929       -10.9915 
 159   2.0000      -0.386516       -10.5176 
 160   2.0000      -0.381579       -10.3833 
 161   2.0000      -0.378510       -10.2998 
 162   2.0000      -0.371036       -10.0964 
 163   2.0000      -0.359200        -9.7743 
 164   2.0000      -0.353536        -9.6202 
 165   2.0000      -0.339065        -9.2264 
 166   2.0000      -0.337622        -9.1872 
 167   2.0000      -0.327596        -8.9143 
 168   2.0000      -0.326456        -8.8833 
 169   2.0000      -0.304276        -8.2798 
 170   2.0000      -0.299583        -8.1521 
 171   2.0000      -0.286109        -7.7854 
 172   2.0000      -0.282713        -7.6930 
 173   2.0000      -0.261217        -7.1081 
 174   2.0000      -0.244185        -6.6446 
 175   2.0000      -0.189833        -5.1656 
 176   2.0000      -0.180150        -4.9021 
 177   2.0000      -0.074717        -2.0331 
 178   2.0000      -0.058037        -1.5793 
 179   0.0000       0.028580         0.7777 
 180   0.0000       0.066695         1.8149 
 181   0.0000       0.091706         2.4955 
 182   0.0000       0.108431         2.9506 
 183   0.0000       0.112328         3.0566 
 184   0.0000       0.134673         3.6646 
 185   0.0000       0.141401         3.8477 
 186   0.0000       0.145748         3.9660 
 187   0.0000       0.163009         4.4357 
 188   0.0000       0.163831         4.4581 
 189   0.0000       0.167437         4.5562 
 190   0.0000       0.168709         4.5908 
 191   0.0000       0.185226         5.0402 
 192   0.0000       0.185939         5.0597 
 193   0.0000       0.188655         5.1336 
 194   0.0000       0.202801         5.5185 
 195   0.0000       0.206165         5.6100 
 196   0.0000       0.207491         5.6461 
 197   0.0000       0.210546         5.7292 
 198   0.0000       0.221015         6.0141 
 199   0.0000       0.225758         6.1432 
 200   0.0000       0.230867         6.2822 
 201   0.0000       0.237081         6.4513 
 202   0.0000       0.238817         6.4985 
 203   0.0000       0.241315         6.5665 
 204   0.0000       0.248932         6.7738 
 205   0.0000       0.255038         6.9399 
 206   0.0000       0.257576         7.0090 
 207   0.0000       0.258464         7.0332 
 208   0.0000       0.260143         7.0789 
 209   0.0000       0.261600         7.1185 
 210   0.0000       0.264005         7.1839 
 211   0.0000       0.269632         7.3371 
 212   0.0000       0.271378         7.3846 
 213   0.0000       0.271916         7.3992 
 214   0.0000       0.273907         7.4534 
 215   0.0000       0.276598         7.5266 
 216   0.0000       0.278645         7.5823 
 217   0.0000       0.280797         7.6409 
 218   0.0000       0.285051         7.7566 
 219   0.0000       0.288873         7.8606 
 220   0.0000       0.289156         7.8683 
 221   0.0000       0.293230         7.9792 
 222   0.0000       0.294060         8.0018 
 223   0.0000       0.295558         8.0425 
 224   0.0000       0.298969         8.1353 
 225   0.0000       0.299852         8.1594 
 226   0.0000       0.306554         8.3417 
 227   0.0000       0.308330         8.3901 
 228   0.0000       0.309702         8.4274 
 229   0.0000       0.322527         8.7764 
 230   0.0000       0.324970         8.8429 
 231   0.0000       0.330513         8.9937 
 232   0.0000       0.331341         9.0163 
 233   0.0000       0.335086         9.1182 
 234   0.0000       0.345328         9.3969 
 235   0.0000       0.353682         9.6242 
 236   0.0000       0.360038         9.7971 
 237   0.0000       0.378636        10.3032 
 238   0.0000       0.393946        10.7198 
 239   0.0000       0.396813        10.7978 
 240   0.0000       0.400884        10.9086 
 241   0.0000       0.411790        11.2054 
 242   0.0000       0.416834        11.3426 
 243   0.0000       0.419497        11.4151 
 244   0.0000       0.427466        11.6319 
 245   0.0000       0.434599        11.8261 
 246   0.0000       0.437013        11.8917 
 247   0.0000       0.438574        11.9342 
 248   0.0000       0.443468        12.0674 
 249   0.0000       0.449798        12.2396 
 250   0.0000       0.451057        12.2739 
 251   0.0000       0.459239        12.4965 
 252   0.0000       0.465384        12.6637 
 253   0.0000       0.469441        12.7741 
 254   0.0000       0.470189        12.7945 
 255   0.0000       0.474354        12.9078 
 256   0.0000       0.479255        13.0412 
 257   0.0000       0.482286        13.1237 
 258   0.0000       0.486873        13.2485 
 259   0.0000       0.498306        13.5596 
 260   0.0000       0.502493        13.6735 
 261   0.0000       0.504900        13.7390 
 262   0.0000       0.506310        13.7774 
 263   0.0000       0.509062        13.8523 
 264   0.0000       0.514175        13.9914 
 265   0.0000       0.518295        14.1035 
 266   0.0000       0.524301        14.2669 
 267   0.0000       0.526877        14.3370 
 268   0.0000       0.532415        14.4877 
 269   0.0000       0.536841        14.6082 
 270   0.0000       0.540148        14.6982 
 271   0.0000       0.548457        14.9243 
 272   0.0000       0.551422        15.0050 
 273   0.0000       0.557602        15.1731 
 274   0.0000       0.561226        15.2717 
 275   0.0000       0.564216        15.3531 
 276   0.0000       0.569668        15.5014 
 277   0.0000       0.572153        15.5691 
 278   0.0000       0.578082        15.7304 
 279   0.0000       0.587057        15.9746 
 280   0.0000       0.589023        16.0281 
 281   0.0000       0.591407        16.0930 
 282   0.0000       0.592092        16.1116 
 283   0.0000       0.595982        16.2175 
 284   0.0000       0.597438        16.2571 
 285   0.0000       0.598688        16.2911 
 286   0.0000       0.608320        16.5532 
 287   0.0000       0.612188        16.6585 
 288   0.0000       0.617010        16.7897 
 289   0.0000       0.622481        16.9386 
 290   0.0000       0.627594        17.0777 
 291   0.0000       0.630165        17.1476 
 292   0.0000       0.633933        17.2502 
 293   0.0000       0.635458        17.2917 
 294   0.0000       0.646034        17.5795 
 295   0.0000       0.649620        17.6770 
 296   0.0000       0.653688        17.7878 
 297   0.0000       0.656653        17.8684 
 298   0.0000       0.664814        18.0905 
 299   0.0000       0.667515        18.1640 
 300   0.0000       0.670081        18.2338 
 301   0.0000       0.673443        18.3253 
 302   0.0000       0.677410        18.4333 
 303   0.0000       0.679101        18.4793 
 304   0.0000       0.681937        18.5565 
 305   0.0000       0.686535        18.6816 
 306   0.0000       0.688796        18.7431 
 307   0.0000       0.691265        18.8103 
 308   0.0000       0.695573        18.9275 
 309   0.0000       0.697707        18.9856 
 310   0.0000       0.702305        19.1107 
 311   0.0000       0.703472        19.1424 
 312   0.0000       0.707009        19.2387 
 313   0.0000       0.709749        19.3133 
 314   0.0000       0.711370        19.3574 
 315   0.0000       0.714760        19.4496 
 316   0.0000       0.716827        19.5059 
 317   0.0000       0.718612        19.5544 
 318   0.0000       0.721555        19.6345 
 319   0.0000       0.724941        19.7267 
 320   0.0000       0.725810        19.7503 
 321   0.0000       0.731200        19.8970 
 322   0.0000       0.732744        19.9390 
 323   0.0000       0.734904        19.9977 
 324   0.0000       0.737347        20.0642 
 325   0.0000       0.740257        20.1434 
 326   0.0000       0.744142        20.2491 
 327   0.0000       0.745413        20.2837 
 328   0.0000       0.749239        20.3878 
 329   0.0000       0.751444        20.4478 
 330   0.0000       0.752773        20.4840 
 331   0.0000       0.756002        20.5719 
 332   0.0000       0.759806        20.6754 
 333   0.0000       0.761801        20.7297 
 334   0.0000       0.767967        20.8974 
 335   0.0000       0.773678        21.0529 
 336   0.0000       0.776361        21.1259 
 337   0.0000       0.781839        21.2749 
 338   0.0000       0.783764        21.3273 
 339   0.0000       0.788828        21.4651 
 340   0.0000       0.792583        21.5673 
 341   0.0000       0.795087        21.6354 
 342   0.0000       0.796742        21.6804 
 343   0.0000       0.801489        21.8096 
 344   0.0000       0.803804        21.8726 
 345   0.0000       0.806020        21.9329 
 346   0.0000       0.807768        21.9805 
 347   0.0000       0.810955        22.0672 
 348   0.0000       0.814556        22.1652 
 349   0.0000       0.817669        22.2499 
 350   0.0000       0.819584        22.3020 
 351   0.0000       0.821524        22.3548 
 352   0.0000       0.822396        22.3785 
 353   0.0000       0.823974        22.4215 
 354   0.0000       0.831130        22.6162 
 355   0.0000       0.832097        22.6425 
 356   0.0000       0.833894        22.6914 
 357   0.0000       0.835787        22.7429 
 358   0.0000       0.836541        22.7635 
 359   0.0000       0.838921        22.8282 
 360   0.0000       0.841932        22.9101 
 361   0.0000       0.843504        22.9529 
 362   0.0000       0.844184        22.9714 
 363   0.0000       0.844534        22.9809 
 364   0.0000       0.849311        23.1109 
 365   0.0000       0.854337        23.2477 
 366   0.0000       0.856891        23.3172 
 367   0.0000       0.860763        23.4225 
 368   0.0000       0.862191        23.4614 
 369   0.0000       0.865173        23.5426 
 370   0.0000       0.870133        23.6775 
 371   0.0000       0.872739        23.7484 
 372   0.0000       0.874664        23.8008 
 373   0.0000       0.880355        23.9557 
 374   0.0000       0.881021        23.9738 
 375   0.0000       0.881641        23.9907 
 376   0.0000       0.885494        24.0955 
 377   0.0000       0.888258        24.1707 
 378   0.0000       0.891503        24.2590 
 379   0.0000       0.893740        24.3199 
 380   0.0000       0.896005        24.3815 
 381   0.0000       0.899520        24.4772 
 382   0.0000       0.901924        24.5426 
 383   0.0000       0.902143        24.5486 
 384   0.0000       0.903472        24.5847 
 385   0.0000       0.905553        24.6414 
 386   0.0000       0.906906        24.6782 
 387   0.0000       0.909020        24.7357 
 388   0.0000       0.911342        24.7989 
 389   0.0000       0.915927        24.9236 
 390   0.0000       0.919079        25.0094 
 391   0.0000       0.922553        25.1039 
 392   0.0000       0.925463        25.1831 
 393   0.0000       0.927209        25.2306 
 394   0.0000       0.927333        25.2340 
 395   0.0000       0.929553        25.2944 
 396   0.0000       0.931312        25.3423 
 397   0.0000       0.932219        25.3670 
 398   0.0000       0.941455        25.6183 
 399   0.0000       0.942787        25.6545 
 400   0.0000       0.944793        25.7091 
 401   0.0000       0.949901        25.8481 
 402   0.0000       0.953799        25.9542 
 403   0.0000       0.954240        25.9662 
 404   0.0000       0.960366        26.1329 
 405   0.0000       0.962119        26.1806 
 406   0.0000       0.965575        26.2746 
 407   0.0000       0.967146        26.3174 
 408   0.0000       0.969064        26.3696 
 409   0.0000       0.977832        26.6082 
 410   0.0000       0.980530        26.6816 
 411   0.0000       0.983720        26.7684 
 412   0.0000       0.989675        26.9304 
 413   0.0000       0.991170        26.9711 
 414   0.0000       0.996537        27.1171 
 415   0.0000       1.004293        27.3282 
 416   0.0000       1.004860        27.3436 
 417   0.0000       1.007741        27.4220 
 418   0.0000       1.011544        27.5255 
 419   0.0000       1.020759        27.7763 
 420   0.0000       1.025077        27.8938 
 421   0.0000       1.028893        27.9976 
 422   0.0000       1.040038        28.3009 
 423   0.0000       1.043729        28.4013 
 424   0.0000       1.046930        28.4884 
 425   0.0000       1.055912        28.7328 
 426   0.0000       1.059428        28.8285 
 427   0.0000       1.062973        28.9250 
 428   0.0000       1.069184        29.0940 
 429   0.0000       1.075437        29.2641 
 430   0.0000       1.078415        29.3452 
 431   0.0000       1.083651        29.4876 
 432   0.0000       1.086110        29.5545 
 433   0.0000       1.090076        29.6625 
 434   0.0000       1.097215        29.8567 
 435   0.0000       1.104852        30.0645 
 436   0.0000       1.106118        30.0990 
 437   0.0000       1.111070        30.2338 
 438   0.0000       1.116281        30.3755 
 439   0.0000       1.117653        30.4129 
 440   0.0000       1.120757        30.4973 
 441   0.0000       1.123113        30.5615 
 442   0.0000       1.125499        30.6264 
 443   0.0000       1.128701        30.7135 
 444   0.0000       1.130843        30.7718 
 445   0.0000       1.133571        30.8460 
 446   0.0000       1.141059        31.0498 
 447   0.0000       1.143005        31.1027 
 448   0.0000       1.147783        31.2328 
 449   0.0000       1.150259        31.3001 
 450   0.0000       1.151697        31.3393 
 451   0.0000       1.153771        31.3957 
 452   0.0000       1.158817        31.5330 
 453   0.0000       1.162705        31.6388 
 454   0.0000       1.164820        31.6964 
 455   0.0000       1.170870        31.8610 
 456   0.0000       1.172193        31.8970 
 457   0.0000       1.177737        32.0479 
 458   0.0000       1.181305        32.1450 
 459   0.0000       1.186038        32.2737 
 460   0.0000       1.189966        32.3806 
 461   0.0000       1.196771        32.5658 
 462   0.0000       1.202009        32.7083 
 463   0.0000       1.202252        32.7149 
 464   0.0000       1.205825        32.8122 
 465   0.0000       1.208604        32.8878 
 466   0.0000       1.211654        32.9708 
 467   0.0000       1.215309        33.0702 
 468   0.0000       1.220674        33.2162 
 469   0.0000       1.226490        33.3745 
 470   0.0000       1.228664        33.4337 
 471   0.0000       1.232657        33.5423 
 472   0.0000       1.233760        33.5723 
 473   0.0000       1.235282        33.6137 
 474   0.0000       1.242220        33.8025 
 475   0.0000       1.244340        33.8602 
 476   0.0000       1.248882        33.9838 
 477   0.0000       1.251420        34.0529 
 478   0.0000       1.253847        34.1189 
 479   0.0000       1.254801        34.1449 
 480   0.0000       1.258341        34.2412 
 481   0.0000       1.262216        34.3466 
 482   0.0000       1.269798        34.5530 
 483   0.0000       1.271649        34.6033 
 484   0.0000       1.274971        34.6937 
 485   0.0000       1.275775        34.7156 
 486   0.0000       1.280817        34.8528 
 487   0.0000       1.284903        34.9640 
 488   0.0000       1.289119        35.0787 
 489   0.0000       1.290635        35.1200 
 490   0.0000       1.293945        35.2100 
 491   0.0000       1.295107        35.2416 
 492   0.0000       1.300025        35.3755 
 493   0.0000       1.302343        35.4386 
 494   0.0000       1.310792        35.6685 
 495   0.0000       1.313737        35.7486 
 496   0.0000       1.318137        35.8683 
 497   0.0000       1.322126        35.9769 
 498   0.0000       1.326086        36.0846 
 499   0.0000       1.328605        36.1532 
 500   0.0000       1.333068        36.2746 
 501   0.0000       1.335007        36.3274 
 502   0.0000       1.336218        36.3603 
 503   0.0000       1.345586        36.6153 
 504   0.0000       1.348035        36.6819 
 505   0.0000       1.349864        36.7317 
 506   0.0000       1.350658        36.7533 
 507   0.0000       1.356761        36.9193 
 508   0.0000       1.361376        37.0449 
 509   0.0000       1.363669        37.1073 
[...]
      pz      :     0.022084  p :     0.079740
      px      :     0.043552
      py      :     0.014104
 77 H s       :     0.885539  s :     0.885539
      pz      :     0.047906  p :     0.079204
      px      :     0.015020
      py      :     0.016277
 78 H s       :     0.885956  s :     0.885956
      pz      :     0.025842  p :     0.079157
      px      :     0.020476
      py      :     0.032838
 79 H s       :     0.910077  s :     0.910077
      pz      :     0.021871  p :     0.086428
      px      :     0.021684
      py      :     0.042873
 80 H s       :     0.865942  s :     0.865942
      pz      :     0.039274  p :     0.084682
      px      :     0.030215
      py      :     0.015193
 81 H s       :     0.887169  s :     0.887169
      pz      :     0.037792  p :     0.084070
      px      :     0.016192
      py      :     0.030086
 82 H s       :     0.916068  s :     0.916068
      pz      :     0.022009  p :     0.086743
      px      :     0.031577
      py      :     0.033157
 83 H s       :     0.873742  s :     0.873742
      pz      :     0.039226  p :     0.084028
      px      :     0.015282
      py      :     0.029520
 84 H s       :     0.887208  s :     0.887208
      pz      :     0.035744  p :     0.083497
      px      :     0.031686
      py      :     0.016067
 85 H s       :     0.893407  s :     0.893407
      pz      :     0.022482  p :     0.079759
      px      :     0.014088
      py      :     0.043189
 86 H s       :     0.891236  s :     0.891236
      pz      :     0.024719  p :     0.078810
      px      :     0.032963
      py      :     0.021128
 87 H s       :     0.890140  s :     0.890140
      pz      :     0.047989  p :     0.078712
      px      :     0.015589
      py      :     0.015134
 88 H s       :     0.911219  s :     0.911219
      pz      :     0.021752  p :     0.087030
      px      :     0.042835
      py      :     0.022443
 89 H s       :     0.871525  s :     0.871525
      pz      :     0.037935  p :     0.083830
      px      :     0.030466
      py      :     0.015429


                      *****************************
                      * MAYER POPULATION ANALYSIS *
                      *****************************

  NA   - Mulliken gross atomic population
  ZA   - Total nuclear charge
  QA   - Mulliken gross atomic charge
  VA   - Mayer's total valence
  BVA  - Mayer's bonded valence
  FA   - Mayer's free valence

  ATOM       NA         ZA         QA         VA         BVA        FA
  0 C      5.7940     6.0000     0.2060     3.8400     3.8400     0.0000
  1 N      7.4545     7.0000    -0.4545     3.3299     3.3299    -0.0000
  2 C      6.0657     6.0000    -0.0657     3.9208     3.9208     0.0000
  3 N      7.3365     7.0000    -0.3365     3.4592     3.4592     0.0000
  4 C      6.0535     6.0000    -0.0535     4.0156     4.0156    -0.0000
  5 N      7.5614     7.0000    -0.5614     3.0955     3.0955    -0.0000
  6 C      6.1177     6.0000    -0.1177     4.0031     4.0031     0.0000
  7 N      7.3401     7.0000    -0.3401     3.4345     3.4345    -0.0000
  8 C      5.7923     6.0000     0.2077     3.8423     3.8423     0.0000
  9 N      7.5627     7.0000    -0.5627     3.0790     3.0790    -0.0000
 10 C      5.8813     6.0000     0.1187     3.9084     3.9084     0.0000
 11 N      7.4377     7.0000    -0.4377     3.3821     3.3821     0.0000
 12 C      6.0812     6.0000    -0.0812     3.9018     3.9018    -0.0000
 13 N      7.4316     7.0000    -0.4316     3.4182     3.4182    -0.0000
 14 C      5.7763     6.0000     0.2237     3.7830     3.7830     0.0000
 15 N      7.4415     7.0000    -0.4415     3.3693     3.3693     0.0000
 16 C      5.7701     6.0000     0.2299     3.7798     3.7798    -0.0000
 17 C      6.1137     6.0000    -0.1137     4.0037     4.0037    -0.0000
 18 C      6.1677     6.0000    -0.1677     3.7595     3.7595     0.0000
 19 C      5.7895     6.0000     0.2105     3.8633     3.8633     0.0000
 20 C      5.7862     6.0000     0.2138     3.8280     3.8280     0.0000
 21 C      6.0924     6.0000    -0.0924     3.8986     3.8986     0.0000
 22 C      6.0887     6.0000    -0.0887     3.9819     3.9819    -0.0000
 23 C      6.0414     6.0000    -0.0414     3.9920     3.9920    -0.0000
 24 C      5.8029     6.0000     0.1971     3.8216     3.8216    -0.0000
 25 C      5.8859     6.0000     0.1141     3.8902     3.8902     0.0000
 26 C      6.0761     6.0000    -0.0761     3.9063     3.9063     0.0000
 27 C      5.7874     6.0000     0.2126     3.8654     3.8654     0.0000
 28 C      6.0596     6.0000    -0.0596     3.9887     3.9887     0.0000
 29 C      6.1808     6.0000    -0.1808     3.7444     3.7444     0.0000
 30 C      5.7562     6.0000     0.2438     3.7974     3.7974    -0.0000
 31 C      5.7726     6.0000     0.2274     3.8197     3.8197    -0.0000
 32 C      6.0617     6.0000    -0.0617     3.9228     3.9228    -0.0000
 33 C      6.0649     6.0000    -0.0649     3.9747     3.9747    -0.0000
 34 C      6.0497     6.0000    -0.0497     3.9856     3.9856    -0.0000
 35 C      5.7778     6.0000     0.2222     3.8182     3.8182     0.0000
 36 C      5.8905     6.0000     0.1095     3.8782     3.8782    -0.0000
 37 C      6.0648     6.0000    -0.0648     3.9175     3.9175    -0.0000
 38 C      5.7665     6.0000     0.2335     3.8018     3.8018    -0.0000
 39 C      6.0595     6.0000    -0.0595     3.9847     3.9847    -0.0000
 40 C      6.1821     6.0000    -0.1821     3.7297     3.7297    -0.0000
 41 C      5.7765     6.0000     0.2235     3.8852     3.8852    -0.0000
 42 C      5.8024     6.0000     0.1976     3.8265     3.8265     0.0000
 43 C      6.0729     6.0000    -0.0729     3.9003     3.9003    -0.0000
 44 C      6.0912     6.0000    -0.0912     3.9858     3.9858    -0.0000
 45 C      6.0601     6.0000    -0.0601     3.9923     3.9923    -0.0000
 46 C      5.7913     6.0000     0.2087     3.8285     3.8285     0.0000
 47 C      5.8843     6.0000     0.1157     3.8940     3.8940     0.0000
 48 C      6.0688     6.0000    -0.0688     3.9084     3.9084    -0.0000
 49 C      5.7640     6.0000     0.2360     3.8931     3.8931    -0.0000
 50 C      6.0476     6.0000    -0.0476     3.9906     3.9906    -0.0000
 51 C      6.1933     6.0000    -0.1933     3.7369     3.7369    -0.0000
 52 H      0.9591     1.0000     0.0409     0.9860     0.9860     0.0000
 53 H      1.0164     1.0000    -0.0164     0.9985     0.9985    -0.0000
 54 H      0.9485     1.0000     0.0515     1.0119     1.0119    -0.0000
 55 H      0.9605     1.0000     0.0395     0.9866     0.9866     0.0000
 56 H      0.9502     1.0000     0.0498     0.9698     0.9698    -0.0000
 57 H      0.9515     1.0000     0.0485     0.9824     0.9824     0.0000
 58 H      0.9523     1.0000     0.0477     0.9852     0.9852    -0.0000
 59 H      0.9986     1.0000     0.0014     1.0040     1.0040     0.0000
 60 H      0.9488     1.0000     0.0512     1.0152     1.0152    -0.0000
 61 H      0.8289     1.0000     0.1711     1.0419     1.0419    -0.0000
 62 H      0.8247     1.0000     0.1753     1.0436     1.0436    -0.0000
 63 H      0.9434     1.0000     0.0566     0.9852     0.9852     0.0000
 64 H      1.0049     1.0000    -0.0049     0.9977     0.9977     0.0000
 65 H      0.9530     1.0000     0.0470     1.0097     1.0097    -0.0000
 66 H      0.9432     1.0000     0.0568     0.9853     0.9853     0.0000
 67 H      0.9366     1.0000     0.0634     0.9720     0.9720     0.0000
 68 H      0.9421     1.0000     0.0579     0.9868     0.9868    -0.0000
 69 H      0.9425     1.0000     0.0575     0.9829     0.9829    -0.0000
 70 H      1.0280     1.0000    -0.0280     0.9930     0.9930     0.0000
 71 H      0.9536     1.0000     0.0464     1.0060     1.0060     0.0000
 72 H      0.9316     1.0000     0.0684     0.9838     0.9838    -0.0000
 73 H      1.0090     1.0000    -0.0090     1.0004     1.0004     0.0000
 74 H      0.9422     1.0000     0.0578     1.0102     1.0102    -0.0000
 75 H      0.9324     1.0000     0.0676     0.9843     0.9843     0.0000
 76 H      0.9276     1.0000     0.0724     0.9721     0.9721    -0.0000
 77 H      0.9340     1.0000     0.0660     0.9854     0.9854     0.0000
 78 H      0.9348     1.0000     0.0652     0.9853     0.9853    -0.0000
 79 H      1.0155     1.0000    -0.0155     0.9981     0.9981     0.0000
 80 H      0.9417     1.0000     0.0583     1.0071     1.0071    -0.0000
 81 H      0.9464     1.0000     0.0536     0.9857     0.9857    -0.0000
 82 H      1.0251     1.0000    -0.0251     0.9934     0.9934    -0.0000
 83 H      0.9589     1.0000     0.0411     1.0085     1.0085     0.0000
 84 H      0.9470     1.0000     0.0530     0.9853     0.9853    -0.0000
 85 H      0.9402     1.0000     0.0598     0.9715     0.9715    -0.0000
 86 H      0.9449     1.0000     0.0551     0.9839     0.9839     0.0000
 87 H      0.9433     1.0000     0.0567     0.9856     0.9856    -0.0000
 88 H      1.0158     1.0000    -0.0158     0.9964     0.9964    -0.0000
 89 H      0.9538     1.0000     0.0462     1.0071     1.0071    -0.0000

  Mayer bond orders larger than 0.100000
B(  0-C ,  1-N ) :   1.0886 B(  0-C , 17-C ) :   1.7036 B(  0-C , 52-H ) :   0.9672 
B(  1-N ,  8-C ) :   1.0911 B(  1-N , 10-C ) :   0.9770 B(  2-C , 12-C ) :   1.5111 
B(  2-C , 16-C ) :   1.3521 B(  2-C , 53-H ) :   0.9761 B(  3-N , 14-C ) :   1.2173 
B(  3-N , 16-C ) :   1.1919 B(  3-N , 61-H ) :   0.8994 B(  4-C ,  6-C ) :   1.2138 
B(  4-C , 17-C ) :   1.2136 B(  4-C , 18-C ) :   1.4206 B(  5-N , 19-C ) :   1.4502 
B(  5-N , 27-C ) :   1.3817 B(  6-C ,  8-C ) :   1.7018 B(  6-C , 54-H ) :   0.9605 
B(  7-N , 30-C ) :   1.1938 B(  7-N , 38-C ) :   1.1934 B(  7-N , 62-H ) :   0.8969 
B(  8-C , 55-H ) :   0.9682 B(  9-N , 41-C ) :   1.3940 B(  9-N , 49-C ) :   1.4270 
B( 10-C , 56-H ) :   0.9768 B( 10-C , 57-H ) :   0.9832 B( 10-C , 58-H ) :   0.9834 
B( 11-N , 20-C ) :   1.1317 B( 11-N , 24-C ) :   1.1119 B( 11-N , 25-C ) :   0.9587 
B( 12-C , 14-C ) :   1.3533 B( 12-C , 59-H ) :   0.9748 B( 13-N , 31-C ) :   1.1550 
B( 13-N , 35-C ) :   1.1494 B( 13-N , 36-C ) :   0.9451 B( 14-C , 18-C ) :   1.1359 
B( 15-N , 42-C ) :   1.1073 B( 15-N , 46-C ) :   1.1203 B( 15-N , 47-C ) :   0.9625 
B( 16-C , 51-C ) :   1.1746 B( 17-C , 60-H ) :   0.9606 B( 18-C , 19-C ) :   1.1408 
B( 19-C , 21-C ) :   1.2404 B( 20-C , 28-C ) :   1.6252 B( 20-C , 63-H ) :   0.9701 
B( 21-C , 26-C ) :   1.6170 B( 21-C , 64-H ) :   0.9713 B( 22-C , 23-C ) :   1.2907 
B( 22-C , 28-C ) :   1.2682 B( 22-C , 29-C ) :   1.2203 B( 23-C , 24-C ) :   1.6171 
B( 23-C , 65-H ) :   0.9705 B( 24-C , 66-H ) :   0.9694 B( 25-C , 67-H ) :   0.9760 
B( 25-C , 68-H ) :   0.9828 B( 25-C , 69-H ) :   0.9822 B( 26-C , 27-C ) :   1.2348 
B( 26-C , 70-H ) :   0.9707 B( 27-C , 29-C ) :   1.2159 B( 28-C , 71-H ) :   0.9718 
B( 29-C , 30-C ) :   1.2398 B( 30-C , 32-C ) :   1.2844 B( 31-C , 39-C ) :   1.5969 
B( 31-C , 72-H ) :   0.9684 B( 32-C , 37-C ) :   1.5750 B( 32-C , 73-H ) :   0.9784 
B( 33-C , 34-C ) :   1.3021 B( 33-C , 39-C ) :   1.2956 B( 33-C , 40-C ) :   1.1891 
B( 34-C , 35-C ) :   1.5934 B( 34-C , 74-H ) :   0.9697 B( 35-C , 75-H ) :   0.9685 
B( 36-C , 76-H ) :   0.9766 B( 36-C , 77-H ) :   0.9816 B( 36-C , 78-H ) :   0.9825 
B( 37-C , 38-C ) :   1.2883 B( 37-C , 79-H ) :   0.9768 B( 38-C , 40-C ) :   1.2302 
B( 39-C , 80-H ) :   0.9708 B( 40-C , 41-C ) :   1.2441 B( 41-C , 43-C ) :   1.1924 
B( 42-C , 50-C ) :   1.6360 B( 42-C , 81-H ) :   0.9697 B( 43-C , 48-C ) :   1.6594 
B( 43-C , 82-H ) :   0.9724 B( 44-C , 45-C ) :   1.2626 B( 44-C , 50-C ) :   1.2689 
B( 44-C , 51-C ) :   1.2648 B( 45-C , 46-C ) :   1.6369 B( 45-C , 83-H ) :   0.9717 
B( 46-C , 84-H ) :   0.9701 B( 47-C , 85-H ) :   0.9762 B( 47-C , 86-H ) :   0.9829 
B( 47-C , 87-H ) :   0.9825 B( 48-C , 49-C ) :   1.1957 B( 48-C , 88-H ) :   0.9748 
B( 49-C , 51-C ) :   1.2346 B( 50-C , 89-H ) :   0.9710 

-------
TIMINGS
-------

Total SCF time: 0 days 0 hours 28 min 3 sec 

Total time                  ....    1683.697 sec
Sum of individual times     ....    1678.888 sec  ( 99.7%)

Fock matrix formation       ....    1651.025 sec  ( 98.1%)
Diagonalization             ....       8.810 sec  (  0.5%)
Density matrix formation    ....       0.528 sec  (  0.0%)
Population analysis         ....       0.586 sec  (  0.0%)
Initial guess               ....       2.515 sec  (  0.1%)
Orbital Transformation      ....       0.000 sec  (  0.0%)
Orbital Orthonormalization  ....       0.000 sec  (  0.0%)
DIIS solution               ....       3.964 sec  (  0.2%)
SOSCF solution              ....      10.172 sec  (  0.6%)

Maximum memory used throughout the entire SCF-calculation: 302.6 MB


           ************************************************************
           *        Program running with 16 parallel MPI-processes    *
           *              working on a common directory               *
           ************************************************************

------------------------------------------------------------------------------
                                ORCA  MP2 
------------------------------------------------------------------------------

Freezing NCore=104 chemical core electrons

----------
MP2 ENERGY (disk based algorithm)
----------

Dimension of the basis                    ...  918
Memory devoted to MP2                     ... 2000 MB   
Data format for buffers                   ... DOUBLE
Compression type for matrix containers    ... UNCOMPRESSED

-------------------------------
PARTIAL EXCHANGE TRANSFORMATION
-------------------------------

Transformation type                        ... one-operator
Generation of integrals (i,mue|j,nue)      ... ON
Generation of integrals (mue,kappa|nue,tau)... OFF
Generation of integrals (i,mue|a,nue)      ... OFF
Dimension of the basis                     ...  918
Number of internal MOs                     ...  127 (  52- 178)
Pair cutoff                                ... 2.500e-12 Eh
Number of AO pairs in the trafo            ... 421821
Total Number of distinct AO pairs          ... 421821
Memory devoted for trafo                   ... 2000.0 MB 
Max. Number of MO pairs treated together   ...  311      
Number Format for Storage                  ... Double (8 Byte)
Integral package used                      ... LIBINT

Starting integral evaluation:
    ... done with AO integral generation
Closing buffer AOK     (38.25 GB; CompressionRatio= 1.33)
Collecting buffer AOK 
Number of MO pairs included in the trafo   ... 8128
------------------------
SORTING OF (i,mue|j,nue)
------------------------

IBATCH = 1 of  2
IBATCH = 2 of  2
Closing buffer KAO     (51.03 GB; CompressionRatio= 1.00)
Collecting buffer KAO 
N(AO-Batches) Done                         ...  85857187 
N(AO-Batches) Skipped                      ...  82371270 
N(IJ)-pairs Skipped                        ...         0 
TOTAL TIME for half transformation         ...  2374.525 sec
AO-integral generation                     ...   210.873 sec
Half transformation                        ...   423.447 sec
K-integral sorting                         ...  1515.873 sec
Process 10:   Internal MO 132
Process 13:   Internal MO 156

Finished integral transformation - now doing MP2 part

OPERATOR COMBINATION   0   0: ij=( 52..178, 52..178)
Process  4:   Internal MO  84
Process  1:   Internal MO  60
Process  7:   Internal MO 108
Process  0:   Internal MO  54
Process  2:   Internal MO  69
Process  0:   Internal MO  57
Process  1:   Internal MO  63
Process  3:   Internal MO  78
Process  2:   Internal MO  72
Process  5:   Internal MO  93
Process  1:   Internal MO  66
Process  8:   Internal MO 117
Process  6:   Internal MO 102
Process  4:   Internal MO  87
Process 14:   Internal MO 165
Process 11:   Internal MO 141
Process  2:   Internal MO  75
Process  9:   Internal MO 126
Process  3:   Internal MO  81
Process  5:   Internal MO  96
Process  7:   Internal MO 111
Process 12:   Internal MO 150
Process  4:   Internal MO  90
Process 15:   Internal MO 174
Process  6:   Internal MO 105
Process 10:   Internal MO 135
Process  5:   Internal MO  99
Process  8:   Internal MO 120
Process  7:   Internal MO 114
Process  9:   Internal MO 129
Process 13:   Internal MO 159
Process 11:   Internal MO 144
Process 14:   Internal MO 168
Process 12:   Internal MO 153
Process 10:   Internal MO 138
Process  8:   Internal MO 123
Process 15:   Internal MO 177
Process 11:   Internal MO 147
Process 13:   Internal MO 162
Process 14:   Internal MO 171
-----------------------------------------------
 MP2 CORRELATION ENERGY   :     -7.282067333 Eh
-----------------------------------------------


-------
TIMINGS
-------
Total time                : 2659.635 sec
Integral trafo            : 2377.248 sec ( 89.4%)
K(i,j)                    :    6.397 sec (  0.2%)
T(i,j)                    :    0.069 sec (  0.0%)

---------------------------------------
MP2 TOTAL ENERGY:    -2130.901739095 Eh
---------------------------------------

Maximum memory used throughout the entire MP2-calculation: 2275.3 MB

-------------------------   --------------------
FINAL SINGLE POINT ENERGY     -2130.901739094720
-------------------------   --------------------


                            ***************************************
                            *     ORCA property calculations      *
                            ***************************************


  WARNING: The energy has been calculated at the MP2 level but the densities
           used in the property calculations are still SCF densities
           MP2 response densities have not been calculated 
           use %mp2 Density relaxed end
           or  %mp2 Density unrelaxed end

                                    ---------------------
                                    Active property flags
                                    ---------------------
   (+) Dipole Moment


------------------------------------------------------------------------------
                       ORCA ELECTRIC PROPERTIES CALCULATION
------------------------------------------------------------------------------

Dipole Moment Calculation                       ... on
Quadrupole Moment Calculation                   ... off
Polarizability Calculation                      ... off
GBWName                                         ... /scratch/allen/tmpyp4_amber_gaff2/conf1/conf1/Conf147.orca.gbw
Electron density                                ... /scratch/allen/tmpyp4_amber_gaff2/conf1/conf1/Conf147.orca.scfp
The origin for moment calculation is the CENTER OF MASS  = ( 0.003326, -0.001846  0.002065)

-------------
DIPOLE MOMENT
-------------
                                X             Y             Z
Electronic contribution:      1.96144      -3.82670      -0.22359
Nuclear contribution   :      0.03211       0.20737       0.22464
                        -----------------------------------------
Total Dipole Moment    :      1.99355      -3.61933       0.00104
                        -----------------------------------------
Magnitude (a.u.)       :      4.13204
Magnitude (Debye)      :     10.50281



--------------------
Rotational spectrum 
--------------------
 
Rotational constants in cm-1:     0.001500     0.001478     0.000761 
Rotational constants in MHz :    44.964697    44.298208    22.809390 

 Dipole components along the rotational axes: 
x,y,z [a.u.] :     2.836242    -3.004906     0.005476 
x,y,z [Debye]:     7.209155    -7.637864     0.013918 

 

Timings for individual modules:

Sum of individual times         ...     4379.223 sec (=  72.987 min)
GTO integral calculation        ...       12.690 sec (=   0.211 min)   0.3 %
SCF iterations                  ...     1687.308 sec (=  28.122 min)  38.5 %
MP2 module                      ...     2679.226 sec (=  44.654 min)  61.2 %
                             ****ORCA TERMINATED NORMALLY****
TOTAL RUN TIME: 0 days 1 hours 13 minutes 2 seconds 908 msec
# of primitive gaussian functions

