
                                 *****************
                                 * O   R   C   A *
                                 *****************

                                            #,                                       
                                            ###                                      
                                            ####                                     
                                            #####                                    
                                            ######                                   
                                           ########,                                 
                                     ,,################,,,,,                         
                               ,,#################################,,                 
                          ,,##########################################,,             
                       ,#########################################, ''#####,          
                    ,#############################################,,   '####,        
                  ,##################################################,,,,####,       
                ,###########''''           ''''###############################       
              ,#####''   ,,,,##########,,,,          '''####'''          '####       
            ,##' ,,,,###########################,,,                        '##       
           ' ,,###''''                  '''############,,,                           
         ,,##''                                '''############,,,,        ,,,,,,###''
      ,#''                                            '''#######################'''  
     '                                                          ''''####''''         
             ,#######,   #######,   ,#######,      ##                                
            ,#'     '#,  ##    ##  ,#'     '#,    #''#        ######   ,####,        
            ##       ##  ##   ,#'  ##            #'  '#       #        #'  '#        
            ##       ##  #######   ##           ,######,      #####,   #    #        
            '#,     ,#'  ##    ##  '#,     ,#' ,#      #,         ##   #,  ,#        
             '#######'   ##     ##  '#######'  #'      '#     #####' # '####'        



                  #######################################################
                  #                        -***-                        #
                  #          Department of theory and spectroscopy      #
                  #    Directorship and core code : Frank Neese         #
                  #        Max Planck Institute fuer Kohlenforschung    #
                  #                Kaiser Wilhelm Platz 1               #
                  #                 D-45470 Muelheim/Ruhr               #
                  #                      Germany                        #
                  #                                                     #
                  #                  All rights reserved                #
                  #                        -***-                        #
                  #######################################################


                         Program Version 5.0.4 -  RELEASE  -


 With contributions from (in alphabetic order):
   Daniel Aravena         : Magnetic Suceptibility
   Michael Atanasov       : Ab Initio Ligand Field Theory (pilot matlab implementation)
   Alexander A. Auer      : GIAO ZORA, VPT2 properties, NMR spectrum
   Ute Becker             : Parallelization
   Giovanni Bistoni       : ED, misc. LED, open-shell LED, HFLD
   Martin Brehm           : Molecular dynamics
   Dmytro Bykov           : SCF Hessian
   Vijay G. Chilkuri      : MRCI spin determinant printing, contributions to CSF-ICE
   Dipayan Datta          : RHF DLPNO-CCSD density
   Achintya Kumar Dutta   : EOM-CC, STEOM-CC
   Dmitry Ganyushin       : Spin-Orbit,Spin-Spin,Magnetic field MRCI
   Miquel Garcia          : C-PCM and meta-GGA Hessian, CC/C-PCM, Gaussian charge scheme
   Yang Guo               : DLPNO-NEVPT2, F12-NEVPT2, CIM, IAO-localization
   Andreas Hansen         : Spin unrestricted coupled pair/coupled cluster methods
   Benjamin Helmich-Paris : MC-RPA, TRAH-SCF, COSX integrals
   Lee Huntington         : MR-EOM, pCC
   Robert Izsak           : Overlap fitted RIJCOSX, COSX-SCS-MP3, EOM
   Marcus Kettner         : VPT2
   Christian Kollmar      : KDIIS, OOCD, Brueckner-CCSD(T), CCSD density, CASPT2, CASPT2-K
   Simone Kossmann        : Meta GGA functionals, TD-DFT gradient, OOMP2, MP2 Hessian
   Martin Krupicka        : Initial AUTO-CI
   Lucas Lang             : DCDCAS
   Marvin Lechner         : AUTO-CI (C++ implementation), FIC-MRCC
   Dagmar Lenk            : GEPOL surface, SMD
   Dimitrios Liakos       : Extrapolation schemes; Compound Job, initial MDCI parallelization
   Dimitrios Manganas     : Further ROCIS development; embedding schemes
   Dimitrios Pantazis     : SARC Basis sets
   Anastasios Papadopoulos: AUTO-CI, single reference methods and gradients
   Taras Petrenko         : DFT Hessian,TD-DFT gradient, ASA, ECA, R-Raman, ABS, FL, XAS/XES, NRVS
   Peter Pinski           : DLPNO-MP2, DLPNO-MP2 Gradient
   Christoph Reimann      : Effective Core Potentials
   Marius Retegan         : Local ZFS, SOC
   Christoph Riplinger    : Optimizer, TS searches, QM/MM, DLPNO-CCSD(T), (RO)-DLPNO pert. Triples
   Tobias Risthaus        : Range-separated hybrids, TD-DFT gradient, RPA, STAB
   Michael Roemelt        : Original ROCIS implementation
   Masaaki Saitow         : Open-shell DLPNO-CCSD energy and density
   Barbara Sandhoefer     : DKH picture change effects
   Avijit Sen             : IP-ROCIS
   Kantharuban Sivalingam : CASSCF convergence, NEVPT2, FIC-MRCI
   Bernardo de Souza      : ESD, SOC TD-DFT
   Georgi Stoychev        : AutoAux, RI-MP2 NMR, DLPNO-MP2 response
   Willem Van den Heuvel  : Paramagnetic NMR
   Boris Wezisla          : Elementary symmetry handling
   Frank Wennmohs         : Technical directorship


 We gratefully acknowledge several colleagues who have allowed us to
 interface, adapt or use parts of their codes:
   Stefan Grimme, W. Hujo, H. Kruse, P. Pracht,  : VdW corrections, initial TS optimization,
                  C. Bannwarth, S. Ehlert          DFT functionals, gCP, sTDA/sTD-DF
   Ed Valeev, F. Pavosevic, A. Kumar             : LibInt (2-el integral package), F12 methods
   Garnet Chan, S. Sharma, J. Yang, R. Olivares  : DMRG
   Ulf Ekstrom                                   : XCFun DFT Library
   Mihaly Kallay                                 : mrcc  (arbitrary order and MRCC methods)
   Jiri Pittner, Ondrej Demel                    : Mk-CCSD
   Frank Weinhold                                : gennbo (NPA and NBO analysis)
   Christopher J. Cramer and Donald G. Truhlar   : smd solvation model
   Lars Goerigk                                  : TD-DFT with DH, B97 family of functionals
   V. Asgeirsson, H. Jonsson                     : NEB implementation
   FAccTs GmbH                                   : IRC, NEB, NEB-TS, DLPNO-Multilevel, CI-OPT
                                                   MM, QMMM, 2- and 3-layer-ONIOM, Crystal-QMMM,
                                                   LR-CPCM, SF, NACMEs, symmetry and pop. for TD-DFT,
                                                   nearIR, NL-DFT gradient (VV10), updates on ESD,
                                                   ML-optimized integration grids
   S Lehtola, MJT Oliveira, MAL Marques          : LibXC Library
   Liviu Ungur et al                             : ANISO software


 Your calculation uses the libint2 library for the computation of 2-el integrals
 For citations please refer to: http://libint.valeyev.net

 Your ORCA version has been built with support for libXC version: 5.1.0
 For citations please refer to: https://tddft.org/programs/libxc/

 This ORCA versions uses:
   CBLAS   interface :  Fast vector & matrix operations
   LAPACKE interface :  Fast linear algebra routines
   SCALAPACK package :  Parallel linear algebra routines
   Shared memory     :  Shared parallel matrices
   BLAS/LAPACK       :  OpenBLAS 0.3.15  USE64BITINT DYNAMIC_ARCH NO_AFFINITY Sandybridge SINGLE_THREADED
        Core in use  :  Sandybridge
   Copyright (c) 2011-2014, The OpenBLAS Project


================================================================================

----- Orbital basis set information -----
Your calculation utilizes the basis: cc-pVDZ 
       H, B-Ne : Obtained from the ccRepo (grant-hill.group.shef.ac.uk/ccrepo) Feb. 2017
                 T. H. Dunning, Jr., J. Chem. Phys. 90, 1007 (1989)
            He : Obtained from the ccRepo (grant-hill.group.shef.ac.uk/ccrepo) Feb. 2017
                 D. E. Woon, T. H. Dunning, Jr., J. Chem. Phys. 100, 2975 (1994)
  Li-Be, Na-Mg : Obtained from the ccRepo (grant-hill.group.shef.ac.uk/ccrepo) Feb. 2017
                 B. P. Prascher, D. E. Woon, K. A. Peterson, T. H. Dunning, Jr., A. K. Wilson, Theor. Chem. Acc. 128, 69 (2011)
         Al-Ar : Obtained from the ccRepo (grant-hill.group.shef.ac.uk/ccrepo) Feb. 2017
                 D. E. Woon, T. H. Dunning, Jr., J. Chem. Phys. 98, 1358 (1993)
            Ca : Obtained from the Peterson Research Group Website (tyr0.chem.wsu.edu/~kipeters) Feb. 2017
                 J. Koput, K. A. Peterson, J. Phys. Chem. 106, 9595 (2002)
         Sc-Zn : Obtained from the ccRepo (grant-hill.group.shef.ac.uk/ccrepo) Feb. 2017
                 N. B. Balabanov, K. A. Peterson, J. Chem. Phys. 123, 064107 (2005)
                 N. B. Balabanov, K. A. Peterson, J. Chem. Phys. 125, 074110 (2006)
         Ga-Kr : Obtained from the ccRepo (grant-hill.group.shef.ac.uk/ccrepo) Feb. 2017
                 A. K. Wilson, D. E. Woon, K. A. Peterson, T. H. Dunning, Jr., J. Chem. Phys. 110, 7667 (1999)

================================================================================
                                        WARNINGS
                       Please study these warnings very carefully!
================================================================================


WARNING: No MP2 level density has been requested!
         To caclulate MP2 level properties use
         %mp2 Density relaxed end
         or
         %mp2 Density unrelaxed end

WARNING: Post HF methods need fully converged wavefunctions
  ===> : Setting SCFConvForced true
         You can overwrite this default with %scf ConvForced false 


INFO   : the flag for use of the SHARK integral package has been found!

================================================================================
                                       INPUT FILE
================================================================================
NAME = /scratch/allen/tmpyp4_amber_gaff2/2.Mdgx/conf11/conf11/Conf122.orca
|  1> ! PAL2
|  2> ! mp2 cc-pvdz TightSCF  NoKeepInts
|  3> 
|  4> %scf
|  5>   MaxCore 2000
|  6> end
|  7> %mp2
|  8>   MaxCore 2000
|  9> end
| 10> * xyz 0 1
| 11>    C       -4.47700         5.52900        -0.92900
| 12>    C        1.47400         4.04100         0.05700
| 13>    C       -2.80200         4.09300         0.04900
| 14>    C       -2.69800         5.01600         1.10100
| 15>    C       -3.48100         6.15300         1.10600
| 16>    C       -5.20400         7.60700         0.15300
| 17>    C        0.13200         4.30700         0.06100
| 18>    C       -0.56900         3.05600         0.04700
| 19>    C        1.64900         2.61800         0.02300
| 20>    C       -3.71900         4.37500        -0.97500
| 21>    N       -4.35200         6.39900         0.09900
| 22>    N        0.38800         2.06700         0.02500
| 23>    N       -2.01000         0.39500        -0.07500
| 24>    N       -0.38800        -2.07400        -0.02700
| 25>    N        2.01000        -0.40100         0.06500
| 26>    C       -1.96000         2.86100         0.02400
| 27>    C       -2.62300         1.61500        -0.01800
| 28>    C       -5.57300        -4.32900         1.06600
| 29>    C       -4.07300         1.47100         0.05600
| 30>    C       -4.10600        -2.75600        -0.02600
| 31>    C       -4.99500        -2.75700        -1.11100
| 32>    C       -6.13200        -3.54200        -1.07600
| 33>    C       -7.65100        -5.11300         0.04000
| 34>    C       -4.32400         0.14100         0.03700
| 35>    C       -3.02500        -0.52000        -0.04800
| 36>    C       -4.42200        -3.56600         1.07500
| 37>    N       -6.40700        -4.31300         0.00100
| 38>    C       -2.86700        -1.92200        -0.04000
| 39>    C       -1.65000        -2.62400        -0.02700
| 40>    C        3.56800        -6.14200        -1.04000
| 41>    C       -1.47600        -4.04900        -0.03400
| 42>    C        2.80300        -4.09900        -0.00800
| 43>    C        3.65700        -4.38400         1.06900
| 44>    C        4.42700        -5.53000         1.05900
| 45>    C        5.24500        -7.58800         0.01400
| 46>    C       -0.13400        -4.31500        -0.02200
| 47>    C        0.56800        -3.06400        -0.02700
| 48>    C        2.77500        -5.01200        -1.07400
| 49>    N        4.37600        -6.39100         0.01700
| 50>    C        1.95900        -2.86900        -0.00900
| 51>    C        2.62100        -1.62200         0.00900
| 52>    C        5.54300         4.33900        -1.13000
| 53>    C        4.07000        -1.47900        -0.09400
| 54>    C        4.10400         2.75100        -0.02100
| 55>    C        5.02700         2.72900         1.03600
| 56>    C        6.16600         3.50900         0.97800
| 57>    C        7.61900         5.15300        -0.11500
| 58>    C        4.32100        -0.14800        -0.09200
| 59>    C        3.02500         0.51400         0.01500
| 60>    C        4.38700         3.58200        -1.11500
| 61>    C        2.86600         1.91600         0.01300
| 62>    N        6.41300         4.29600        -0.09500
| 63>    H       -5.18700         5.79300        -1.70300
| 64>    H        2.27400         4.76600         0.08100
| 65>    H       -2.01500         4.85000         1.92500
| 66>    H       -3.44300         6.88800         1.89900
| 67>    H       -6.10100         7.38500         0.73500
| 68>    H       -4.64100         8.41300         0.62400
| 69>    H       -5.47800         7.88900        -0.86400
| 70>    H       -0.33200         5.28200         0.06900
| 71>    H       -3.83500         3.70800        -1.82200
| 72>    H        0.18200         1.07200         0.00500
| 73>    H       -0.18300        -1.08000        -0.02100
| 74>    H       -5.86400        -4.96200         1.89500
| 75>    H       -4.79400         2.27200         0.13900
| 76>    H       -4.80000        -2.16000        -1.99400
| 77>    H       -6.84100        -3.58200        -1.89300
| 78>    H       -8.42800        -4.53600         0.54600
| 79>    H       -7.95600        -5.33700        -0.98100
| 80>    H       -7.45600        -6.03700         0.58400
| 81>    H       -5.28700        -0.34400         0.10000
| 82>    H       -3.78000        -3.60100         1.94700
| 83>    H        3.58700        -6.86800        -1.84300
| 84>    H       -2.27600        -4.77400        -0.05000
| 85>    H        3.71400        -3.72400         1.92600
| 86>    H        5.09200        -5.79500         1.87100
| 87>    H        6.20500        -7.32900        -0.43900
| 88>    H        5.39300        -7.91700         1.04200
| 89>    H        4.75900        -8.37300        -0.56400
| 90>    H        0.32900        -5.29000        -0.00800
| 91>    H        2.14600        -4.84200        -1.94000
| 92>    H        5.80800         4.98600        -1.95600
| 93>    H        4.78800        -2.28100        -0.18500
| 94>    H        4.86000         2.11400         1.91200
| 95>    H        6.90100         3.53100         1.77200
| 96>    H        7.38300         6.10900         0.35600
| 97>    H        8.41400         4.65200         0.43500
| 98>    H        7.92100         5.31000        -1.15000
| 99>    H        5.28300         0.33600        -0.17900
|100>    H        3.72000         3.63200        -1.96700
|101> *
|102> 
|103>                          ****END OF INPUT****
================================================================================

                       ****************************
                       * Single Point Calculation *
                       ****************************

---------------------------------
CARTESIAN COORDINATES (ANGSTROEM)
---------------------------------
  C     -4.477000    5.529000   -0.929000
  C      1.474000    4.041000    0.057000
  C     -2.802000    4.093000    0.049000
  C     -2.698000    5.016000    1.101000
  C     -3.481000    6.153000    1.106000
  C     -5.204000    7.607000    0.153000
  C      0.132000    4.307000    0.061000
  C     -0.569000    3.056000    0.047000
  C      1.649000    2.618000    0.023000
  C     -3.719000    4.375000   -0.975000
  N     -4.352000    6.399000    0.099000
  N      0.388000    2.067000    0.025000
  N     -2.010000    0.395000   -0.075000
  N     -0.388000   -2.074000   -0.027000
  N      2.010000   -0.401000    0.065000
  C     -1.960000    2.861000    0.024000
  C     -2.623000    1.615000   -0.018000
  C     -5.573000   -4.329000    1.066000
  C     -4.073000    1.471000    0.056000
  C     -4.106000   -2.756000   -0.026000
  C     -4.995000   -2.757000   -1.111000
  C     -6.132000   -3.542000   -1.076000
  C     -7.651000   -5.113000    0.040000
  C     -4.324000    0.141000    0.037000
  C     -3.025000   -0.520000   -0.048000
  C     -4.422000   -3.566000    1.075000
  N     -6.407000   -4.313000    0.001000
  C     -2.867000   -1.922000   -0.040000
  C     -1.650000   -2.624000   -0.027000
  C      3.568000   -6.142000   -1.040000
  C     -1.476000   -4.049000   -0.034000
  C      2.803000   -4.099000   -0.008000
  C      3.657000   -4.384000    1.069000
  C      4.427000   -5.530000    1.059000
  C      5.245000   -7.588000    0.014000
  C     -0.134000   -4.315000   -0.022000
  C      0.568000   -3.064000   -0.027000
  C      2.775000   -5.012000   -1.074000
  N      4.376000   -6.391000    0.017000
  C      1.959000   -2.869000   -0.009000
  C      2.621000   -1.622000    0.009000
  C      5.543000    4.339000   -1.130000
  C      4.070000   -1.479000   -0.094000
  C      4.104000    2.751000   -0.021000
  C      5.027000    2.729000    1.036000
  C      6.166000    3.509000    0.978000
  C      7.619000    5.153000   -0.115000
  C      4.321000   -0.148000   -0.092000
  C      3.025000    0.514000    0.015000
  C      4.387000    3.582000   -1.115000
  C      2.866000    1.916000    0.013000
  N      6.413000    4.296000   -0.095000
  H     -5.187000    5.793000   -1.703000
  H      2.274000    4.766000    0.081000
  H     -2.015000    4.850000    1.925000
  H     -3.443000    6.888000    1.899000
  H     -6.101000    7.385000    0.735000
  H     -4.641000    8.413000    0.624000
  H     -5.478000    7.889000   -0.864000
  H     -0.332000    5.282000    0.069000
  H     -3.835000    3.708000   -1.822000
  H      0.182000    1.072000    0.005000
  H     -0.183000   -1.080000   -0.021000
  H     -5.864000   -4.962000    1.895000
  H     -4.794000    2.272000    0.139000
  H     -4.800000   -2.160000   -1.994000
  H     -6.841000   -3.582000   -1.893000
  H     -8.428000   -4.536000    0.546000
  H     -7.956000   -5.337000   -0.981000
  H     -7.456000   -6.037000    0.584000
  H     -5.287000   -0.344000    0.100000
  H     -3.780000   -3.601000    1.947000
  H      3.587000   -6.868000   -1.843000
  H     -2.276000   -4.774000   -0.050000
  H      3.714000   -3.724000    1.926000
  H      5.092000   -5.795000    1.871000
  H      6.205000   -7.329000   -0.439000
  H      5.393000   -7.917000    1.042000
  H      4.759000   -8.373000   -0.564000
  H      0.329000   -5.290000   -0.008000
  H      2.146000   -4.842000   -1.940000
  H      5.808000    4.986000   -1.956000
  H      4.788000   -2.281000   -0.185000
  H      4.860000    2.114000    1.912000
  H      6.901000    3.531000    1.772000
  H      7.383000    6.109000    0.356000
  H      8.414000    4.652000    0.435000
  H      7.921000    5.310000   -1.150000
  H      5.283000    0.336000   -0.179000
  H      3.720000    3.632000   -1.967000

----------------------------
CARTESIAN COORDINATES (A.U.)
----------------------------
  NO LB      ZA    FRAG     MASS         X           Y           Z
   0 C     6.0000    0    12.011   -8.460304   10.448296   -1.755556
   1 C     6.0000    0    12.011    2.785456    7.636383    0.107714
   2 C     6.0000    0    12.011   -5.295013    7.734649    0.092597
   3 C     6.0000    0    12.011   -5.098481    9.478866    2.080588
   4 C     6.0000    0    12.011   -6.578137   11.627485    2.090037
   5 C     6.0000    0    12.011   -9.834135   14.375147    0.289128
   6 C     6.0000    0    12.011    0.249444    8.139050    0.115273
   7 C     6.0000    0    12.011   -1.075254    5.775003    0.088817
   8 C     6.0000    0    12.011    3.116158    4.947303    0.043464
   9 C     6.0000    0    12.011   -7.027891    8.267552   -1.842483
  10 N     7.0000    0    14.007   -8.224088   12.092358    0.187083
  11 N     7.0000    0    14.007    0.733214    3.906064    0.047243
  12 N     7.0000    0    14.007   -3.798350    0.746442   -0.141729
  13 N     7.0000    0    14.007   -0.733214   -3.919292   -0.051023
  14 N     7.0000    0    14.007    3.798350   -0.757780    0.122832
  15 C     6.0000    0    12.011   -3.703863    5.406506    0.045353
  16 C     6.0000    0    12.011   -4.956752    3.051908   -0.034015
  17 C     6.0000    0    12.011  -10.531444   -8.180624    2.014448
  18 C     6.0000    0    12.011   -7.696855    2.779787    0.105825
  19 C     6.0000    0    12.011   -7.759216   -5.208085   -0.049133
  20 C     6.0000    0    12.011   -9.439182   -5.209975   -2.099486
  21 C     6.0000    0    12.011  -11.587801   -6.693410   -2.033345
  22 C     6.0000    0    12.011  -14.458295   -9.662170    0.075589
  23 C     6.0000    0    12.011   -8.171176    0.266451    0.069920
  24 C     6.0000    0    12.011   -5.716422   -0.982658   -0.090707
  25 C     6.0000    0    12.011   -8.356369   -6.738763    2.031456
  26 N     7.0000    0    14.007  -12.107475   -8.150389    0.001890
  27 C     6.0000    0    12.011   -5.417845   -3.632054   -0.075589
  28 C     6.0000    0    12.011   -3.118048   -4.958641   -0.051023
  29 C     6.0000    0    12.011    6.742543  -11.606698   -1.965315
  30 C     6.0000    0    12.011   -2.789236   -7.651501   -0.064251
  31 C     6.0000    0    12.011    5.296902   -7.745987   -0.015118
  32 C     6.0000    0    12.011    6.910728   -8.284559    2.020117
  33 C     6.0000    0    12.011    8.365818  -10.450186    2.001220
  34 C     6.0000    0    12.011    9.911614  -14.339242    0.026456
  35 C     6.0000    0    12.011   -0.253223   -8.154168   -0.041574
  36 C     6.0000    0    12.011    1.073364   -5.790121   -0.051023
  37 C     6.0000    0    12.011    5.243990   -9.471307   -2.029566
  38 N     7.0000    0    14.007    8.269442  -12.077240    0.032125
  39 C     6.0000    0    12.011    3.701973   -5.421624   -0.017008
  40 C     6.0000    0    12.011    4.952972   -3.065136    0.017008
  41 C     6.0000    0    12.011   10.474752    8.199522   -2.135391
  42 C     6.0000    0    12.011    7.691185   -2.794905   -0.177634
  43 C     6.0000    0    12.011    7.755436    5.198637   -0.039684
  44 C     6.0000    0    12.011    9.499653    5.157063    1.957756
  45 C     6.0000    0    12.011   11.652051    6.631049    1.848152
  46 C     6.0000    0    12.011   14.397823    9.737759   -0.217319
  47 C     6.0000    0    12.011    8.165507   -0.279679   -0.173855
  48 C     6.0000    0    12.011    5.716422    0.971319    0.028346
  49 C     6.0000    0    12.011    8.290229    6.768999   -2.107045
  50 C     6.0000    0    12.011    5.415955    3.620715    0.024566
  51 N     7.0000    0    14.007   12.118814    8.118263   -0.179524
  52 H     1.0000    0     1.008   -9.802009   10.947183   -3.218204
  53 H     1.0000    0     1.008    4.297237    9.006435    0.153068
  54 H     1.0000    0     1.008   -3.807798    9.165172    3.637723
  55 H     1.0000    0     1.008   -6.506327   13.016434    3.588590
  56 H     1.0000    0     1.008  -11.529219   13.955627    1.388949
  57 H     1.0000    0     1.008   -8.770219   15.898266    1.179189
  58 H     1.0000    0     1.008  -10.351920   14.908049   -1.632723
  59 H     1.0000    0     1.008   -0.627389    9.981533    0.130391
  60 H     1.0000    0     1.008   -7.247100    7.007105   -3.443081
  61 H     1.0000    0     1.008    0.343930    2.025786    0.009449
  62 H     1.0000    0     1.008   -0.345820   -2.040904   -0.039684
  63 H     1.0000    0     1.008  -11.081354   -9.376821    3.581031
  64 H     1.0000    0     1.008   -9.059347    4.293458    0.262672
  65 H     1.0000    0     1.008   -9.070685   -4.081808   -3.768114
  66 H     1.0000    0     1.008  -12.927616   -6.768999   -3.577252
  67 H     1.0000    0     1.008  -15.926612   -8.571798    1.031790
  68 H     1.0000    0     1.008  -15.034661  -10.085468   -1.853821
  69 H     1.0000    0     1.008  -14.089798  -11.408277    1.103600
  70 H     1.0000    0     1.008   -9.990982   -0.650066    0.188973
  71 H     1.0000    0     1.008   -7.143165   -6.804904    3.679297
  72 H     1.0000    0     1.008    6.778448  -12.978639   -3.482765
  73 H     1.0000    0     1.008   -4.301017   -9.021553   -0.094486
  74 H     1.0000    0     1.008    7.018443   -7.037340    3.639613
  75 H     1.0000    0     1.008    9.622485  -10.950963    3.535678
  76 H     1.0000    0     1.008   11.725751  -13.849803   -0.829590
  77 H     1.0000    0     1.008   10.191293  -14.960962    1.969095
  78 H     1.0000    0     1.008    8.993207  -15.822677   -1.065806
  79 H     1.0000    0     1.008    0.621720   -9.996651   -0.015118
  80 H     1.0000    0     1.008    4.055352   -9.150054   -3.666069
  81 H     1.0000    0     1.008   10.975529    9.422175   -3.696304
  82 H     1.0000    0     1.008    9.048009   -4.310465   -0.349599
  83 H     1.0000    0     1.008    9.184069    3.994881    3.613156
  84 H     1.0000    0     1.008   13.041000    6.672623    3.348595
  85 H     1.0000    0     1.008   13.951848   11.544337    0.672743
  86 H     1.0000    0     1.008   15.900156    8.791006    0.822031
  87 H     1.0000    0     1.008   14.968521   10.034446   -2.173185
  88 H     1.0000    0     1.008    9.983423    0.634948   -0.338261
  89 H     1.0000    0     1.008    7.029781    6.863485   -3.717091

--------------------------------
INTERNAL COORDINATES (ANGSTROEM)
--------------------------------
 C      0   0   0     0.000000000000     0.00000000     0.00000000
 C      1   0   0     6.212949460602     0.00000000     0.00000000
 C      1   2   0     2.413338973290    29.35277806     0.00000000
 C      3   1   2     1.403370585412    87.92934123    82.50210829
 C      4   3   1     1.380537214276   120.15639856     0.14580438
 C      5   4   3     2.447662966995   152.50928196     1.60760041
 C      2   1   3     1.368114030335     9.71584896   320.46476596
 C      7   2   3     1.434084376876   108.05010202     0.84668783
 C      2   1   3     1.434123425651   110.53384539    38.39611782
 C      1   2   3     1.381447067390    43.91670954   314.08038281
 N      1   2   3     1.352519500784    86.84201583    96.87702888
 N      9   2   1     1.376127174356   106.58526707   349.23194228
 N     12   9   2     2.925062050624   168.53581413   171.12065651
 N     13  12   9     2.954513327098    91.55032014    11.12112580
 N     14  13  12     2.925371258490    88.43092389   359.84326247
 C      8   7   2     1.404790019896   127.24786865   181.11170171
 C     13  12   9     1.366535034311    81.72106996   188.00453233
 C     14  13  12     5.758810554272    80.56209567   166.76250791
 C     17  13  12     1.459010623676   111.08861209   183.82872609
 C     18  14  13     2.412235892279    27.27532823    36.33507194
 C     20  18  14     1.402692767501    87.95206320   148.94598259
 C     21  20  18     1.382106725257   120.14573887   359.70382047
 C     18  14  13     2.446510985056   144.15733107    82.80075377
 C     19  17  13     1.353610726908   106.29293361   359.75308708
 C     13  12   9     1.366813447402   172.21332906    33.46711076
 C     18  14  13     1.380960173213    15.08449437   309.23336894
 N     22  21  20     1.352773077792   120.73759875     0.27865223
 C     25  13  17     1.410897586645   125.60330303   182.37774668
 C     14  13  12     1.376642291955    80.24689249   177.85461986
 C     14  13  12     5.764089607215   164.51507311   312.20821879
 C     29  14  13     1.435600919476   106.58649366   178.76395472
 C     30  14  13     2.413316804732    27.10625047    82.12560436
 C     32  30  14     1.403734305344    87.90059683   149.76154742
 C     33  32  30     1.380694028378   120.14881443   359.74174632
 C     34  33  32     2.448777858443   152.49203239     2.45173620
 C     31  29  14     1.368160809262   108.16950133     0.70383075
 C     14  13  12     1.376239804685   169.26375223   353.09862627
 C     30  14  13     1.380907310430    14.68948582   353.70041132
 N     34  33  32     1.352658863128   120.85575621     0.19603406
 C     37  14  29     1.404717053360   126.01551127   180.90772073
 C     15  14  13     1.366491126938    81.61824056   183.09049352
 C      2   1   3     4.249062720177   148.88335135   159.00352730
 C     41  15  14     1.459677704153   111.05201287   175.08990246
 C     42   2   1     2.412953791518    41.78584867   210.17568178
 C     44  42   2     1.403446472082    87.95153797   233.97558675
 C     45  44  42     1.381696421071   120.11137308     0.19721020
 C     42   2   1     2.450019795838   135.97209175   120.49053088
 C     43  41  15     1.354461516618   106.26758155     0.30894352
 C     15  14  13     1.367461151185   171.87382904   332.35056460
 C     42   2   1     1.381886391857    32.59078432   259.03096097
 C      9   2   1     1.404988612053   126.98745415   170.23627981
 N     42   2   1     1.352765315936   113.57249190   148.22712007
 H      1   2   3     1.082992151403   143.10662924   229.11518625
 H      2   1   3     1.079907866440   123.52551159   208.91203816
 H      4   3   1     1.083060940114   121.08082812   179.55689193
 H      5   4   3     1.081904801727   122.83675813   179.40596198
 H      6   5   4     1.092070052698   104.47401762   100.13484162
 H      6   5   4     1.090158704043    84.68896385   209.58910512
 H      6   5   4     1.090361866538   133.92245737   322.33793038
 H      7   2  54     1.079807853278   126.66122480     1.30600390
 H     10   1   2     1.084321907922   118.76147030   225.56127763
 H     12   9   2     1.016297692608   125.29023241   180.00180175
 H     14  13  12     1.014936943854    44.97226959   359.42596618
 H     18  14  13     1.082871645210   128.03556573   234.20482432
 H     19  17  13     1.080893611786   126.41830519   178.11313280
 H     21  20  18     1.083569563987   121.05669627   180.67006309
 H     22  21  20     1.082483256222   122.73097286   180.59748951
 H     23  18  14     1.092105306278   103.92715769   234.93429879
 H     23  18  14     1.088871893291   134.19244188    12.25587044
 H     23  18  14     1.089833473518    84.85857450   125.45241208
 H     24  19  17     1.080075460327   127.28078426   178.44613241
 H     26  18  14     1.083408048706   118.76995697   244.94906660
 H     30  14  13     1.082703098730   127.99711412   279.66882698
 H     31  29  14     1.079759695488   125.22293469   180.92530585
 H     33  32  30     1.083188810873   121.01964473   180.74284758
 H     34  33  32     1.082494341787   122.70821597   180.59516895
 H     35  34  33     1.092652735319   105.73575241    97.19771933
 H     35  34  33     1.089462711615    84.05943581   206.43036958
 H     35  34  33     1.089268102902   133.08365142   318.50306270
 H     36  31  29     1.079439669458   126.61599965   178.98859863
 H     38  30  73     1.083742127999   118.77264435   359.90091293
 H     42   2   1     1.082178358682   119.31790784     4.85865053
 H     43  41  15     1.080281907652   126.36969097   182.06329380
 H     45  44  42     1.083277434455   121.10105945   179.58025624
 H     46  45  44     1.082194529648   122.72144639   179.46906377
 H     47  42   2     1.091546151109   106.65128841   315.16475048
 H     47  42   2     1.088818625851   132.46019523    94.52397119
 H     47  42   2     1.089531091801    83.63838232   206.04504406
 H     48  43  41     1.080402239909   127.23657387   181.62955349
 H     50  42   2     1.083186502870   118.77001737    94.71359229

---------------------------
INTERNAL COORDINATES (A.U.)
---------------------------
 C      0   0   0     0.000000000000     0.00000000     0.00000000
 C      1   0   0    11.740772964432     0.00000000     0.00000000
 C      1   2   0     4.560549727837    29.35277806     0.00000000
 C      3   1   2     2.651986070830    87.92934123    82.50210829
 C      4   3   1     2.608837252668   120.15639856     0.14580438
 C      5   4   3     4.625412675762   152.50928196     1.60760041
 C      2   1   3     2.585360837309     9.71584896   320.46476596
 C      7   2   3     2.710026725231   108.05010202     0.84668783
 C      2   1   3     2.710100516721   110.53384539    38.39611782
 C      1   2   3     2.610556625875    43.91670954   314.08038281
 N      1   2   3     2.555891447269    86.84201583    96.87702888
 N      9   2   1     2.600503484979   106.58526707   349.23194228
 N     12   9   2     5.527566200405   168.53581413   171.12065651
 N     13  12   9     5.583221047236    91.55032014    11.12112580
 N     14  13  12     5.528150518591    88.43092389   359.84326247
 C      8   7   2     2.654668413270   127.24786865   181.11170171
 C     13  12   9     2.582376967257    81.72106996   188.00453233
 C     14  13  12    10.882574804710    80.56209567   166.76250791
 C     17  13  12     2.757130505230   111.08861209   183.82872609
 C     18  14  13     4.558465206823    27.27532823    36.33507194
 C     20  18  14     2.650705180609    87.95206320   148.94598259
 C     21  20  18     2.611803198586   120.14573887   359.70382047
 C     18  14  13     4.623235745386   144.15733107    82.80075377
 C     19  17  13     2.557953565794   106.29293361   359.75308708
 C     13  12   9     2.582903091751   172.21332906    33.46711076
 C     18  14  13     2.609636529225    15.08449437   309.23336894
 N     22  21  20     2.556370638369   120.73759875     0.27865223
 C     25  13  17     2.666210041769   125.60330303   182.37774668
 C     14  13  12     2.601476916169    80.24689249   177.85461986
 C     14  13  12    10.892550769017   164.51507311   312.20821879
 C     29  14  13     2.712892575415   106.58649366   178.76395472
 C     30  14  13     4.560507835333    27.10625047    82.12560436
 C     32  30  14     2.652673401891    87.90059683   149.76154742
 C     33  32  30     2.609133588376   120.14881443   359.74174632
 C     34  33  32     4.627519515267   152.49203239     2.45173620
 C     31  29  14     2.585449236669   108.16950133     0.70383075
 C     14  13  12     2.600716325456   169.26375223   353.09862627
 C     30  14  13     2.609536633043    14.68948582   353.70041132
 N     34  33  32     2.556154803934   120.85575621     0.19603406
 C     37  14  29     2.654530526499   126.01551127   180.90772073
 C     15  14  13     2.582293994346    81.61824056   183.09049352
 C      2   1   3     8.029564866989   148.88335135   159.00352730
 C     41  15  14     2.758391104639   111.05201287   175.08990246
 C     42   2   1     4.559821839776    41.78584867   210.17568178
 C     44  42   2     2.652129475853    87.95153797   233.97558675
 C     45  44  42     2.611027836043   120.11137308     0.19721020
 C     42   2   1     4.629866436820   135.97209175   120.49053088
 C     43  41  15     2.559561325344   106.26758155     0.30894352
 C     15  14  13     2.584127074516   171.87382904   332.35056460
 C     42   2   1     2.611386828803    32.59078432   259.03096097
 C      9   2   1     2.655043698059   126.98745415   170.23627981
 N     42   2   1     2.556355970587   113.57249190   148.22712007
 H      1   2   3     2.046558571337   143.10662924   229.11518625
 H      2   1   3     2.040730117440   123.52551159   208.91203816
 H      4   3   1     2.046688563162   121.08082812   179.55689193
 H      5   4   3     2.044503778238   122.83675813   179.40596198
 H      6   5   4     2.063713318656   104.47401762   100.13484162
 H      6   5   4     2.060101393151    84.68896385   209.58910512
 H      6   5   4     2.060485314628   133.92245737   322.33793038
 H      7   2  54     2.040541119952   126.66122480     1.30600390
 H     10   1   2     2.049071446984   118.76147030   225.56127763
 H     12   9   2     1.920524309565   125.29023241   180.00180175
 H     14  13  12     1.917952867083    44.97226959   359.42596618
 H     18  14  13     2.046330847636   128.03556573   234.20482432
 H     19  17  13     2.042592906181   126.41830519   178.11313280
 H     21  20  18     2.047649722989   121.05669627   180.67006309
 H     22  21  20     2.045596898814   122.73097286   180.59748951
 H     23  18  14     2.063779938267   103.92715769   234.93429879
 H     23  18  14     2.057669673245   134.19244188    12.25587044
 H     23  18  14     2.059486796529    84.85857450   125.45241208
 H     24  19  17     2.041046823986   127.28078426   178.44613241
 H     26  18  14     2.047344503340   118.76995697   244.94906660
 H     30  14  13     2.046012340948   127.99711412   279.66882698
 H     31  29  14     2.040450114918   125.22293469   180.92530585
 H     33  32  30     2.046930203877   121.01964473   180.74284758
 H     34  33  32     2.045617847496   122.70821597   180.59516895
 H     35  34  33     2.064814429233   105.73575241    97.19771933
 H     35  34  33     2.058786158072    84.05943581   206.43036958
 H     35  34  33     2.058418400901   133.08365142   318.50306270
 H     36  31  29     2.039845353366   126.61599965   178.98859863
 H     38  30  73     2.047975821711   118.77264435   359.90091293
 H     42   2   1     2.045020725966   119.31790784     4.85865053
 H     43  41  15     2.041436952892   126.36969097   182.06329380
 H     45  44  42     2.047097678177   121.10105945   179.58025624
 H     46  45  44     2.045051284662   122.72144639   179.46906377
 H     47  42   2     2.062723288131   106.65128841   315.16475048
 H     47  42   2     2.057569012371   132.46019523    94.52397119
 H     47  42   2     2.058915377895    83.63838232   206.04504406
 H     48  43  41     2.041664347903   127.23657387   181.62955349
 H     50  42   2     2.046925842384   118.77001737    94.71359229

---------------------
BASIS SET INFORMATION
---------------------
There are 3 groups of distinct atoms

 Group   1 Type C   : 17s4p1d contracted to 3s2p1d pattern {881/31/1}
 Group   2 Type N   : 17s4p1d contracted to 3s2p1d pattern {881/31/1}
 Group   3 Type H   : 4s1p contracted to 2s1p pattern {31/1}

Atom   0C    basis set group =>   1
Atom   1N    basis set group =>   2
Atom   2C    basis set group =>   1
Atom   3N    basis set group =>   2
Atom   4C    basis set group =>   1
Atom   5N    basis set group =>   2
Atom   6C    basis set group =>   1
Atom   7N    basis set group =>   2
Atom   8C    basis set group =>   1
Atom   9N    basis set group =>   2
Atom  10C    basis set group =>   1
Atom  11N    basis set group =>   2
Atom  12C    basis set group =>   1
Atom  13N    basis set group =>   2
Atom  14C    basis set group =>   1
Atom  15N    basis set group =>   2
Atom  16C    basis set group =>   1
Atom  17C    basis set group =>   1
Atom  18C    basis set group =>   1
Atom  19C    basis set group =>   1
Atom  20C    basis set group =>   1
Atom  21C    basis set group =>   1
Atom  22C    basis set group =>   1
Atom  23C    basis set group =>   1
Atom  24C    basis set group =>   1
Atom  25C    basis set group =>   1
Atom  26C    basis set group =>   1
Atom  27C    basis set group =>   1
Atom  28C    basis set group =>   1
Atom  29C    basis set group =>   1
Atom  30C    basis set group =>   1
Atom  31C    basis set group =>   1
Atom  32C    basis set group =>   1
Atom  33C    basis set group =>   1
Atom  34C    basis set group =>   1
Atom  35C    basis set group =>   1
Atom  36C    basis set group =>   1
Atom  37C    basis set group =>   1
Atom  38C    basis set group =>   1
Atom  39C    basis set group =>   1
Atom  40C    basis set group =>   1
Atom  41C    basis set group =>   1
Atom  42C    basis set group =>   1
Atom  43C    basis set group =>   1
Atom  44C    basis set group =>   1
Atom  45C    basis set group =>   1
Atom  46C    basis set group =>   1
Atom  47C    basis set group =>   1
Atom  48C    basis set group =>   1
Atom  49C    basis set group =>   1
Atom  50C    basis set group =>   1
Atom  51C    basis set group =>   1
Atom  52H    basis set group =>   3
Atom  53H    basis set group =>   3
Atom  54H    basis set group =>   3
Atom  55H    basis set group =>   3
Atom  56H    basis set group =>   3
Atom  57H    basis set group =>   3
Atom  58H    basis set group =>   3
Atom  59H    basis set group =>   3
Atom  60H    basis set group =>   3
Atom  61H    basis set group =>   3
Atom  62H    basis set group =>   3
Atom  63H    basis set group =>   3
Atom  64H    basis set group =>   3
Atom  65H    basis set group =>   3
Atom  66H    basis set group =>   3
Atom  67H    basis set group =>   3
Atom  68H    basis set group =>   3
Atom  69H    basis set group =>   3
Atom  70H    basis set group =>   3
Atom  71H    basis set group =>   3
Atom  72H    basis set group =>   3
Atom  73H    basis set group =>   3
Atom  74H    basis set group =>   3
Atom  75H    basis set group =>   3
Atom  76H    basis set group =>   3
Atom  77H    basis set group =>   3
Atom  78H    basis set group =>   3
Atom  79H    basis set group =>   3
Atom  80H    basis set group =>   3
Atom  81H    basis set group =>   3
Atom  82H    basis set group =>   3
Atom  83H    basis set group =>   3
Atom  84H    basis set group =>   3
Atom  85H    basis set group =>   3
Atom  86H    basis set group =>   3
Atom  87H    basis set group =>   3
Atom  88H    basis set group =>   3
Atom  89H    basis set group =>   3


           ************************************************************
           *        Program running with 16 parallel MPI-processes    *
           *              working on a common directory               *
           ************************************************************
------------------------------------------------------------------------------
                           ORCA GTO INTEGRAL CALCULATION
------------------------------------------------------------------------------
------------------------------------------------------------------------------
                   ___                                                        
                  /   \      - P O W E R E D   B Y -                         
                 /     \                                                     
                 |  |  |   _    _      __       _____    __    __             
                 |  |  |  | |  | |    /  \     |  _  \  |  |  /  |          
                  \  \/   | |  | |   /    \    | | | |  |  | /  /          
                 / \  \   | |__| |  /  /\  \   | |_| |  |  |/  /          
                |  |  |   |  __  | /  /__\  \  |    /   |      \           
                |  |  |   | |  | | |   __   |  |    \   |  |\   \          
                \     /   | |  | | |  |  |  |  | |\  \  |  | \   \       
                 \___/    |_|  |_| |__|  |__|  |_| \__\ |__|  \__/        
                                                                              
                      - O R C A' S   B I G   F R I E N D -                    
                                      &                                       
                       - I N T E G R A L  F E E D E R -                       
                                                                              
 v1 FN, 2020, v2 2021                                                         
------------------------------------------------------------------------------


Reading SHARK input file /scratch/allen/tmpyp4_amber_gaff2/conf1/conf1/Conf122.orca.SHARKINP.tmp ... ok
----------------------
SHARK INTEGRAL PACKAGE
----------------------

Number of atoms                             ...     90
Number of basis functions                   ...   1230
Number of shells                            ...    738
Maximum angular momentum                    ...      2
Integral batch strategy                     ... SHARK/LIBINT Hybrid
RI-J (if used) integral strategy            ... SPLIT-RIJ (Revised 2003 algorithm where possible)
Printlevel                                  ...      1
Contraction scheme used                     ... PARTIAL GENERAL contraction
Coulomb Range Separation                    ... NOT USED
Exchange Range Separation                   ... NOT USED
Finite Nucleus Model                        ... NOT USED
Auxiliary Coulomb fitting basis             ... NOT available
Auxiliary J/K fitting basis                 ... NOT available
Auxiliary Correlation fitting basis         ... NOT available
Auxiliary 'external' fitting basis          ... NOT available
Integral threshold                          ...     2.500000e-11
Primitive cut-off                           ...     2.500000e-12
Primitive pair pre-selection threshold      ...     2.500000e-12

Calculating pre-screening integrals         ... done (  0.1 sec) Dimension = 738
Calculating pre-screening integrals (ORCA)  ... done (  0.3 sec) Dimension = 426
Organizing shell pair data                  ... done (  0.5 sec)
Shell pair information
Total number of shell pairs                 ...    272691
Shell pairs after pre-screening             ...     71581
Total number of primitive shell pairs       ...    422091
Primitive shell pairs kept                  ...     92329
          la=0 lb=0:  29404 shell pairs
          la=1 lb=0:  25955 shell pairs
          la=1 lb=1:   4698 shell pairs
          la=2 lb=0:   7871 shell pairs
          la=2 lb=1:   3122 shell pairs
          la=2 lb=2:    531 shell pairs

Calculating one electron integrals          ... done (  0.2 sec)
Calculating Nuclear repulsion               ... done (  0.0 sec) ENN=   6224.783009657456 Eh

SHARK setup successfully completed in   1.7 seconds

Maximum memory used throughout the entire GTOINT-calculation: 98.9 MB


           ************************************************************
           *        Program running with 16 parallel MPI-processes    *
           *              working on a common directory               *
           ************************************************************
-------------------------------------------------------------------------------
                                 ORCA SCF
-------------------------------------------------------------------------------

------------
SCF SETTINGS
------------
Hamiltonian:
 Ab initio Hamiltonian  Method          .... Hartree-Fock(GTOs)


General Settings:
 Integral files         IntName         .... /scratch/allen/tmpyp4_amber_gaff2/conf1/conf1/Conf122.orca
 Hartree-Fock type      HFTyp           .... RHF
 Total Charge           Charge          ....    0
 Multiplicity           Mult            ....    1
 Number of Electrons    NEL             ....  358
 Basis Dimension        Dim             ....  918
 Nuclear Repulsion      ENuc            ....   6224.7830096575 Eh

Convergence Acceleration:
 DIIS                   CNVDIIS         .... on
   Start iteration      DIISMaxIt       ....    12
   Startup error        DIISStart       ....  0.200000
   # of expansion vecs  DIISMaxEq       ....     5
   Bias factor          DIISBfac        ....   1.050
   Max. coefficient     DIISMaxC        ....  10.000
 Trust-Rad. Augm. Hess. CNVTRAH         .... auto
   Auto Start mean grad. ratio tolernc. ....  1.125000
   Auto Start start iteration           ....    20
   Auto Start num. interpolation iter.  ....    10
   Max. Number of Micro iterations      ....    16
   Max. Number of Macro iterations      .... Maxiter - #DIIS iter
   Number of Davidson start vectors     ....     2
   Converg. threshold I  (grad. norm)   ....   1.000e-05
   Converg. threshold II (energy diff.) ....   1.000e-08
   Grad. Scal. Fac. for Micro threshold ....   0.100
   Minimum threshold for Micro iter.    ....   0.010
   NR start threshold (gradient norm)   ....   0.001
   Initial trust radius                 ....   0.400
   Minimum AH scaling param. (alpha)    ....   1.000
   Maximum AH scaling param. (alpha)    .... 1000.000
   Orbital update algorithm             .... Taylor
   White noise on init. David. guess    .... on
   Maximum white noise                  ....   0.010
   Quad. conv. algorithm                .... NR
 SOSCF                  CNVSOSCF        .... on
   Start iteration      SOSCFMaxIt      ....   150
   Startup grad/error   SOSCFStart      ....  0.003300
 Level Shifting         CNVShift        .... on
   Level shift para.    LevelShift      ....    0.2500
   Turn off err/grad.   ShiftErr        ....    0.0010
 Zerner damping         CNVZerner       .... off
 Static damping         CNVDamp         .... on
   Fraction old density DampFac         ....    0.7000
   Max. Damping (<1)    DampMax         ....    0.9800
   Min. Damping (>=0)   DampMin         ....    0.0000
   Turn off err/grad.   DampErr         ....    0.1000
 Fernandez-Rico         CNVRico         .... off

SCF Procedure:
 Maximum # iterations   MaxIter         ....   125
 SCF integral mode      SCFMode         .... Direct
   Integral package                     .... SHARK and LIBINT hybrid scheme
 Reset frequency        DirectResetFreq ....    20
 Integral Threshold     Thresh          ....  2.500e-11 Eh
 Primitive CutOff       TCut            ....  2.500e-12 Eh

Convergence Tolerance:
 Convergence Check Mode ConvCheckMode   .... Total+1el-Energy
 Convergence forced     ConvForced      .... 1
 Energy Change          TolE            ....  1.000e-08 Eh
 1-El. energy change                    ....  1.000e-05 Eh
 Orbital Gradient       TolG            ....  1.000e-05
 Orbital Rotation angle TolX            ....  1.000e-05
 DIIS Error             TolErr          ....  5.000e-07


Diagonalization of the overlap matrix:
Smallest eigenvalue                        ... 2.255e-04
Time for diagonalization                   ...    0.406 sec
Threshold for overlap eigenvalues          ... 1.000e-08
Number of eigenvalues below threshold      ... 0
Time for construction of square roots      ...    0.194 sec
Total time needed                          ...    0.605 sec

Time for model grid setup =    1.022 sec

------------------------------
INITIAL GUESS: MODEL POTENTIAL
------------------------------
Loading Hartree-Fock densities                     ... done
Calculating cut-offs                               ... done
Initializing the effective Hamiltonian             ... done
Setting up the integral package (SHARK)            ... done
Starting the Coulomb interaction                   ... done (   1.1 sec)
Reading the grid                                   ... done
Mapping shells                                     ... done
Starting the XC term evaluation                    ... done (   0.2 sec)
Transforming the Hamiltonian                       ... done (   0.2 sec)
Diagonalizing the Hamiltonian                      ... done (   0.3 sec)
Back transforming the eigenvectors                 ... done (   0.1 sec)
Now organizing SCF variables                       ... done
                      ------------------
                      INITIAL GUESS DONE (   3.0 sec)
                      ------------------
--------------
SCF ITERATIONS
--------------
ITER       Energy         Delta-E        Max-DP      RMS-DP      [F,P]     Damp
               ***  Starting incremental Fock matrix formation  ***
  0  -2121.6743913604   0.000000000000 0.06902387  0.00120871  0.2329790 0.7000
  1  -2122.3396955555  -0.665304195109 0.05238161  0.00098030  0.1441569 0.7000
                               ***Turning on DIIS***
  2  -2122.7528172921  -0.413121736592 0.11608027  0.00222027  0.0802588 0.0000
  3  -2117.7334655011   5.019351791041 0.03040479  0.00068148  0.0442640 0.0000
  4  -2123.4152101756  -5.681744674552 0.00876345  0.00022812  0.0070020 0.0000
  5  -2123.5945707074  -0.179360531791 0.00506273  0.00013502  0.0049043 0.0000
  6  -2123.5768150010   0.017755706443 0.00330780  0.00008789  0.0019125 0.0000
  7  -2123.6813402219  -0.104525220977 0.00278756  0.00006970  0.0014882 0.0000
  8  -2123.7004074544  -0.019067232479 0.00279126  0.00006587  0.0013840 0.0000
  9  -2123.6642623054   0.036145149006 0.00226356  0.00004515  0.0010864 0.0000
 10  -2123.6789991061  -0.014736800722 0.00473597  0.00008910  0.0008241 0.0000
                      *** Initiating the SOSCF procedure ***
                           *** Shutting down DIIS ***
                      *** Re-Reading the Fockian *** 
                      *** Removing any level shift *** 
ITER      Energy       Delta-E        Grad      Rot      Max-DP    RMS-DP
 11  -2123.56023281   0.1187663004  0.000325  0.000325  0.000295  0.000007
               *** Restarting incremental Fock matrix formation ***
 12  -2123.62557934  -0.0653465377  0.000927  0.006291  0.001048  0.000026
 13  -2123.62564082  -0.0000614777  0.000967  0.024084  0.004227  0.000082
 14  -2123.62571027  -0.0000694468  0.000439  0.002582  0.000478  0.000012
 15  -2123.62572046  -0.0000101926  0.000114  0.001417  0.000373  0.000007
 16  -2123.62572342  -0.0000029547  0.000090  0.002271  0.000571  0.000010
 17  -2123.62572563  -0.0000022186  0.000107  0.002343  0.000449  0.000007
 18  -2123.62572659  -0.0000009566  0.000060  0.001475  0.000291  0.000006
 19  -2123.62572735  -0.0000007573  0.000056  0.000934  0.000171  0.000003
 20  -2123.62572767  -0.0000003207  0.000025  0.000414  0.000081  0.000002
 21  -2123.62572776  -0.0000000889  0.000019  0.000376  0.000074  0.000002
 22  -2123.62572782  -0.0000000633  0.000016  0.000379  0.000067  0.000001
 23  -2123.62572787  -0.0000000470  0.000015  0.000175  0.000057  0.000001
 24  -2123.62572789  -0.0000000246  0.000005  0.000081  0.000024  0.000000
 25  -2123.62572790  -0.0000000113  0.000003  0.000100  0.000019  0.000000
 26  -2123.62572791  -0.0000000098  0.000003  0.000069  0.000014  0.000000
                  ***Gradient check signals convergence***
              ***Rediagonalizing the Fockian in SOSCF/NRSCF***

               *****************************************************
               *                     SUCCESS                       *
               *           SCF CONVERGED AFTER  27 CYCLES          *
               *****************************************************


----------------
TOTAL SCF ENERGY
----------------

Total Energy       :        -2123.62572791 Eh          -57786.79388 eV

Components:
Nuclear Repulsion  :         6224.78300966 Eh          169384.95706 eV
Electronic Energy  :        -8348.40873757 Eh         -227171.75094 eV
One Electron Energy:       -15290.74800570 Eh         -416082.40646 eV
Two Electron Energy:         6942.33926813 Eh          188910.65552 eV

Virial components:
Potential Energy   :        -4245.61864048 Eh         -115529.15660 eV
Kinetic Energy     :         2121.99291257 Eh           57742.36272 eV
Virial Ratio       :            2.00076947


---------------
SCF CONVERGENCE
---------------

  Last Energy change         ...    2.1755e-09  Tolerance :   1.0000e-08
  Last MAX-Density change    ...    1.6690e-05  Tolerance :   1.0000e-07
  Last RMS-Density change    ...    2.9381e-07  Tolerance :   5.0000e-09
  Last Orbital Gradient      ...    2.1126e-06  Tolerance :   1.0000e-05
  Last Orbital Rotation      ...    9.1033e-05  Tolerance :   1.0000e-05

             **** THE GBW FILE WAS UPDATED (/scratch/allen/tmpyp4_amber_gaff2/conf1/conf1/Conf122.orca.gbw) ****
             **** DENSITY /scratch/allen/tmpyp4_amber_gaff2/conf1/conf1/Conf122.orca.scfp WAS UPDATED ****
             **** ENERGY FILE WAS UPDATED (/scratch/allen/tmpyp4_amber_gaff2/conf1/conf1/Conf122.orca.en.tmp) ****
             **** THE GBW FILE WAS UPDATED (/scratch/allen/tmpyp4_amber_gaff2/conf1/conf1/Conf122.orca.gbw) ****
             **** DENSITY /scratch/allen/tmpyp4_amber_gaff2/conf1/conf1/Conf122.orca.scfp WAS UPDATED ****
----------------
ORBITAL ENERGIES
----------------

  NO   OCC          E(Eh)            E(eV) 
   0   2.0000     -15.640003      -425.5861 
   1   2.0000     -15.639666      -425.5769 
   2   2.0000     -15.628409      -425.2706 
   3   2.0000     -15.623679      -425.1419 
   4   2.0000     -15.518948      -422.2920 
   5   2.0000     -15.515554      -422.1997 
   6   2.0000     -15.444257      -420.2596 
   7   2.0000     -15.443829      -420.2479 
   8   2.0000     -11.303004      -307.5704 
   9   2.0000     -11.302972      -307.5695 
  10   2.0000     -11.296418      -307.3911 
  11   2.0000     -11.295802      -307.3744 
  12   2.0000     -11.295372      -307.3627 
  13   2.0000     -11.294464      -307.3380 
  14   2.0000     -11.293673      -307.3165 
  15   2.0000     -11.293448      -307.3103 
  16   2.0000     -11.285567      -307.0959 
  17   2.0000     -11.285186      -307.0855 
  18   2.0000     -11.282706      -307.0180 
  19   2.0000     -11.281946      -306.9974 
  20   2.0000     -11.244026      -305.9655 
  21   2.0000     -11.243336      -305.9467 
  22   2.0000     -11.235006      -305.7201 
  23   2.0000     -11.234726      -305.7124 
  24   2.0000     -11.234361      -305.7025 
  25   2.0000     -11.233854      -305.6887 
  26   2.0000     -11.232760      -305.6590 
  27   2.0000     -11.229869      -305.5803 
  28   2.0000     -11.226354      -305.4846 
  29   2.0000     -11.226237      -305.4814 
  30   2.0000     -11.223289      -305.4012 
  31   2.0000     -11.222750      -305.3866 
  32   2.0000     -11.200749      -304.7879 
  33   2.0000     -11.200265      -304.7747 
  34   2.0000     -11.194058      -304.6058 
  35   2.0000     -11.193700      -304.5961 
  36   2.0000     -11.172488      -304.0189 
  37   2.0000     -11.172239      -304.0121 
  38   2.0000     -11.171088      -303.9808 
  39   2.0000     -11.170841      -303.9740 
  40   2.0000     -11.170491      -303.9645 
  41   2.0000     -11.170070      -303.9531 
  42   2.0000     -11.166572      -303.8579 
  43   2.0000     -11.166242      -303.8489 
  44   2.0000     -11.160472      -303.6919 
  45   2.0000     -11.159063      -303.6536 
  46   2.0000     -11.152630      -303.4785 
  47   2.0000     -11.151187      -303.4392 
  48   2.0000     -11.142873      -303.2130 
  49   2.0000     -11.142203      -303.1948 
  50   2.0000     -11.140837      -303.1576 
  51   2.0000     -11.139811      -303.1297 
  52   2.0000      -1.326325       -36.0911 
  53   2.0000      -1.326112       -36.0853 
  54   2.0000      -1.316305       -35.8185 
  55   2.0000      -1.312732       -35.7213 
  56   2.0000      -1.217861       -33.1397 
  57   2.0000      -1.212514       -32.9942 
  58   2.0000      -1.161386       -31.6029 
  59   2.0000      -1.156945       -31.4821 
  60   2.0000      -1.115688       -30.3594 
  61   2.0000      -1.113165       -30.2908 
  62   2.0000      -1.105412       -30.0798 
  63   2.0000      -1.102391       -29.9976 
  64   2.0000      -1.050123       -28.5753 
  65   2.0000      -1.050098       -28.5746 
  66   2.0000      -1.040877       -28.3237 
  67   2.0000      -1.037998       -28.2454 
  68   2.0000      -1.026602       -27.9353 
  69   2.0000      -1.009775       -27.4774 
  70   2.0000      -1.009221       -27.4623 
  71   2.0000      -0.998077       -27.1591 
  72   2.0000      -0.982089       -26.7240 
  73   2.0000      -0.975787       -26.5525 
  74   2.0000      -0.968792       -26.3622 
  75   2.0000      -0.960277       -26.1305 
  76   2.0000      -0.952481       -25.9183 
  77   2.0000      -0.942119       -25.6363 
  78   2.0000      -0.940645       -25.5963 
  79   2.0000      -0.923375       -25.1263 
  80   2.0000      -0.892807       -24.2945 
  81   2.0000      -0.877846       -23.8874 
  82   2.0000      -0.875871       -23.8337 
  83   2.0000      -0.868417       -23.6308 
  84   2.0000      -0.865298       -23.5459 
  85   2.0000      -0.857043       -23.3213 
  86   2.0000      -0.847112       -23.0511 
  87   2.0000      -0.844969       -22.9928 
  88   2.0000      -0.821745       -22.3608 
  89   2.0000      -0.798489       -21.7280 
  90   2.0000      -0.797769       -21.7084 
  91   2.0000      -0.739224       -20.1153 
  92   2.0000      -0.728974       -19.8364 
  93   2.0000      -0.728845       -19.8329 
  94   2.0000      -0.720625       -19.6092 
  95   2.0000      -0.720106       -19.5951 
  96   2.0000      -0.712055       -19.3760 
  97   2.0000      -0.709654       -19.3107 
  98   2.0000      -0.698397       -19.0043 
  99   2.0000      -0.692395       -18.8410 
 100   2.0000      -0.683769       -18.6063 
 101   2.0000      -0.680186       -18.5088 
 102   2.0000      -0.679340       -18.4858 
 103   2.0000      -0.673390       -18.3239 
 104   2.0000      -0.667772       -18.1710 
 105   2.0000      -0.667503       -18.1637 
 106   2.0000      -0.663260       -18.0482 
 107   2.0000      -0.658367       -17.9151 
 108   2.0000      -0.658187       -17.9102 
 109   2.0000      -0.653861       -17.7925 
 110   2.0000      -0.652992       -17.7688 
 111   2.0000      -0.650643       -17.7049 
 112   2.0000      -0.647674       -17.6241 
 113   2.0000      -0.645517       -17.5654 
 114   2.0000      -0.634670       -17.2702 
 115   2.0000      -0.622937       -16.9510 
 116   2.0000      -0.616892       -16.7865 
 117   2.0000      -0.616737       -16.7823 
 118   2.0000      -0.610297       -16.6070 
 119   2.0000      -0.608506       -16.5583 
 120   2.0000      -0.608077       -16.5466 
 121   2.0000      -0.605399       -16.4737 
 122   2.0000      -0.603316       -16.4171 
 123   2.0000      -0.593889       -16.1605 
 124   2.0000      -0.585804       -15.9405 
 125   2.0000      -0.585241       -15.9252 
 126   2.0000      -0.578111       -15.7312 
 127   2.0000      -0.575086       -15.6489 
 128   2.0000      -0.570923       -15.5356 
 129   2.0000      -0.561786       -15.2870 
 130   2.0000      -0.553764       -15.0687 
 131   2.0000      -0.542504       -14.7623 
 132   2.0000      -0.540932       -14.7195 
 133   2.0000      -0.535078       -14.5602 
 134   2.0000      -0.533761       -14.5244 
 135   2.0000      -0.531136       -14.4530 
 136   2.0000      -0.523966       -14.2578 
 137   2.0000      -0.523516       -14.2456 
 138   2.0000      -0.517093       -14.0708 
 139   2.0000      -0.516459       -14.0536 
 140   2.0000      -0.509149       -13.8546 
 141   2.0000      -0.506076       -13.7710 
 142   2.0000      -0.504094       -13.7171 
 143   2.0000      -0.503602       -13.7037 
 144   2.0000      -0.499012       -13.5788 
 145   2.0000      -0.497814       -13.5462 
 146   2.0000      -0.496553       -13.5119 
 147   2.0000      -0.493362       -13.4251 
 148   2.0000      -0.491028       -13.3616 
 149   2.0000      -0.468819       -12.7572 
 150   2.0000      -0.460144       -12.5211 
 151   2.0000      -0.450980       -12.2718 
 152   2.0000      -0.448174       -12.1954 
 153   2.0000      -0.445913       -12.1339 
 154   2.0000      -0.444989       -12.1088 
 155   2.0000      -0.439566       -11.9612 
 156   2.0000      -0.434946       -11.8355 
 157   2.0000      -0.432068       -11.7572 
 158   2.0000      -0.390536       -10.6270 
 159   2.0000      -0.381037       -10.3686 
 160   2.0000      -0.380040       -10.3414 
 161   2.0000      -0.373082       -10.1521 
 162   2.0000      -0.360524        -9.8104 
 163   2.0000      -0.360312        -9.8046 
 164   2.0000      -0.352570        -9.5939 
 165   2.0000      -0.350025        -9.5247 
 166   2.0000      -0.337301        -9.1784 
 167   2.0000      -0.332051        -9.0356 
 168   2.0000      -0.329303        -8.9608 
 169   2.0000      -0.300238        -8.1699 
 170   2.0000      -0.295390        -8.0380 
 171   2.0000      -0.289091        -7.8666 
 172   2.0000      -0.287353        -7.8193 
 173   2.0000      -0.254640        -6.9291 
 174   2.0000      -0.248000        -6.7484 
 175   2.0000      -0.187955        -5.1145 
 176   2.0000      -0.177781        -4.8377 
 177   2.0000      -0.066199        -1.8014 
 178   2.0000      -0.054624        -1.4864 
 179   0.0000       0.031004         0.8437 
 180   0.0000       0.070605         1.9213 
 181   0.0000       0.093090         2.5331 
 182   0.0000       0.096924         2.6374 
 183   0.0000       0.133552         3.6341 
 184   0.0000       0.133862         3.6426 
 185   0.0000       0.142075         3.8661 
 186   0.0000       0.145068         3.9475 
 187   0.0000       0.161228         4.3872 
 188   0.0000       0.162046         4.4095 
 189   0.0000       0.162209         4.4139 
 190   0.0000       0.168051         4.5729 
 191   0.0000       0.169982         4.6254 
 192   0.0000       0.201482         5.4826 
 193   0.0000       0.201972         5.4959 
 194   0.0000       0.205176         5.5831 
 195   0.0000       0.205535         5.5929 
 196   0.0000       0.208163         5.6644 
 197   0.0000       0.209660         5.7051 
 198   0.0000       0.211316         5.7502 
 199   0.0000       0.213906         5.8207 
 200   0.0000       0.235562         6.4100 
 201   0.0000       0.237567         6.4645 
 202   0.0000       0.242231         6.5914 
 203   0.0000       0.244275         6.6471 
 204   0.0000       0.253724         6.9042 
 205   0.0000       0.254106         6.9146 
 206   0.0000       0.258460         7.0331 
 207   0.0000       0.259569         7.0632 
 208   0.0000       0.261259         7.1092 
 209   0.0000       0.264349         7.1933 
 210   0.0000       0.267336         7.2746 
 211   0.0000       0.269525         7.3342 
 212   0.0000       0.273382         7.4391 
 213   0.0000       0.275963         7.5093 
 214   0.0000       0.278895         7.5891 
 215   0.0000       0.279593         7.6081 
 216   0.0000       0.281559         7.6616 
 217   0.0000       0.282995         7.7007 
 218   0.0000       0.284005         7.7282 
 219   0.0000       0.290085         7.8936 
 220   0.0000       0.291501         7.9322 
 221   0.0000       0.292483         7.9589 
 222   0.0000       0.292911         7.9705 
 223   0.0000       0.294894         8.0245 
 224   0.0000       0.299496         8.1497 
 225   0.0000       0.302113         8.2209 
 226   0.0000       0.302781         8.2391 
 227   0.0000       0.303523         8.2593 
 228   0.0000       0.305020         8.3000 
 229   0.0000       0.307300         8.3620 
 230   0.0000       0.313876         8.5410 
 231   0.0000       0.318273         8.6606 
 232   0.0000       0.326289         8.8788 
 233   0.0000       0.326669         8.8891 
 234   0.0000       0.333076         9.0635 
 235   0.0000       0.334291         9.0965 
 236   0.0000       0.356201         9.6927 
 237   0.0000       0.387141        10.5347 
 238   0.0000       0.395495        10.7620 
 239   0.0000       0.401021        10.9123 
 240   0.0000       0.406034        11.0487 
 241   0.0000       0.408690        11.1210 
 242   0.0000       0.421874        11.4798 
 243   0.0000       0.424016        11.5381 
 244   0.0000       0.432529        11.7697 
 245   0.0000       0.432677        11.7737 
 246   0.0000       0.437250        11.8982 
 247   0.0000       0.437620        11.9082 
 248   0.0000       0.440307        11.9813 
 249   0.0000       0.443904        12.0792 
 250   0.0000       0.444600        12.0982 
 251   0.0000       0.447669        12.1817 
 252   0.0000       0.455239        12.3877 
 253   0.0000       0.468266        12.7422 
 254   0.0000       0.471877        12.8404 
 255   0.0000       0.475146        12.9294 
 256   0.0000       0.480264        13.0687 
 257   0.0000       0.487057        13.2535 
 258   0.0000       0.489215        13.3122 
 259   0.0000       0.497343        13.5334 
 260   0.0000       0.502172        13.6648 
 261   0.0000       0.502673        13.6784 
 262   0.0000       0.506708        13.7882 
 263   0.0000       0.509101        13.8533 
 264   0.0000       0.512179        13.9371 
 265   0.0000       0.515092        14.0164 
 266   0.0000       0.516104        14.0439 
 267   0.0000       0.521593        14.1933 
 268   0.0000       0.536603        14.6017 
 269   0.0000       0.538019        14.6402 
 270   0.0000       0.540500        14.7078 
 271   0.0000       0.545727        14.8500 
 272   0.0000       0.548004        14.9119 
 273   0.0000       0.553187        15.0530 
 274   0.0000       0.559806        15.2331 
 275   0.0000       0.562630        15.3099 
 276   0.0000       0.574236        15.6258 
 277   0.0000       0.576018        15.6742 
 278   0.0000       0.582283        15.8447 
 279   0.0000       0.584786        15.9128 
 280   0.0000       0.589200        16.0329 
 281   0.0000       0.591572        16.0975 
 282   0.0000       0.594644        16.1811 
 283   0.0000       0.596714        16.2374 
 284   0.0000       0.599723        16.3193 
 285   0.0000       0.602973        16.4077 
 286   0.0000       0.604151        16.4398 
 287   0.0000       0.608569        16.5600 
 288   0.0000       0.610433        16.6107 
 289   0.0000       0.614168        16.7123 
 290   0.0000       0.616561        16.7775 
 291   0.0000       0.627633        17.0788 
 292   0.0000       0.639736        17.4081 
 293   0.0000       0.641439        17.4545 
 294   0.0000       0.642947        17.4955 
 295   0.0000       0.649999        17.6874 
 296   0.0000       0.657963        17.9041 
 297   0.0000       0.658784        17.9264 
 298   0.0000       0.661396        17.9975 
 299   0.0000       0.664084        18.0706 
 300   0.0000       0.671088        18.2612 
 301   0.0000       0.673353        18.3229 
 302   0.0000       0.677473        18.4350 
 303   0.0000       0.680498        18.5173 
 304   0.0000       0.682729        18.5780 
 305   0.0000       0.684922        18.6377 
 306   0.0000       0.689763        18.7694 
 307   0.0000       0.696616        18.9559 
 308   0.0000       0.697498        18.9799 
 309   0.0000       0.702938        19.1279 
 310   0.0000       0.704092        19.1593 
 311   0.0000       0.706098        19.2139 
 312   0.0000       0.708114        19.2688 
 313   0.0000       0.708666        19.2838 
 314   0.0000       0.709795        19.3145 
 315   0.0000       0.714678        19.4474 
 316   0.0000       0.716352        19.4929 
 317   0.0000       0.717907        19.5352 
 318   0.0000       0.719450        19.5772 
 319   0.0000       0.722327        19.6555 
 320   0.0000       0.725493        19.7417 
 321   0.0000       0.726894        19.7798 
 322   0.0000       0.730195        19.8696 
 323   0.0000       0.734672        19.9914 
 324   0.0000       0.739488        20.1225 
 325   0.0000       0.741821        20.1860 
 326   0.0000       0.744776        20.2664 
 327   0.0000       0.744988        20.2721 
 328   0.0000       0.747626        20.3439 
 329   0.0000       0.749823        20.4037 
 330   0.0000       0.750773        20.4296 
 331   0.0000       0.753495        20.5036 
 332   0.0000       0.758376        20.6365 
 333   0.0000       0.763339        20.7715 
 334   0.0000       0.764629        20.8066 
 335   0.0000       0.767844        20.8941 
 336   0.0000       0.773671        21.0527 
 337   0.0000       0.776777        21.1372 
 338   0.0000       0.784873        21.3575 
 339   0.0000       0.788625        21.4596 
 340   0.0000       0.792299        21.5595 
 341   0.0000       0.793731        21.5985 
 342   0.0000       0.794351        21.6154 
 343   0.0000       0.799257        21.7489 
 344   0.0000       0.803778        21.8719 
 345   0.0000       0.807879        21.9835 
 346   0.0000       0.808992        22.0138 
 347   0.0000       0.811980        22.0951 
 348   0.0000       0.814354        22.1597 
 349   0.0000       0.818240        22.2654 
 350   0.0000       0.818595        22.2751 
 351   0.0000       0.823004        22.3951 
 352   0.0000       0.826860        22.5000 
 353   0.0000       0.828489        22.5443 
 354   0.0000       0.831883        22.6367 
 355   0.0000       0.832510        22.6537 
 356   0.0000       0.833289        22.6749 
 357   0.0000       0.834664        22.7124 
 358   0.0000       0.837660        22.7939 
 359   0.0000       0.839056        22.8319 
 360   0.0000       0.840536        22.8721 
 361   0.0000       0.842347        22.9214 
 362   0.0000       0.844336        22.9755 
 363   0.0000       0.844932        22.9918 
 364   0.0000       0.846024        23.0215 
 365   0.0000       0.847416        23.0594 
 366   0.0000       0.849951        23.1283 
 367   0.0000       0.852105        23.1870 
 368   0.0000       0.856075        23.2950 
 369   0.0000       0.860150        23.4059 
 370   0.0000       0.865108        23.5408 
 371   0.0000       0.867611        23.6089 
 372   0.0000       0.870778        23.6951 
 373   0.0000       0.876151        23.8413 
 374   0.0000       0.879144        23.9227 
 375   0.0000       0.881962        23.9994 
 376   0.0000       0.885249        24.0888 
 377   0.0000       0.890722        24.2378 
 378   0.0000       0.895796        24.3759 
 379   0.0000       0.896386        24.3919 
 380   0.0000       0.898010        24.4361 
 381   0.0000       0.901168        24.5220 
 382   0.0000       0.903193        24.5771 
 383   0.0000       0.903885        24.5960 
 384   0.0000       0.906712        24.6729 
 385   0.0000       0.907006        24.6809 
 386   0.0000       0.909192        24.7404 
 387   0.0000       0.910447        24.7745 
 388   0.0000       0.911251        24.7964 
 389   0.0000       0.916613        24.9423 
 390   0.0000       0.917944        24.9785 
 391   0.0000       0.919807        25.0292 
 392   0.0000       0.922416        25.1002 
 393   0.0000       0.923806        25.1380 
 394   0.0000       0.924864        25.1668 
 395   0.0000       0.931983        25.3605 
 396   0.0000       0.932711        25.3804 
 397   0.0000       0.937624        25.5140 
 398   0.0000       0.938568        25.5397 
 399   0.0000       0.941806        25.6279 
 400   0.0000       0.942189        25.6383 
 401   0.0000       0.945248        25.7215 
 402   0.0000       0.949165        25.8281 
 403   0.0000       0.950185        25.8559 
 404   0.0000       0.952208        25.9109 
 405   0.0000       0.956403        26.0251 
 406   0.0000       0.957064        26.0430 
 407   0.0000       0.964112        26.2348 
 408   0.0000       0.967641        26.3308 
 409   0.0000       0.970476        26.4080 
 410   0.0000       0.972001        26.4495 
 411   0.0000       0.976656        26.5762 
 412   0.0000       0.981892        26.7186 
 413   0.0000       0.985886        26.8273 
 414   0.0000       0.988926        26.9101 
 415   0.0000       0.990102        26.9421 
 416   0.0000       0.997980        27.1564 
 417   0.0000       1.001596        27.2548 
 418   0.0000       1.008377        27.4393 
 419   0.0000       1.013525        27.5794 
 420   0.0000       1.024601        27.8808 
 421   0.0000       1.025167        27.8962 
 422   0.0000       1.032864        28.1057 
 423   0.0000       1.039729        28.2925 
 424   0.0000       1.045766        28.4567 
 425   0.0000       1.049432        28.5565 
 426   0.0000       1.052252        28.6332 
 427   0.0000       1.062891        28.9227 
 428   0.0000       1.065073        28.9821 
 429   0.0000       1.074555        29.2401 
 430   0.0000       1.078038        29.3349 
 431   0.0000       1.080169        29.3929 
 432   0.0000       1.086899        29.5760 
 433   0.0000       1.089220        29.6392 
 434   0.0000       1.092147        29.7188 
 435   0.0000       1.104521        30.0555 
 436   0.0000       1.107947        30.1488 
 437   0.0000       1.111110        30.2348 
 438   0.0000       1.115734        30.3607 
 439   0.0000       1.118891        30.4466 
 440   0.0000       1.120455        30.4891 
 441   0.0000       1.125331        30.6218 
 442   0.0000       1.130988        30.7758 
 443   0.0000       1.132559        30.8185 
 444   0.0000       1.134483        30.8708 
 445   0.0000       1.135047        30.8862 
 446   0.0000       1.136459        30.9246 
 447   0.0000       1.138886        30.9907 
 448   0.0000       1.145131        31.1606 
 449   0.0000       1.145723        31.1767 
 450   0.0000       1.149876        31.2897 
 451   0.0000       1.152460        31.3600 
 452   0.0000       1.153865        31.3983 
 453   0.0000       1.157158        31.4879 
 454   0.0000       1.159827        31.5605 
 455   0.0000       1.165501        31.7149 
 456   0.0000       1.176093        32.0031 
 457   0.0000       1.177844        32.0508 
 458   0.0000       1.182403        32.1748 
 459   0.0000       1.184449        32.2305 
 460   0.0000       1.186589        32.2887 
 461   0.0000       1.191130        32.4123 
 462   0.0000       1.198385        32.6097 
 463   0.0000       1.205341        32.7990 
 464   0.0000       1.206942        32.8426 
 465   0.0000       1.209314        32.9071 
 466   0.0000       1.215750        33.0822 
 467   0.0000       1.215773        33.0829 
 468   0.0000       1.222061        33.2540 
 469   0.0000       1.228524        33.4298 
 470   0.0000       1.234853        33.6021 
 471   0.0000       1.235250        33.6128 
 472   0.0000       1.236909        33.6580 
 473   0.0000       1.241704        33.7885 
 474   0.0000       1.243220        33.8297 
 475   0.0000       1.246030        33.9062 
 476   0.0000       1.250493        34.0276 
 477   0.0000       1.252822        34.0910 
 478   0.0000       1.255540        34.1650 
 479   0.0000       1.257162        34.2091 
 480   0.0000       1.258694        34.2508 
 481   0.0000       1.263351        34.3775 
 482   0.0000       1.268602        34.5204 
 483   0.0000       1.269009        34.5315 
 484   0.0000       1.276572        34.7373 
 485   0.0000       1.278083        34.7784 
 486   0.0000       1.283255        34.9191 
 487   0.0000       1.285842        34.9895 
 488   0.0000       1.289821        35.0978 
 489   0.0000       1.289969        35.1018 
 490   0.0000       1.293025        35.1850 
 491   0.0000       1.298729        35.3402 
 492   0.0000       1.304380        35.4940 
 493   0.0000       1.309113        35.6228 
 494   0.0000       1.313845        35.7515 
 495   0.0000       1.316967        35.8365 
 496   0.0000       1.318329        35.8736 
 497   0.0000       1.323216        36.0065 
 498   0.0000       1.326152        36.0864 
 499   0.0000       1.328978        36.1633 
 500   0.0000       1.334157        36.3043 
 501   0.0000       1.337211        36.3874 
 502   0.0000       1.341020        36.4910 
 503   0.0000       1.343836        36.5676 
 504   0.0000       1.350565        36.7507 
 505   0.0000       1.351930        36.7879 
 506   0.0000       1.354288        36.8520 
 507   0.0000       1.355683        36.8900 
 508   0.0000       1.356293        36.9066 
 509   0.0000       1.360099        37.0102 
 510   0.0000       1.365934        37.1690 
[...]
      pz      :     0.021970  p :     0.079570
      px      :     0.043302
      py      :     0.014298
 77 H s       :     0.889121  s :     0.889121
      pz      :     0.047627  p :     0.078888
      px      :     0.015012
      py      :     0.016249
 78 H s       :     0.889542  s :     0.889542
      pz      :     0.025701  p :     0.078824
      px      :     0.020557
      py      :     0.032565
 79 H s       :     0.908944  s :     0.908944
      pz      :     0.022098  p :     0.086712
      px      :     0.021769
      py      :     0.042845
 80 H s       :     0.870856  s :     0.870856
      pz      :     0.038868  p :     0.084119
      px      :     0.029932
      py      :     0.015319
 81 H s       :     0.887208  s :     0.887208
      pz      :     0.037755  p :     0.083862
      px      :     0.016140
      py      :     0.029967
 82 H s       :     0.915311  s :     0.915311
      pz      :     0.022138  p :     0.086859
      px      :     0.031350
      py      :     0.033372
 83 H s       :     0.872755  s :     0.872755
      pz      :     0.039244  p :     0.083978
      px      :     0.015257
      py      :     0.029478
 84 H s       :     0.887206  s :     0.887206
      pz      :     0.035786  p :     0.083726
      px      :     0.031722
      py      :     0.016218
 85 H s       :     0.893763  s :     0.893763
      pz      :     0.022498  p :     0.079728
      px      :     0.014091
      py      :     0.043139
 86 H s       :     0.890780  s :     0.890780
      pz      :     0.024724  p :     0.078859
      px      :     0.032994
      py      :     0.021142
 87 H s       :     0.890160  s :     0.890160
      pz      :     0.047967  p :     0.078705
      px      :     0.015608
      py      :     0.015130
 88 H s       :     0.913939  s :     0.913939
      pz      :     0.022082  p :     0.086962
      px      :     0.042509
      py      :     0.022372
 89 H s       :     0.872094  s :     0.872094
      pz      :     0.037923  p :     0.083914
      px      :     0.030504
      py      :     0.015488


                      *****************************
                      * MAYER POPULATION ANALYSIS *
                      *****************************

  NA   - Mulliken gross atomic population
  ZA   - Total nuclear charge
  QA   - Mulliken gross atomic charge
  VA   - Mayer's total valence
  BVA  - Mayer's bonded valence
  FA   - Mayer's free valence

  ATOM       NA         ZA         QA         VA         BVA        FA
  0 C      5.7938     6.0000     0.2062     3.8293     3.8293     0.0000
  1 N      7.4436     7.0000    -0.4436     3.3640     3.3640     0.0000
  2 C      6.0651     6.0000    -0.0651     3.9180     3.9180    -0.0000
  3 N      7.3378     7.0000    -0.3378     3.4459     3.4459     0.0000
  4 C      6.0747     6.0000    -0.0747     3.9841     3.9841    -0.0000
  5 N      7.5621     7.0000    -0.5621     3.0861     3.0861    -0.0000
  6 C      6.0657     6.0000    -0.0657     3.9962     3.9962     0.0000
  7 N      7.3384     7.0000    -0.3384     3.4400     3.4400     0.0000
  8 C      5.7957     6.0000     0.2043     3.8294     3.8294    -0.0000
  9 N      7.5630     7.0000    -0.5630     3.0839     3.0839    -0.0000
 10 C      5.8851     6.0000     0.1149     3.8961     3.8961     0.0000
 11 N      7.4372     7.0000    -0.4372     3.3855     3.3855     0.0000
 12 C      6.0694     6.0000    -0.0694     3.9172     3.9172    -0.0000
 13 N      7.4387     7.0000    -0.4387     3.3840     3.3840     0.0000
 14 C      5.7653     6.0000     0.2347     3.7921     3.7921    -0.0000
 15 N      7.4408     7.0000    -0.4408     3.3713     3.3713    -0.0000
 16 C      5.7650     6.0000     0.2350     3.7891     3.7891    -0.0000
 17 C      6.0663     6.0000    -0.0663     3.9967     3.9967    -0.0000
 18 C      6.1939     6.0000    -0.1939     3.7506     3.7506    -0.0000
 19 C      5.7749     6.0000     0.2251     3.8791     3.8791     0.0000
 20 C      5.7909     6.0000     0.2091     3.8252     3.8252     0.0000
 21 C      6.0762     6.0000    -0.0762     3.9063     3.9063     0.0000
 22 C      6.0858     6.0000    -0.0858     3.9833     3.9833    -0.0000
 23 C      6.0483     6.0000    -0.0483     3.9900     3.9900     0.0000
 24 C      5.7943     6.0000     0.2057     3.8232     3.8232     0.0000
 25 C      5.8863     6.0000     0.1137     3.8894     3.8894     0.0000
 26 C      6.0734     6.0000    -0.0734     3.9031     3.9031    -0.0000
 27 C      5.7780     6.0000     0.2220     3.8815     3.8815    -0.0000
 28 C      6.0528     6.0000    -0.0528     3.9879     3.9879    -0.0000
 29 C      6.1848     6.0000    -0.1848     3.7355     3.7355    -0.0000
 30 C      5.7636     6.0000     0.2364     3.7930     3.7930     0.0000
 31 C      5.7867     6.0000     0.2133     3.8261     3.8261    -0.0000
 32 C      6.0645     6.0000    -0.0645     3.9184     3.9184    -0.0000
 33 C      6.0792     6.0000    -0.0792     3.9831     3.9831    -0.0000
 34 C      6.0497     6.0000    -0.0497     3.9911     3.9911    -0.0000
 35 C      5.7937     6.0000     0.2063     3.8240     3.8240    -0.0000
 36 C      5.8865     6.0000     0.1135     3.8898     3.8898     0.0000
 37 C      6.0663     6.0000    -0.0663     3.9176     3.9176    -0.0000
 38 C      5.7631     6.0000     0.2369     3.7999     3.7999    -0.0000
 39 C      6.0615     6.0000    -0.0615     3.9903     3.9903    -0.0000
 40 C      6.1882     6.0000    -0.1882     3.7394     3.7394    -0.0000
 41 C      5.7795     6.0000     0.2205     3.8813     3.8813     0.0000
 42 C      5.7974     6.0000     0.2026     3.8275     3.8275    -0.0000
 43 C      6.0738     6.0000    -0.0738     3.9028     3.9028    -0.0000
 44 C      6.0892     6.0000    -0.0892     3.9854     3.9854    -0.0000
 45 C      6.0536     6.0000    -0.0536     3.9926     3.9926    -0.0000
 46 C      5.7963     6.0000     0.2037     3.8259     3.8259    -0.0000
 47 C      5.8844     6.0000     0.1156     3.8939     3.8939    -0.0000
 48 C      6.0743     6.0000    -0.0743     3.9043     3.9043    -0.0000
 49 C      5.7731     6.0000     0.2269     3.8851     3.8851    -0.0000
 50 C      6.0523     6.0000    -0.0523     3.9903     3.9903    -0.0000
 51 C      6.1907     6.0000    -0.1907     3.7371     3.7371     0.0000
 52 H      0.9474     1.0000     0.0526     0.9852     0.9852    -0.0000
 53 H      1.0144     1.0000    -0.0144     0.9991     0.9991     0.0000
 54 H      0.9537     1.0000     0.0463     1.0076     1.0076    -0.0000
 55 H      0.9487     1.0000     0.0513     0.9859     0.9859    -0.0000
 56 H      0.9417     1.0000     0.0583     0.9712     0.9712     0.0000
 57 H      0.9443     1.0000     0.0557     0.9829     0.9829     0.0000
 58 H      0.9450     1.0000     0.0550     0.9860     0.9860    -0.0000
 59 H      1.0117     1.0000    -0.0117     0.9997     0.9997    -0.0000
 60 H      0.9558     1.0000     0.0442     1.0102     1.0102    -0.0000
 61 H      0.8275     1.0000     0.1725     1.0424     1.0424     0.0000
 62 H      0.8268     1.0000     0.1732     1.0435     1.0435    -0.0000
 63 H      0.9428     1.0000     0.0572     0.9854     0.9854     0.0000
 64 H      1.0191     1.0000    -0.0191     0.9955     0.9955     0.0000
 65 H      0.9533     1.0000     0.0467     1.0093     1.0093     0.0000
 66 H      0.9421     1.0000     0.0579     0.9850     0.9850    -0.0000
 67 H      0.9366     1.0000     0.0634     0.9720     0.9720    -0.0000
 68 H      0.9417     1.0000     0.0583     0.9868     0.9868     0.0000
 69 H      0.9410     1.0000     0.0590     0.9830     0.9830     0.0000
 70 H      1.0249     1.0000    -0.0249     0.9938     0.9938     0.0000
 71 H      0.9517     1.0000     0.0483     1.0065     1.0065     0.0000
 72 H      0.9422     1.0000     0.0578     0.9848     0.9848    -0.0000
 73 H      1.0135     1.0000    -0.0135     0.9988     0.9988     0.0000
 74 H      0.9520     1.0000     0.0480     1.0100     1.0100    -0.0000
 75 H      0.9431     1.0000     0.0569     0.9854     0.9854    -0.0000
 76 H      0.9367     1.0000     0.0633     0.9716     0.9716     0.0000
 77 H      0.9409     1.0000     0.0591     0.9851     0.9851     0.0000
 78 H      0.9418     1.0000     0.0582     0.9847     0.9847     0.0000
 79 H      1.0139     1.0000    -0.0139     0.9994     0.9994     0.0000
 80 H      0.9517     1.0000     0.0483     1.0070     1.0070    -0.0000
 81 H      0.9464     1.0000     0.0536     0.9855     0.9855    -0.0000
 82 H      1.0241     1.0000    -0.0241     0.9940     0.9940    -0.0000
 83 H      0.9574     1.0000     0.0426     1.0092     1.0092    -0.0000
 84 H      0.9470     1.0000     0.0530     0.9855     0.9855    -0.0000
 85 H      0.9410     1.0000     0.0590     0.9715     0.9715    -0.0000
 86 H      0.9439     1.0000     0.0561     0.9840     0.9840    -0.0000
 87 H      0.9433     1.0000     0.0567     0.9856     0.9856    -0.0000
 88 H      1.0214     1.0000    -0.0214     0.9946     0.9946    -0.0000
 89 H      0.9548     1.0000     0.0452     1.0067     1.0067    -0.0000

  Mayer bond orders larger than 0.100000
B(  0-C ,  1-N ) :   1.1127 B(  0-C , 17-C ) :   1.6451 B(  0-C , 52-H ) :   0.9692 
B(  1-N ,  8-C ) :   1.1085 B(  1-N , 10-C ) :   0.9646 B(  2-C , 12-C ) :   1.5338 
B(  2-C , 16-C ) :   1.3257 B(  2-C , 53-H ) :   0.9777 B(  3-N , 14-C ) :   1.2044 
B(  3-N , 16-C ) :   1.1949 B(  3-N , 61-H ) :   0.8986 B(  4-C ,  6-C ) :   1.2556 
B(  4-C , 17-C ) :   1.2583 B(  4-C , 18-C ) :   1.2899 B(  5-N , 19-C ) :   1.4233 
B(  5-N , 27-C ) :   1.4025 B(  6-C ,  8-C ) :   1.6477 B(  6-C , 54-H ) :   0.9707 
B(  7-N , 30-C ) :   1.1923 B(  7-N , 38-C ) :   1.2009 B(  7-N , 62-H ) :   0.8981 
B(  8-C , 55-H ) :   0.9702 B(  9-N , 41-C ) :   1.4056 B(  9-N , 49-C ) :   1.4184 
B( 10-C , 56-H ) :   0.9763 B( 10-C , 57-H ) :   0.9825 B( 10-C , 58-H ) :   0.9831 
B( 11-N , 20-C ) :   1.1265 B( 11-N , 24-C ) :   1.1232 B( 11-N , 25-C ) :   0.9576 
B( 12-C , 14-C ) :   1.3277 B( 12-C , 59-H ) :   0.9770 B( 13-N , 31-C ) :   1.1283 
B( 13-N , 35-C ) :   1.1207 B( 13-N , 36-C ) :   0.9579 B( 14-C , 18-C ) :   1.1894 
B( 15-N , 42-C ) :   1.1146 B( 15-N , 46-C ) :   1.1150 B( 15-N , 47-C ) :   0.9624 
B( 16-C , 51-C ) :   1.1983 B( 17-C , 60-H ) :   0.9705 B( 18-C , 19-C ) :   1.2037 
B( 19-C , 21-C ) :   1.2167 B( 20-C , 28-C ) :   1.6219 B( 20-C , 63-H ) :   0.9702 
B( 21-C , 26-C ) :   1.6384 B( 21-C , 64-H ) :   0.9733 B( 22-C , 23-C ) :   1.2851 
B( 22-C , 28-C ) :   1.2753 B( 22-C , 29-C ) :   1.2261 B( 23-C , 24-C ) :   1.6168 
B( 23-C , 65-H ) :   0.9709 B( 24-C , 66-H ) :   0.9691 B( 25-C , 67-H ) :   0.9762 
B( 25-C , 68-H ) :   0.9829 B( 25-C , 69-H ) :   0.9821 B( 26-C , 27-C ) :   1.2130 
B( 26-C , 70-H ) :   0.9730 B( 27-C , 29-C ) :   1.2268 B( 28-C , 71-H ) :   0.9714 
B( 29-C , 30-C ) :   1.2171 B( 30-C , 32-C ) :   1.3069 B( 31-C , 39-C ) :   1.6263 
B( 31-C , 72-H ) :   0.9695 B( 32-C , 37-C ) :   1.5515 B( 32-C , 73-H ) :   0.9778 
B( 33-C , 34-C ) :   1.2789 B( 33-C , 39-C ) :   1.2713 B( 33-C , 40-C ) :   1.2411 
B( 34-C , 35-C ) :   1.6231 B( 34-C , 74-H ) :   0.9703 B( 35-C , 75-H ) :   0.9695 
B( 36-C , 76-H ) :   0.9763 B( 36-C , 77-H ) :   0.9820 B( 36-C , 78-H ) :   0.9830 
B( 37-C , 38-C ) :   1.3086 B( 37-C , 79-H ) :   0.9777 B( 38-C , 40-C ) :   1.2123 
B( 39-C , 80-H ) :   0.9714 B( 40-C , 41-C ) :   1.2206 B( 41-C , 43-C ) :   1.2131 
B( 42-C , 50-C ) :   1.6341 B( 42-C , 81-H ) :   0.9696 B( 43-C , 48-C ) :   1.6382 
B( 43-C , 82-H ) :   0.9735 B( 44-C , 45-C ) :   1.2694 B( 44-C , 50-C ) :   1.2670 
B( 44-C , 51-C ) :   1.2575 B( 45-C , 46-C ) :   1.6333 B( 45-C , 83-H ) :   0.9712 
B( 46-C , 84-H ) :   0.9702 B( 47-C , 85-H ) :   0.9761 B( 47-C , 86-H ) :   0.9828 
B( 47-C , 87-H ) :   0.9826 B( 48-C , 49-C ) :   1.2133 B( 48-C , 88-H ) :   0.9739 
B( 49-C , 51-C ) :   1.2183 B( 50-C , 89-H ) :   0.9713 

-------
TIMINGS
-------

Total SCF time: 0 days 0 hours 21 min 46 sec 

Total time                  ....    1306.629 sec
Sum of individual times     ....    1302.934 sec  ( 99.7%)

Fock matrix formation       ....    1282.724 sec  ( 98.2%)
Diagonalization             ....       6.729 sec  (  0.5%)
Density matrix formation    ....       0.356 sec  (  0.0%)
Population analysis         ....       0.435 sec  (  0.0%)
Initial guess               ....       1.928 sec  (  0.1%)
Orbital Transformation      ....       0.000 sec  (  0.0%)
Orbital Orthonormalization  ....       0.000 sec  (  0.0%)
DIIS solution               ....       2.926 sec  (  0.2%)
SOSCF solution              ....       6.814 sec  (  0.5%)

Maximum memory used throughout the entire SCF-calculation: 302.5 MB


           ************************************************************
           *        Program running with 16 parallel MPI-processes    *
           *              working on a common directory               *
           ************************************************************

------------------------------------------------------------------------------
                                ORCA  MP2 
------------------------------------------------------------------------------

Freezing NCore=104 chemical core electrons

----------
MP2 ENERGY (disk based algorithm)
----------

Dimension of the basis                    ...  918
Memory devoted to MP2                     ... 2000 MB   
Data format for buffers                   ... DOUBLE
Compression type for matrix containers    ... UNCOMPRESSED

-------------------------------
PARTIAL EXCHANGE TRANSFORMATION
-------------------------------

Transformation type                        ... one-operator
Generation of integrals (i,mue|j,nue)      ... ON
Generation of integrals (mue,kappa|nue,tau)... OFF
Generation of integrals (i,mue|a,nue)      ... OFF
Dimension of the basis                     ...  918
Number of internal MOs                     ...  127 (  52- 178)
Pair cutoff                                ... 2.500e-12 Eh
Number of AO pairs in the trafo            ... 421821
Total Number of distinct AO pairs          ... 421821
Memory devoted for trafo                   ... 2000.0 MB 
Max. Number of MO pairs treated together   ...  311      
Number Format for Storage                  ... Double (8 Byte)
Integral package used                      ... LIBINT

Starting integral evaluation:
    ... done with AO integral generation
Closing buffer AOK     (38.37 GB; CompressionRatio= 1.32)
Collecting buffer AOK 
Number of MO pairs included in the trafo   ... 8128
------------------------
SORTING OF (i,mue|j,nue)
------------------------

IBATCH = 1 of  2
IBATCH = 2 of  2
Closing buffer KAO     (51.03 GB; CompressionRatio= 1.00)
Collecting buffer KAO 
N(AO-Batches) Done                         ...  84682960 
N(AO-Batches) Skipped                      ...  83137876 
N(IJ)-pairs Skipped                        ...         0 
TOTAL TIME for half transformation         ...  2817.108 sec
AO-integral generation                     ...   176.956 sec
Half transformation                        ...   316.204 sec
K-integral sorting                         ...  2179.501 sec
Process 10:   Internal MO 132
Process 13:   Internal MO 156
Process  4:   Internal MO  84

Finished integral transformation - now doing MP2 part

OPERATOR COMBINATION   0   0: ij=( 52..178, 52..178)
Process  1:   Internal MO  60
Process  7:   Internal MO 108
Process  0:   Internal MO  54
Process  2:   Internal MO  69
Process  0:   Internal MO  57
Process  1:   Internal MO  63
Process  5:   Internal MO  93
Process  3:   Internal MO  78
Process  8:   Internal MO 117
Process  2:   Internal MO  72
Process  1:   Internal MO  66
Process  6:   Internal MO 102
Process 11:   Internal MO 141
Process 14:   Internal MO 165
Process  4:   Internal MO  87
Process  2:   Internal MO  75
Process  3:   Internal MO  81
Process  9:   Internal MO 126
Process  7:   Internal MO 111
Process 12:   Internal MO 150
Process  5:   Internal MO  96
Process  4:   Internal MO  90
Process 10:   Internal MO 135
Process 15:   Internal MO 174
Process  6:   Internal MO 105
Process  8:   Internal MO 120
Process  5:   Internal MO  99
Process  7:   Internal MO 114
Process 13:   Internal MO 159
Process  9:   Internal MO 129
Process 11:   Internal MO 144
Process 14:   Internal MO 168
Process  8:   Internal MO 123
Process 10:   Internal MO 138
Process 12:   Internal MO 153
Process 15:   Internal MO 177
Process 13:   Internal MO 162
Process 11:   Internal MO 147
Process 14:   Internal MO 171
-----------------------------------------------
 MP2 CORRELATION ENERGY   :     -7.289564710 Eh
-----------------------------------------------


-------
TIMINGS
-------
Total time                : 3300.469 sec
Integral trafo            : 2819.057 sec ( 85.4%)
K(i,j)                    :    5.926 sec (  0.2%)
T(i,j)                    :    0.094 sec (  0.0%)

---------------------------------------
MP2 TOTAL ENERGY:    -2130.915292621 Eh
---------------------------------------

Maximum memory used throughout the entire MP2-calculation: 2275.2 MB

-------------------------   --------------------
FINAL SINGLE POINT ENERGY     -2130.915292620847
-------------------------   --------------------


                            ***************************************
                            *     ORCA property calculations      *
                            ***************************************


  WARNING: The energy has been calculated at the MP2 level but the densities
           used in the property calculations are still SCF densities
           MP2 response densities have not been calculated 
           use %mp2 Density relaxed end
           or  %mp2 Density unrelaxed end

                                    ---------------------
                                    Active property flags
                                    ---------------------
   (+) Dipole Moment


------------------------------------------------------------------------------
                       ORCA ELECTRIC PROPERTIES CALCULATION
------------------------------------------------------------------------------

Dipole Moment Calculation                       ... on
Quadrupole Moment Calculation                   ... off
Polarizability Calculation                      ... off
GBWName                                         ... /scratch/allen/tmpyp4_amber_gaff2/conf1/conf1/Conf122.orca.gbw
Electron density                                ... /scratch/allen/tmpyp4_amber_gaff2/conf1/conf1/Conf122.orca.scfp
The origin for moment calculation is the CENTER OF MASS  = ( 0.002848, -0.002226  0.003149)

-------------
DIPOLE MOMENT
-------------
                                X             Y             Z
Electronic contribution:     -0.03777      -1.18185      -0.20533
Nuclear contribution   :      0.00453       0.18827       0.22578
                        -----------------------------------------
Total Dipole Moment    :     -0.03323      -0.99358       0.02045
                        -----------------------------------------
Magnitude (a.u.)       :      0.99434
Magnitude (Debye)      :      2.52742



--------------------
Rotational spectrum 
--------------------
 
Rotational constants in cm-1:     0.001498     0.001475     0.000762 
Rotational constants in MHz :    44.916540    44.205748    22.846715 

 Dipole components along the rotational axes: 
x,y,z [a.u.] :     0.309763    -0.944582     0.022966 
x,y,z [Debye]:     0.787355    -2.400938     0.058374 

 

Timings for individual modules:

Sum of individual times         ...     4629.852 sec (=  77.164 min)
GTO integral calculation        ...        2.667 sec (=   0.044 min)   0.1 %
SCF iterations                  ...     1307.579 sec (=  21.793 min)  28.2 %
MP2 module                      ...     3319.606 sec (=  55.327 min)  71.7 %
                             ****ORCA TERMINATED NORMALLY****
TOTAL RUN TIME: 0 days 1 hours 17 minutes 13 seconds 139 msec
# of primitive gaussian functions

