
                                 *****************
                                 * O   R   C   A *
                                 *****************

                                            #,                                       
                                            ###                                      
                                            ####                                     
                                            #####                                    
                                            ######                                   
                                           ########,                                 
                                     ,,################,,,,,                         
                               ,,#################################,,                 
                          ,,##########################################,,             
                       ,#########################################, ''#####,          
                    ,#############################################,,   '####,        
                  ,##################################################,,,,####,       
                ,###########''''           ''''###############################       
              ,#####''   ,,,,##########,,,,          '''####'''          '####       
            ,##' ,,,,###########################,,,                        '##       
           ' ,,###''''                  '''############,,,                           
         ,,##''                                '''############,,,,        ,,,,,,###''
      ,#''                                            '''#######################'''  
     '                                                          ''''####''''         
             ,#######,   #######,   ,#######,      ##                                
            ,#'     '#,  ##    ##  ,#'     '#,    #''#        ######   ,####,        
            ##       ##  ##   ,#'  ##            #'  '#       #        #'  '#        
            ##       ##  #######   ##           ,######,      #####,   #    #        
            '#,     ,#'  ##    ##  '#,     ,#' ,#      #,         ##   #,  ,#        
             '#######'   ##     ##  '#######'  #'      '#     #####' # '####'        



                  #######################################################
                  #                        -***-                        #
                  #          Department of theory and spectroscopy      #
                  #    Directorship and core code : Frank Neese         #
                  #        Max Planck Institute fuer Kohlenforschung    #
                  #                Kaiser Wilhelm Platz 1               #
                  #                 D-45470 Muelheim/Ruhr               #
                  #                      Germany                        #
                  #                                                     #
                  #                  All rights reserved                #
                  #                        -***-                        #
                  #######################################################


                         Program Version 5.0.4 -  RELEASE  -


 With contributions from (in alphabetic order):
   Daniel Aravena         : Magnetic Suceptibility
   Michael Atanasov       : Ab Initio Ligand Field Theory (pilot matlab implementation)
   Alexander A. Auer      : GIAO ZORA, VPT2 properties, NMR spectrum
   Ute Becker             : Parallelization
   Giovanni Bistoni       : ED, misc. LED, open-shell LED, HFLD
   Martin Brehm           : Molecular dynamics
   Dmytro Bykov           : SCF Hessian
   Vijay G. Chilkuri      : MRCI spin determinant printing, contributions to CSF-ICE
   Dipayan Datta          : RHF DLPNO-CCSD density
   Achintya Kumar Dutta   : EOM-CC, STEOM-CC
   Dmitry Ganyushin       : Spin-Orbit,Spin-Spin,Magnetic field MRCI
   Miquel Garcia          : C-PCM and meta-GGA Hessian, CC/C-PCM, Gaussian charge scheme
   Yang Guo               : DLPNO-NEVPT2, F12-NEVPT2, CIM, IAO-localization
   Andreas Hansen         : Spin unrestricted coupled pair/coupled cluster methods
   Benjamin Helmich-Paris : MC-RPA, TRAH-SCF, COSX integrals
   Lee Huntington         : MR-EOM, pCC
   Robert Izsak           : Overlap fitted RIJCOSX, COSX-SCS-MP3, EOM
   Marcus Kettner         : VPT2
   Christian Kollmar      : KDIIS, OOCD, Brueckner-CCSD(T), CCSD density, CASPT2, CASPT2-K
   Simone Kossmann        : Meta GGA functionals, TD-DFT gradient, OOMP2, MP2 Hessian
   Martin Krupicka        : Initial AUTO-CI
   Lucas Lang             : DCDCAS
   Marvin Lechner         : AUTO-CI (C++ implementation), FIC-MRCC
   Dagmar Lenk            : GEPOL surface, SMD
   Dimitrios Liakos       : Extrapolation schemes; Compound Job, initial MDCI parallelization
   Dimitrios Manganas     : Further ROCIS development; embedding schemes
   Dimitrios Pantazis     : SARC Basis sets
   Anastasios Papadopoulos: AUTO-CI, single reference methods and gradients
   Taras Petrenko         : DFT Hessian,TD-DFT gradient, ASA, ECA, R-Raman, ABS, FL, XAS/XES, NRVS
   Peter Pinski           : DLPNO-MP2, DLPNO-MP2 Gradient
   Christoph Reimann      : Effective Core Potentials
   Marius Retegan         : Local ZFS, SOC
   Christoph Riplinger    : Optimizer, TS searches, QM/MM, DLPNO-CCSD(T), (RO)-DLPNO pert. Triples
   Tobias Risthaus        : Range-separated hybrids, TD-DFT gradient, RPA, STAB
   Michael Roemelt        : Original ROCIS implementation
   Masaaki Saitow         : Open-shell DLPNO-CCSD energy and density
   Barbara Sandhoefer     : DKH picture change effects
   Avijit Sen             : IP-ROCIS
   Kantharuban Sivalingam : CASSCF convergence, NEVPT2, FIC-MRCI
   Bernardo de Souza      : ESD, SOC TD-DFT
   Georgi Stoychev        : AutoAux, RI-MP2 NMR, DLPNO-MP2 response
   Willem Van den Heuvel  : Paramagnetic NMR
   Boris Wezisla          : Elementary symmetry handling
   Frank Wennmohs         : Technical directorship


 We gratefully acknowledge several colleagues who have allowed us to
 interface, adapt or use parts of their codes:
   Stefan Grimme, W. Hujo, H. Kruse, P. Pracht,  : VdW corrections, initial TS optimization,
                  C. Bannwarth, S. Ehlert          DFT functionals, gCP, sTDA/sTD-DF
   Ed Valeev, F. Pavosevic, A. Kumar             : LibInt (2-el integral package), F12 methods
   Garnet Chan, S. Sharma, J. Yang, R. Olivares  : DMRG
   Ulf Ekstrom                                   : XCFun DFT Library
   Mihaly Kallay                                 : mrcc  (arbitrary order and MRCC methods)
   Jiri Pittner, Ondrej Demel                    : Mk-CCSD
   Frank Weinhold                                : gennbo (NPA and NBO analysis)
   Christopher J. Cramer and Donald G. Truhlar   : smd solvation model
   Lars Goerigk                                  : TD-DFT with DH, B97 family of functionals
   V. Asgeirsson, H. Jonsson                     : NEB implementation
   FAccTs GmbH                                   : IRC, NEB, NEB-TS, DLPNO-Multilevel, CI-OPT
                                                   MM, QMMM, 2- and 3-layer-ONIOM, Crystal-QMMM,
                                                   LR-CPCM, SF, NACMEs, symmetry and pop. for TD-DFT,
                                                   nearIR, NL-DFT gradient (VV10), updates on ESD,
                                                   ML-optimized integration grids
   S Lehtola, MJT Oliveira, MAL Marques          : LibXC Library
   Liviu Ungur et al                             : ANISO software


 Your calculation uses the libint2 library for the computation of 2-el integrals
 For citations please refer to: http://libint.valeyev.net

 Your ORCA version has been built with support for libXC version: 5.1.0
 For citations please refer to: https://tddft.org/programs/libxc/

 This ORCA versions uses:
   CBLAS   interface :  Fast vector & matrix operations
   LAPACKE interface :  Fast linear algebra routines
   SCALAPACK package :  Parallel linear algebra routines
   Shared memory     :  Shared parallel matrices
   BLAS/LAPACK       :  OpenBLAS 0.3.15  USE64BITINT DYNAMIC_ARCH NO_AFFINITY Sandybridge SINGLE_THREADED
        Core in use  :  Sandybridge
   Copyright (c) 2011-2014, The OpenBLAS Project


================================================================================

----- Orbital basis set information -----
Your calculation utilizes the basis: cc-pVDZ 
       H, B-Ne : Obtained from the ccRepo (grant-hill.group.shef.ac.uk/ccrepo) Feb. 2017
                 T. H. Dunning, Jr., J. Chem. Phys. 90, 1007 (1989)
            He : Obtained from the ccRepo (grant-hill.group.shef.ac.uk/ccrepo) Feb. 2017
                 D. E. Woon, T. H. Dunning, Jr., J. Chem. Phys. 100, 2975 (1994)
  Li-Be, Na-Mg : Obtained from the ccRepo (grant-hill.group.shef.ac.uk/ccrepo) Feb. 2017
                 B. P. Prascher, D. E. Woon, K. A. Peterson, T. H. Dunning, Jr., A. K. Wilson, Theor. Chem. Acc. 128, 69 (2011)
         Al-Ar : Obtained from the ccRepo (grant-hill.group.shef.ac.uk/ccrepo) Feb. 2017
                 D. E. Woon, T. H. Dunning, Jr., J. Chem. Phys. 98, 1358 (1993)
            Ca : Obtained from the Peterson Research Group Website (tyr0.chem.wsu.edu/~kipeters) Feb. 2017
                 J. Koput, K. A. Peterson, J. Phys. Chem. 106, 9595 (2002)
         Sc-Zn : Obtained from the ccRepo (grant-hill.group.shef.ac.uk/ccrepo) Feb. 2017
                 N. B. Balabanov, K. A. Peterson, J. Chem. Phys. 123, 064107 (2005)
                 N. B. Balabanov, K. A. Peterson, J. Chem. Phys. 125, 074110 (2006)
         Ga-Kr : Obtained from the ccRepo (grant-hill.group.shef.ac.uk/ccrepo) Feb. 2017
                 A. K. Wilson, D. E. Woon, K. A. Peterson, T. H. Dunning, Jr., J. Chem. Phys. 110, 7667 (1999)

================================================================================
                                        WARNINGS
                       Please study these warnings very carefully!
================================================================================


WARNING: No MP2 level density has been requested!
         To caclulate MP2 level properties use
         %mp2 Density relaxed end
         or
         %mp2 Density unrelaxed end

WARNING: Post HF methods need fully converged wavefunctions
  ===> : Setting SCFConvForced true
         You can overwrite this default with %scf ConvForced false 


INFO   : the flag for use of the SHARK integral package has been found!

================================================================================
                                       INPUT FILE
================================================================================
NAME = /scratch/allen/tmpyp4_amber_gaff2/2.Mdgx/conf11/conf11/Conf33.orca
|  1> ! PAL2
|  2> ! mp2 cc-pvdz TightSCF  NoKeepInts
|  3> 
|  4> %scf
|  5>   MaxCore 2000
|  6> end
|  7> %mp2
|  8>   MaxCore 2000
|  9> end
| 10> * xyz 0 1
| 11>    C       -3.16900         6.41400        -0.50000
| 12>    C        1.47400         4.04100         0.05700
| 13>    C       -2.80200         4.09300         0.04900
| 14>    C       -4.05600         4.09700         0.68000
| 15>    C       -4.81900         5.24700         0.69800
| 16>    C       -5.23100         7.59000         0.12100
| 17>    C        0.13200         4.30700         0.06100
| 18>    C       -0.56900         3.05600         0.04700
| 19>    C        1.64900         2.61800         0.02300
| 20>    C       -2.37200         5.28700        -0.54900
| 21>    N       -4.37200         6.38500         0.11700
| 22>    N        0.38800         2.06700         0.02500
| 23>    N       -2.01000         0.39500        -0.07500
| 24>    N       -0.38800        -2.07400        -0.02700
| 25>    N        2.01000        -0.40100         0.06500
| 26>    C       -1.96000         2.86100         0.02400
| 27>    C       -2.62300         1.61500        -0.01800
| 28>    C       -5.57300        -4.32900         1.06600
| 29>    C       -4.07300         1.47100         0.05600
| 30>    C       -4.10600        -2.75600        -0.02600
| 31>    C       -4.99500        -2.75700        -1.11100
| 32>    C       -6.13200        -3.54200        -1.07600
| 33>    C       -7.65100        -5.11300         0.04000
| 34>    C       -4.32400         0.14100         0.03700
| 35>    C       -3.02500        -0.52000        -0.04800
| 36>    C       -4.42200        -3.56600         1.07500
| 37>    N       -6.40700        -4.31300         0.00100
| 38>    C       -2.86700        -1.92200        -0.04000
| 39>    C       -1.65000        -2.62400        -0.02700
| 40>    C        3.56800        -6.14200        -1.04000
| 41>    C       -1.47600        -4.04900        -0.03400
| 42>    C        2.80300        -4.09900        -0.00800
| 43>    C        3.65700        -4.38400         1.06900
| 44>    C        4.42700        -5.53000         1.05900
| 45>    C        5.24500        -7.58800         0.01400
| 46>    C       -0.13400        -4.31500        -0.02200
| 47>    C        0.56800        -3.06400        -0.02700
| 48>    C        2.77500        -5.01200        -1.07400
| 49>    N        4.37600        -6.39100         0.01700
| 50>    C        1.95900        -2.86900        -0.00900
| 51>    C        2.62100        -1.62200         0.00900
| 52>    C        5.54300         4.33900        -1.13000
| 53>    C        4.07000        -1.47900        -0.09400
| 54>    C        4.10400         2.75100        -0.02100
| 55>    C        5.02700         2.72900         1.03600
| 56>    C        6.16600         3.50900         0.97800
| 57>    C        7.61900         5.15300        -0.11500
| 58>    C        4.32100        -0.14800        -0.09200
| 59>    C        3.02500         0.51400         0.01500
| 60>    C        4.38700         3.58200        -1.11500
| 61>    C        2.86600         1.91600         0.01300
| 62>    N        6.41300         4.29600        -0.09500
| 63>    H       -2.87200         7.36000        -0.93700
| 64>    H        2.27400         4.76600         0.08100
| 65>    H       -4.44700         3.20400         1.15100
| 66>    H       -5.79500         5.29600         1.16400
| 67>    H       -5.91100         7.54400        -0.73300
| 68>    H       -5.79800         7.61400         1.05100
| 69>    H       -4.59600         8.47200         0.04700
| 70>    H       -0.33200         5.28200         0.06900
| 71>    H       -1.40700         5.35200        -1.04000
| 72>    H        0.18200         1.07200         0.00500
| 73>    H       -0.18300        -1.08000        -0.02100
| 74>    H       -5.86400        -4.96200         1.89500
| 75>    H       -4.79400         2.27200         0.13900
| 76>    H       -4.80000        -2.16000        -1.99400
| 77>    H       -6.84100        -3.58200        -1.89300
| 78>    H       -8.42800        -4.53600         0.54600
| 79>    H       -7.95600        -5.33700        -0.98100
| 80>    H       -7.45600        -6.03700         0.58400
| 81>    H       -5.28700        -0.34400         0.10000
| 82>    H       -3.78000        -3.60100         1.94700
| 83>    H        3.58700        -6.86800        -1.84300
| 84>    H       -2.27600        -4.77400        -0.05000
| 85>    H        3.71400        -3.72400         1.92600
| 86>    H        5.09200        -5.79500         1.87100
| 87>    H        6.20500        -7.32900        -0.43900
| 88>    H        5.39300        -7.91700         1.04200
| 89>    H        4.75900        -8.37300        -0.56400
| 90>    H        0.32900        -5.29000        -0.00800
| 91>    H        2.14600        -4.84200        -1.94000
| 92>    H        5.80800         4.98600        -1.95600
| 93>    H        4.78800        -2.28100        -0.18500
| 94>    H        4.86000         2.11400         1.91200
| 95>    H        6.90100         3.53100         1.77200
| 96>    H        7.38300         6.10900         0.35600
| 97>    H        8.41400         4.65200         0.43500
| 98>    H        7.92100         5.31000        -1.15000
| 99>    H        5.28300         0.33600        -0.17900
|100>    H        3.72000         3.63200        -1.96700
|101> *
|102> 
|103>                          ****END OF INPUT****
================================================================================

                       ****************************
                       * Single Point Calculation *
                       ****************************

---------------------------------
CARTESIAN COORDINATES (ANGSTROEM)
---------------------------------
  C     -3.169000    6.414000   -0.500000
  C      1.474000    4.041000    0.057000
  C     -2.802000    4.093000    0.049000
  C     -4.056000    4.097000    0.680000
  C     -4.819000    5.247000    0.698000
  C     -5.231000    7.590000    0.121000
  C      0.132000    4.307000    0.061000
  C     -0.569000    3.056000    0.047000
  C      1.649000    2.618000    0.023000
  C     -2.372000    5.287000   -0.549000
  N     -4.372000    6.385000    0.117000
  N      0.388000    2.067000    0.025000
  N     -2.010000    0.395000   -0.075000
  N     -0.388000   -2.074000   -0.027000
  N      2.010000   -0.401000    0.065000
  C     -1.960000    2.861000    0.024000
  C     -2.623000    1.615000   -0.018000
  C     -5.573000   -4.329000    1.066000
  C     -4.073000    1.471000    0.056000
  C     -4.106000   -2.756000   -0.026000
  C     -4.995000   -2.757000   -1.111000
  C     -6.132000   -3.542000   -1.076000
  C     -7.651000   -5.113000    0.040000
  C     -4.324000    0.141000    0.037000
  C     -3.025000   -0.520000   -0.048000
  C     -4.422000   -3.566000    1.075000
  N     -6.407000   -4.313000    0.001000
  C     -2.867000   -1.922000   -0.040000
  C     -1.650000   -2.624000   -0.027000
  C      3.568000   -6.142000   -1.040000
  C     -1.476000   -4.049000   -0.034000
  C      2.803000   -4.099000   -0.008000
  C      3.657000   -4.384000    1.069000
  C      4.427000   -5.530000    1.059000
  C      5.245000   -7.588000    0.014000
  C     -0.134000   -4.315000   -0.022000
  C      0.568000   -3.064000   -0.027000
  C      2.775000   -5.012000   -1.074000
  N      4.376000   -6.391000    0.017000
  C      1.959000   -2.869000   -0.009000
  C      2.621000   -1.622000    0.009000
  C      5.543000    4.339000   -1.130000
  C      4.070000   -1.479000   -0.094000
  C      4.104000    2.751000   -0.021000
  C      5.027000    2.729000    1.036000
  C      6.166000    3.509000    0.978000
  C      7.619000    5.153000   -0.115000
  C      4.321000   -0.148000   -0.092000
  C      3.025000    0.514000    0.015000
  C      4.387000    3.582000   -1.115000
  C      2.866000    1.916000    0.013000
  N      6.413000    4.296000   -0.095000
  H     -2.872000    7.360000   -0.937000
  H      2.274000    4.766000    0.081000
  H     -4.447000    3.204000    1.151000
  H     -5.795000    5.296000    1.164000
  H     -5.911000    7.544000   -0.733000
  H     -5.798000    7.614000    1.051000
  H     -4.596000    8.472000    0.047000
  H     -0.332000    5.282000    0.069000
  H     -1.407000    5.352000   -1.040000
  H      0.182000    1.072000    0.005000
  H     -0.183000   -1.080000   -0.021000
  H     -5.864000   -4.962000    1.895000
  H     -4.794000    2.272000    0.139000
  H     -4.800000   -2.160000   -1.994000
  H     -6.841000   -3.582000   -1.893000
  H     -8.428000   -4.536000    0.546000
  H     -7.956000   -5.337000   -0.981000
  H     -7.456000   -6.037000    0.584000
  H     -5.287000   -0.344000    0.100000
  H     -3.780000   -3.601000    1.947000
  H      3.587000   -6.868000   -1.843000
  H     -2.276000   -4.774000   -0.050000
  H      3.714000   -3.724000    1.926000
  H      5.092000   -5.795000    1.871000
  H      6.205000   -7.329000   -0.439000
  H      5.393000   -7.917000    1.042000
  H      4.759000   -8.373000   -0.564000
  H      0.329000   -5.290000   -0.008000
  H      2.146000   -4.842000   -1.940000
  H      5.808000    4.986000   -1.956000
  H      4.788000   -2.281000   -0.185000
  H      4.860000    2.114000    1.912000
  H      6.901000    3.531000    1.772000
  H      7.383000    6.109000    0.356000
  H      8.414000    4.652000    0.435000
  H      7.921000    5.310000   -1.150000
  H      5.283000    0.336000   -0.179000
  H      3.720000    3.632000   -1.967000

----------------------------
CARTESIAN COORDINATES (A.U.)
----------------------------
  NO LB      ZA    FRAG     MASS         X           Y           Z
   0 C     6.0000    0    12.011   -5.988542   12.120703   -0.944863
   1 C     6.0000    0    12.011    2.785456    7.636383    0.107714
   2 C     6.0000    0    12.011   -5.295013    7.734649    0.092597
   3 C     6.0000    0    12.011   -7.664729    7.742208    1.285014
   4 C     6.0000    0    12.011   -9.106590    9.915393    1.319029
   5 C     6.0000    0    12.011   -9.885157   14.343021    0.228657
   6 C     6.0000    0    12.011    0.249444    8.139050    0.115273
   7 C     6.0000    0    12.011   -1.075254    5.775003    0.088817
   8 C     6.0000    0    12.011    3.116158    4.947303    0.043464
   9 C     6.0000    0    12.011   -4.482430    9.990982   -1.037460
  10 N     7.0000    0    14.007   -8.261883   12.065901    0.221098
  11 N     7.0000    0    14.007    0.733214    3.906064    0.047243
  12 N     7.0000    0    14.007   -3.798350    0.746442   -0.141729
  13 N     7.0000    0    14.007   -0.733214   -3.919292   -0.051023
  14 N     7.0000    0    14.007    3.798350   -0.757780    0.122832
  15 C     6.0000    0    12.011   -3.703863    5.406506    0.045353
  16 C     6.0000    0    12.011   -4.956752    3.051908   -0.034015
  17 C     6.0000    0    12.011  -10.531444   -8.180624    2.014448
  18 C     6.0000    0    12.011   -7.696855    2.779787    0.105825
  19 C     6.0000    0    12.011   -7.759216   -5.208085   -0.049133
  20 C     6.0000    0    12.011   -9.439182   -5.209975   -2.099486
  21 C     6.0000    0    12.011  -11.587801   -6.693410   -2.033345
  22 C     6.0000    0    12.011  -14.458295   -9.662170    0.075589
  23 C     6.0000    0    12.011   -8.171176    0.266451    0.069920
  24 C     6.0000    0    12.011   -5.716422   -0.982658   -0.090707
  25 C     6.0000    0    12.011   -8.356369   -6.738763    2.031456
  26 N     7.0000    0    14.007  -12.107475   -8.150389    0.001890
  27 C     6.0000    0    12.011   -5.417845   -3.632054   -0.075589
  28 C     6.0000    0    12.011   -3.118048   -4.958641   -0.051023
  29 C     6.0000    0    12.011    6.742543  -11.606698   -1.965315
  30 C     6.0000    0    12.011   -2.789236   -7.651501   -0.064251
  31 C     6.0000    0    12.011    5.296902   -7.745987   -0.015118
  32 C     6.0000    0    12.011    6.910728   -8.284559    2.020117
  33 C     6.0000    0    12.011    8.365818  -10.450186    2.001220
  34 C     6.0000    0    12.011    9.911614  -14.339242    0.026456
  35 C     6.0000    0    12.011   -0.253223   -8.154168   -0.041574
  36 C     6.0000    0    12.011    1.073364   -5.790121   -0.051023
  37 C     6.0000    0    12.011    5.243990   -9.471307   -2.029566
  38 N     7.0000    0    14.007    8.269442  -12.077240    0.032125
  39 C     6.0000    0    12.011    3.701973   -5.421624   -0.017008
  40 C     6.0000    0    12.011    4.952972   -3.065136    0.017008
  41 C     6.0000    0    12.011   10.474752    8.199522   -2.135391
  42 C     6.0000    0    12.011    7.691185   -2.794905   -0.177634
  43 C     6.0000    0    12.011    7.755436    5.198637   -0.039684
  44 C     6.0000    0    12.011    9.499653    5.157063    1.957756
  45 C     6.0000    0    12.011   11.652051    6.631049    1.848152
  46 C     6.0000    0    12.011   14.397823    9.737759   -0.217319
  47 C     6.0000    0    12.011    8.165507   -0.279679   -0.173855
  48 C     6.0000    0    12.011    5.716422    0.971319    0.028346
  49 C     6.0000    0    12.011    8.290229    6.768999   -2.107045
  50 C     6.0000    0    12.011    5.415955    3.620715    0.024566
  51 N     7.0000    0    14.007   12.118814    8.118263   -0.179524
  52 H     1.0000    0     1.008   -5.427293   13.908384   -1.770673
  53 H     1.0000    0     1.008    4.297237    9.006435    0.153068
  54 H     1.0000    0     1.008   -8.403612    6.054683    2.175075
  55 H     1.0000    0     1.008  -10.950963   10.007990    2.199641
  56 H     1.0000    0     1.008  -11.170171   14.256094   -1.385169
  57 H     1.0000    0     1.008  -10.956632   14.388375    1.986102
  58 H     1.0000    0     1.008   -8.685181   16.009760    0.088817
  59 H     1.0000    0     1.008   -0.627389    9.981533    0.130391
  60 H     1.0000    0     1.008   -2.658845   10.113814   -1.965315
  61 H     1.0000    0     1.008    0.343930    2.025786    0.009449
  62 H     1.0000    0     1.008   -0.345820   -2.040904   -0.039684
  63 H     1.0000    0     1.008  -11.081354   -9.376821    3.581031
  64 H     1.0000    0     1.008   -9.059347    4.293458    0.262672
  65 H     1.0000    0     1.008   -9.070685   -4.081808   -3.768114
  66 H     1.0000    0     1.008  -12.927616   -6.768999   -3.577252
  67 H     1.0000    0     1.008  -15.926612   -8.571798    1.031790
  68 H     1.0000    0     1.008  -15.034661  -10.085468   -1.853821
  69 H     1.0000    0     1.008  -14.089798  -11.408277    1.103600
  70 H     1.0000    0     1.008   -9.990982   -0.650066    0.188973
  71 H     1.0000    0     1.008   -7.143165   -6.804904    3.679297
  72 H     1.0000    0     1.008    6.778448  -12.978639   -3.482765
  73 H     1.0000    0     1.008   -4.301017   -9.021553   -0.094486
  74 H     1.0000    0     1.008    7.018443   -7.037340    3.639613
  75 H     1.0000    0     1.008    9.622485  -10.950963    3.535678
  76 H     1.0000    0     1.008   11.725751  -13.849803   -0.829590
  77 H     1.0000    0     1.008   10.191293  -14.960962    1.969095
  78 H     1.0000    0     1.008    8.993207  -15.822677   -1.065806
  79 H     1.0000    0     1.008    0.621720   -9.996651   -0.015118
  80 H     1.0000    0     1.008    4.055352   -9.150054   -3.666069
  81 H     1.0000    0     1.008   10.975529    9.422175   -3.696304
  82 H     1.0000    0     1.008    9.048009   -4.310465   -0.349599
  83 H     1.0000    0     1.008    9.184069    3.994881    3.613156
  84 H     1.0000    0     1.008   13.041000    6.672623    3.348595
  85 H     1.0000    0     1.008   13.951848   11.544337    0.672743
  86 H     1.0000    0     1.008   15.900156    8.791006    0.822031
  87 H     1.0000    0     1.008   14.968521   10.034446   -2.173185
  88 H     1.0000    0     1.008    9.983423    0.634948   -0.338261
  89 H     1.0000    0     1.008    7.029781    6.863485   -3.717091

--------------------------------
INTERNAL COORDINATES (ANGSTROEM)
--------------------------------
 C      0   0   0     0.000000000000     0.00000000     0.00000000
 C      1   0   0     5.243932398496     0.00000000     0.00000000
 C      1   2   0     2.413116449739    53.55355381     0.00000000
 C      3   1   2     1.403813734083    87.91777077   154.05722508
 C      4   3   1     1.380214838349   120.13591541     0.12389942
 C      5   4   3     2.447921975881   152.55563823     1.64014497
 C      2   1   3     1.368114030335    17.02507970   350.82882372
 C      7   2   1     1.434084376876   108.05010202   157.49782578
 C      2   1   3     1.434123425651   123.67883291    17.59100047
 C      1   2   3     1.381209252793    28.79198912   332.56663872
 N      1   2   3     1.352308766517   136.84278331    39.83714263
 N      9   2   1     1.376127174356   106.58526707   351.25911773
 N     12   9   2     2.925062050624   168.53581413   171.12065651
 N     13  12   9     2.954513327098    91.55032014    11.12112580
 N     14  13  12     2.925371258490    88.43092389   359.84326247
 C      8   7   2     1.404790019896   127.24786865   181.11170171
 C     13  12   9     1.366535034311    81.72106996   188.00453233
 C     14  13  12     5.758810554272    80.56209567   166.76250791
 C     17  13  12     1.459010623676   111.08861209   183.82872609
 C     18  14  13     2.412235892279    27.27532823    36.33507194
 C     20  18  14     1.402692767501    87.95206320   148.94598259
 C     21  20  18     1.382106725257   120.14573887   359.70382047
 C     18  14  13     2.446510985056   144.15733107    82.80075377
 C     19  17  13     1.353610726908   106.29293361   359.75308708
 C     13  12   9     1.366813447402   172.21332906    33.46711076
 C     18  14  13     1.380960173213    15.08449437   309.23336894
 N     22  21  20     1.352773077792   120.73759875     0.27865223
 C     25  13  17     1.410897586645   125.60330303   182.37774668
 C     14  13  12     1.376642291955    80.24689249   177.85461986
 C     14  13  12     5.764089607215   164.51507311   312.20821879
 C     29  14  13     1.435600919476   106.58649366   178.76395472
 C     30  14  13     2.413316804732    27.10625047    82.12560436
 C     32  30  14     1.403734305344    87.90059683   149.76154742
 C     33  32  30     1.380694028378   120.14881443   359.74174632
 C     34  33  32     2.448777858443   152.49203239     2.45173620
 C     31  29  14     1.368160809262   108.16950133     0.70383075
 C     14  13  12     1.376239804685   169.26375223   353.09862627
 C     30  14  13     1.380907310430    14.68948582   353.70041132
 N     34  33  32     1.352658863128   120.85575621     0.19603406
 C     37  14  29     1.404717053360   126.01551127   180.90772073
 C     15  14  13     1.366491126938    81.61824056   183.09049352
 C      2   1   3     4.249062720177   141.85720927   155.63985543
 C     41  15  14     1.459677704153   111.05201287   175.08990246
 C     42   2   1     2.412953791518    41.78584867   190.21154218
 C     44  42   2     1.403446472082    87.95153797   233.97558675
 C     45  44  42     1.381696421071   120.11137308     0.19721020
 C     42   2   1     2.450019795838   135.97209175   100.52639128
 C     43  41  15     1.354461516618   106.26758155     0.30894352
 C     15  14  13     1.367461151185   171.87382904   332.35056460
 C     42   2   1     1.381886391857    32.59078432   239.06682137
 C      9   2   1     1.404988612053   126.98745415   172.26345526
 N     42   2   1     1.352765315936   113.57249190   128.26298047
 H      1   2   3     1.083556182207   101.25795959   191.23580723
 H      2   1   3     1.079907866440   110.76088106   190.91056512
 H      4   3   1     1.082668462642   121.05079818   179.54548849
 H      5   4   3     1.082650913268   122.79801004   179.43331073
 H      6   5   4     1.092626194085   104.39951771   100.07308072
 H      6   5   4     1.089479233395    84.69082324   209.52782306
 H      6   5   4     1.089323184367   133.85808308   322.43117777
 H      7   2   1     1.079807853278   126.66122480   337.73623957
 H     10   1   2     1.084680137183   118.71972867   313.62060565
 H     12   9   2     1.016297692608   125.29023241   180.00180175
 H     14  13  12     1.014936943854    44.97226959   359.42596618
 H     18  14  13     1.082871645210   128.03556573   234.20482432
 H     19  17  13     1.080893611786   126.41830519   178.11313280
 H     21  20  18     1.083569563987   121.05669627   180.67006309
 H     22  21  20     1.082483256222   122.73097286   180.59748951
 H     23  18  14     1.092105306278   103.92715769   234.93429879
 H     23  18  14     1.088871893291   134.19244188    12.25587044
 H     23  18  14     1.089833473518    84.85857450   125.45241208
 H     24  19  17     1.080075460327   127.28078426   178.44613241
 H     26  18  14     1.083408048706   118.76995697   244.94906660
 H     30  14  13     1.082703098730   127.99711412   279.66882698
 H     31  29  14     1.079759695488   125.22293469   180.92530585
 H     33  32  30     1.083188810873   121.01964473   180.74284758
 H     34  33  32     1.082494341787   122.70821597   180.59516895
 H     35  34  33     1.092652735319   105.73575241    97.19771933
 H     35  34  33     1.089462711615    84.05943581   206.43036958
 H     35  34  33     1.089268102902   133.08365142   318.50306270
 H     36  31  29     1.079439669458   126.61599965   178.98859863
 H     38  30  73     1.083742127999   118.77264435   359.90091293
 H     42   2   1     1.082178358682   119.31790784   344.89451093
 H     43  41  15     1.080281907652   126.36969097   182.06329380
 H     45  44  42     1.083277434455   121.10105945   179.58025624
 H     46  45  44     1.082194529648   122.72144639   179.46906377
 H     47  42   2     1.091546151109   106.65128841   315.16475048
 H     47  42   2     1.088818625851   132.46019523    94.52397119
 H     47  42   2     1.089531091801    83.63838232   206.04504406
 H     48  43  41     1.080402239909   127.23657387   181.62955349
 H     50  42   2     1.083186502870   118.77001737    94.71359229

---------------------------
INTERNAL COORDINATES (A.U.)
---------------------------
 C      0   0   0     0.000000000000     0.00000000     0.00000000
 C      1   0   0     9.909596097955     0.00000000     0.00000000
 C      1   2   0     4.560129219267    53.55355381     0.00000000
 C      3   1   2     2.652823500454    87.91777077   154.05722508
 C      4   3   1     2.608228050455   120.13591541     0.12389942
 C      5   4   3     4.625902131622   152.55563823     1.64014497
 C      2   1   3     2.585360837309    17.02507970   350.82882372
 C      7   2   1     2.710026725231   108.05010202   157.49782578
 C      2   1   3     2.710100516721   123.67883291    17.59100047
 C      1   2   3     2.610107221416    28.79198912   332.56663872
 N      1   2   3     2.555493217219   136.84278331    39.83714263
 N      9   2   1     2.600503484979   106.58526707   351.25911773
 N     12   9   2     5.527566200405   168.53581413   171.12065651
 N     13  12   9     5.583221047236    91.55032014    11.12112580
 N     14  13  12     5.528150518591    88.43092389   359.84326247
 C      8   7   2     2.654668413270   127.24786865   181.11170171
 C     13  12   9     2.582376967257    81.72106996   188.00453233
 C     14  13  12    10.882574804710    80.56209567   166.76250791
 C     17  13  12     2.757130505230   111.08861209   183.82872609
 C     18  14  13     4.558465206823    27.27532823    36.33507194
 C     20  18  14     2.650705180609    87.95206320   148.94598259
 C     21  20  18     2.611803198586   120.14573887   359.70382047
 C     18  14  13     4.623235745386   144.15733107    82.80075377
 C     19  17  13     2.557953565794   106.29293361   359.75308708
 C     13  12   9     2.582903091751   172.21332906    33.46711076
 C     18  14  13     2.609636529225    15.08449437   309.23336894
 N     22  21  20     2.556370638369   120.73759875     0.27865223
 C     25  13  17     2.666210041769   125.60330303   182.37774668
 C     14  13  12     2.601476916169    80.24689249   177.85461986
 C     14  13  12    10.892550769017   164.51507311   312.20821879
 C     29  14  13     2.712892575415   106.58649366   178.76395472
 C     30  14  13     4.560507835333    27.10625047    82.12560436
 C     32  30  14     2.652673401891    87.90059683   149.76154742
 C     33  32  30     2.609133588376   120.14881443   359.74174632
 C     34  33  32     4.627519515267   152.49203239     2.45173620
 C     31  29  14     2.585449236669   108.16950133     0.70383075
 C     14  13  12     2.600716325456   169.26375223   353.09862627
 C     30  14  13     2.609536633043    14.68948582   353.70041132
 N     34  33  32     2.556154803934   120.85575621     0.19603406
 C     37  14  29     2.654530526499   126.01551127   180.90772073
 C     15  14  13     2.582293994346    81.61824056   183.09049352
 C      2   1   3     8.029564866989   141.85720927   155.63985543
 C     41  15  14     2.758391104639   111.05201287   175.08990246
 C     42   2   1     4.559821839776    41.78584867   190.21154218
 C     44  42   2     2.652129475853    87.95153797   233.97558675
 C     45  44  42     2.611027836043   120.11137308     0.19721020
 C     42   2   1     4.629866436820   135.97209175   100.52639128
 C     43  41  15     2.559561325344   106.26758155     0.30894352
 C     15  14  13     2.584127074516   171.87382904   332.35056460
 C     42   2   1     2.611386828803    32.59078432   239.06682137
 C      9   2   1     2.655043698059   126.98745415   172.26345526
 N     42   2   1     2.556355970587   113.57249190   128.26298047
 H      1   2   3     2.047624435089   101.25795959   191.23580723
 H      2   1   3     2.040730117440   110.76088106   190.91056512
 H      4   3   1     2.045946888227   121.05079818   179.54548849
 H      5   4   3     2.045913724716   122.79801004   179.43331073
 H      6   5   4     2.064764273569   104.39951771   100.07308072
 H      6   5   4     2.058817379712    84.69082324   209.52782306
 H      6   5   4     2.058522489785   133.85808308   322.43117777
 H      7   2   1     2.040541119952   126.66122480   337.73623957
 H     10   1   2     2.049748402181   118.71972867   313.62060565
 H     12   9   2     1.920524309565   125.29023241   180.00180175
 H     14  13  12     1.917952867083    44.97226959   359.42596618
 H     18  14  13     2.046330847636   128.03556573   234.20482432
 H     19  17  13     2.042592906181   126.41830519   178.11313280
 H     21  20  18     2.047649722989   121.05669627   180.67006309
 H     22  21  20     2.045596898814   122.73097286   180.59748951
 H     23  18  14     2.063779938267   103.92715769   234.93429879
 H     23  18  14     2.057669673245   134.19244188    12.25587044
 H     23  18  14     2.059486796529    84.85857450   125.45241208
 H     24  19  17     2.041046823986   127.28078426   178.44613241
 H     26  18  14     2.047344503340   118.76995697   244.94906660
 H     30  14  13     2.046012340948   127.99711412   279.66882698
 H     31  29  14     2.040450114918   125.22293469   180.92530585
 H     33  32  30     2.046930203877   121.01964473   180.74284758
 H     34  33  32     2.045617847496   122.70821597   180.59516895
 H     35  34  33     2.064814429233   105.73575241    97.19771933
 H     35  34  33     2.058786158072    84.05943581   206.43036958
 H     35  34  33     2.058418400901   133.08365142   318.50306270
 H     36  31  29     2.039845353366   126.61599965   178.98859863
 H     38  30  73     2.047975821711   118.77264435   359.90091293
 H     42   2   1     2.045020725966   119.31790784   344.89451093
 H     43  41  15     2.041436952892   126.36969097   182.06329380
 H     45  44  42     2.047097678177   121.10105945   179.58025624
 H     46  45  44     2.045051284662   122.72144639   179.46906377
 H     47  42   2     2.062723288131   106.65128841   315.16475048
 H     47  42   2     2.057569012371   132.46019523    94.52397119
 H     47  42   2     2.058915377895    83.63838232   206.04504406
 H     48  43  41     2.041664347903   127.23657387   181.62955349
 H     50  42   2     2.046925842384   118.77001737    94.71359229

---------------------
BASIS SET INFORMATION
---------------------
There are 3 groups of distinct atoms

 Group   1 Type C   : 17s4p1d contracted to 3s2p1d pattern {881/31/1}
 Group   2 Type N   : 17s4p1d contracted to 3s2p1d pattern {881/31/1}
 Group   3 Type H   : 4s1p contracted to 2s1p pattern {31/1}

Atom   0C    basis set group =>   1
Atom   1N    basis set group =>   2
Atom   2C    basis set group =>   1
Atom   3N    basis set group =>   2
Atom   4C    basis set group =>   1
Atom   5N    basis set group =>   2
Atom   6C    basis set group =>   1
Atom   7N    basis set group =>   2
Atom   8C    basis set group =>   1
Atom   9N    basis set group =>   2
Atom  10C    basis set group =>   1
Atom  11N    basis set group =>   2
Atom  12C    basis set group =>   1
Atom  13N    basis set group =>   2
Atom  14C    basis set group =>   1
Atom  15N    basis set group =>   2
Atom  16C    basis set group =>   1
Atom  17C    basis set group =>   1
Atom  18C    basis set group =>   1
Atom  19C    basis set group =>   1
Atom  20C    basis set group =>   1
Atom  21C    basis set group =>   1
Atom  22C    basis set group =>   1
Atom  23C    basis set group =>   1
Atom  24C    basis set group =>   1
Atom  25C    basis set group =>   1
Atom  26C    basis set group =>   1
Atom  27C    basis set group =>   1
Atom  28C    basis set group =>   1
Atom  29C    basis set group =>   1
Atom  30C    basis set group =>   1
Atom  31C    basis set group =>   1
Atom  32C    basis set group =>   1
Atom  33C    basis set group =>   1
Atom  34C    basis set group =>   1
Atom  35C    basis set group =>   1
Atom  36C    basis set group =>   1
Atom  37C    basis set group =>   1
Atom  38C    basis set group =>   1
Atom  39C    basis set group =>   1
Atom  40C    basis set group =>   1
Atom  41C    basis set group =>   1
Atom  42C    basis set group =>   1
Atom  43C    basis set group =>   1
Atom  44C    basis set group =>   1
Atom  45C    basis set group =>   1
Atom  46C    basis set group =>   1
Atom  47C    basis set group =>   1
Atom  48C    basis set group =>   1
Atom  49C    basis set group =>   1
Atom  50C    basis set group =>   1
Atom  51C    basis set group =>   1
Atom  52H    basis set group =>   3
Atom  53H    basis set group =>   3
Atom  54H    basis set group =>   3
Atom  55H    basis set group =>   3
Atom  56H    basis set group =>   3
Atom  57H    basis set group =>   3
Atom  58H    basis set group =>   3
Atom  59H    basis set group =>   3
Atom  60H    basis set group =>   3
Atom  61H    basis set group =>   3
Atom  62H    basis set group =>   3
Atom  63H    basis set group =>   3
Atom  64H    basis set group =>   3
Atom  65H    basis set group =>   3
Atom  66H    basis set group =>   3
Atom  67H    basis set group =>   3
Atom  68H    basis set group =>   3
Atom  69H    basis set group =>   3
Atom  70H    basis set group =>   3
Atom  71H    basis set group =>   3
Atom  72H    basis set group =>   3
Atom  73H    basis set group =>   3
Atom  74H    basis set group =>   3
Atom  75H    basis set group =>   3
Atom  76H    basis set group =>   3
Atom  77H    basis set group =>   3
Atom  78H    basis set group =>   3
Atom  79H    basis set group =>   3
Atom  80H    basis set group =>   3
Atom  81H    basis set group =>   3
Atom  82H    basis set group =>   3
Atom  83H    basis set group =>   3
Atom  84H    basis set group =>   3
Atom  85H    basis set group =>   3
Atom  86H    basis set group =>   3
Atom  87H    basis set group =>   3
Atom  88H    basis set group =>   3
Atom  89H    basis set group =>   3


           ************************************************************
           *        Program running with 16 parallel MPI-processes    *
           *              working on a common directory               *
           ************************************************************
------------------------------------------------------------------------------
                           ORCA GTO INTEGRAL CALCULATION
------------------------------------------------------------------------------
------------------------------------------------------------------------------
                   ___                                                        
                  /   \      - P O W E R E D   B Y -                         
                 /     \                                                     
                 |  |  |   _    _      __       _____    __    __             
                 |  |  |  | |  | |    /  \     |  _  \  |  |  /  |          
                  \  \/   | |  | |   /    \    | | | |  |  | /  /          
                 / \  \   | |__| |  /  /\  \   | |_| |  |  |/  /          
                |  |  |   |  __  | /  /__\  \  |    /   |      \           
                |  |  |   | |  | | |   __   |  |    \   |  |\   \          
                \     /   | |  | | |  |  |  |  | |\  \  |  | \   \       
                 \___/    |_|  |_| |__|  |__|  |_| \__\ |__|  \__/        
                                                                              
                      - O R C A' S   B I G   F R I E N D -                    
                                      &                                       
                       - I N T E G R A L  F E E D E R -                       
                                                                              
 v1 FN, 2020, v2 2021                                                         
------------------------------------------------------------------------------


Reading SHARK input file /scratch/allen/tmpyp4_amber_gaff2/conf1/conf1/Conf33.orca.SHARKINP.tmp ... ok
----------------------
SHARK INTEGRAL PACKAGE
----------------------

Number of atoms                             ...     90
Number of basis functions                   ...   1230
Number of shells                            ...    738
Maximum angular momentum                    ...      2
Integral batch strategy                     ... SHARK/LIBINT Hybrid
RI-J (if used) integral strategy            ... SPLIT-RIJ (Revised 2003 algorithm where possible)
Printlevel                                  ...      1
Contraction scheme used                     ... PARTIAL GENERAL contraction
Coulomb Range Separation                    ... NOT USED
Exchange Range Separation                   ... NOT USED
Finite Nucleus Model                        ... NOT USED
Auxiliary Coulomb fitting basis             ... NOT available
Auxiliary J/K fitting basis                 ... NOT available
Auxiliary Correlation fitting basis         ... NOT available
Auxiliary 'external' fitting basis          ... NOT available
Integral threshold                          ...     2.500000e-11
Primitive cut-off                           ...     2.500000e-12
Primitive pair pre-selection threshold      ...     2.500000e-12

Calculating pre-screening integrals         ... done (  0.1 sec) Dimension = 738
Calculating pre-screening integrals (ORCA)  ... done (  0.3 sec) Dimension = 426
Organizing shell pair data                  ... done (  0.5 sec)
Shell pair information
Total number of shell pairs                 ...    272691
Shell pairs after pre-screening             ...     71667
Total number of primitive shell pairs       ...    422091
Primitive shell pairs kept                  ...     92520
          la=0 lb=0:  29424 shell pairs
          la=1 lb=0:  26003 shell pairs
          la=1 lb=1:   4705 shell pairs
          la=2 lb=0:   7884 shell pairs
          la=2 lb=1:   3122 shell pairs
          la=2 lb=2:    529 shell pairs

Calculating one electron integrals          ... done (  0.2 sec)
Calculating Nuclear repulsion               ... done (  0.0 sec) ENN=   6231.310230032624 Eh

SHARK setup successfully completed in   1.7 seconds

Maximum memory used throughout the entire GTOINT-calculation: 99.0 MB


           ************************************************************
           *        Program running with 16 parallel MPI-processes    *
           *              working on a common directory               *
           ************************************************************
-------------------------------------------------------------------------------
                                 ORCA SCF
-------------------------------------------------------------------------------

------------
SCF SETTINGS
------------
Hamiltonian:
 Ab initio Hamiltonian  Method          .... Hartree-Fock(GTOs)


General Settings:
 Integral files         IntName         .... /scratch/allen/tmpyp4_amber_gaff2/conf1/conf1/Conf33.orca
 Hartree-Fock type      HFTyp           .... RHF
 Total Charge           Charge          ....    0
 Multiplicity           Mult            ....    1
 Number of Electrons    NEL             ....  358
 Basis Dimension        Dim             ....  918
 Nuclear Repulsion      ENuc            ....   6231.3102300326 Eh

Convergence Acceleration:
 DIIS                   CNVDIIS         .... on
   Start iteration      DIISMaxIt       ....    12
   Startup error        DIISStart       ....  0.200000
   # of expansion vecs  DIISMaxEq       ....     5
   Bias factor          DIISBfac        ....   1.050
   Max. coefficient     DIISMaxC        ....  10.000
 Trust-Rad. Augm. Hess. CNVTRAH         .... auto
   Auto Start mean grad. ratio tolernc. ....  1.125000
   Auto Start start iteration           ....    20
   Auto Start num. interpolation iter.  ....    10
   Max. Number of Micro iterations      ....    16
   Max. Number of Macro iterations      .... Maxiter - #DIIS iter
   Number of Davidson start vectors     ....     2
   Converg. threshold I  (grad. norm)   ....   1.000e-05
   Converg. threshold II (energy diff.) ....   1.000e-08
   Grad. Scal. Fac. for Micro threshold ....   0.100
   Minimum threshold for Micro iter.    ....   0.010
   NR start threshold (gradient norm)   ....   0.001
   Initial trust radius                 ....   0.400
   Minimum AH scaling param. (alpha)    ....   1.000
   Maximum AH scaling param. (alpha)    .... 1000.000
   Orbital update algorithm             .... Taylor
   White noise on init. David. guess    .... on
   Maximum white noise                  ....   0.010
   Quad. conv. algorithm                .... NR
 SOSCF                  CNVSOSCF        .... on
   Start iteration      SOSCFMaxIt      ....   150
   Startup grad/error   SOSCFStart      ....  0.003300
 Level Shifting         CNVShift        .... on
   Level shift para.    LevelShift      ....    0.2500
   Turn off err/grad.   ShiftErr        ....    0.0010
 Zerner damping         CNVZerner       .... off
 Static damping         CNVDamp         .... on
   Fraction old density DampFac         ....    0.7000
   Max. Damping (<1)    DampMax         ....    0.9800
   Min. Damping (>=0)   DampMin         ....    0.0000
   Turn off err/grad.   DampErr         ....    0.1000
 Fernandez-Rico         CNVRico         .... off

SCF Procedure:
 Maximum # iterations   MaxIter         ....   125
 SCF integral mode      SCFMode         .... Direct
   Integral package                     .... SHARK and LIBINT hybrid scheme
 Reset frequency        DirectResetFreq ....    20
 Integral Threshold     Thresh          ....  2.500e-11 Eh
 Primitive CutOff       TCut            ....  2.500e-12 Eh

Convergence Tolerance:
 Convergence Check Mode ConvCheckMode   .... Total+1el-Energy
 Convergence forced     ConvForced      .... 1
 Energy Change          TolE            ....  1.000e-08 Eh
 1-El. energy change                    ....  1.000e-05 Eh
 Orbital Gradient       TolG            ....  1.000e-05
 Orbital Rotation angle TolX            ....  1.000e-05
 DIIS Error             TolErr          ....  5.000e-07


Diagonalization of the overlap matrix:
Smallest eigenvalue                        ... 2.186e-04
Time for diagonalization                   ...    0.401 sec
Threshold for overlap eigenvalues          ... 1.000e-08
Number of eigenvalues below threshold      ... 0
Time for construction of square roots      ...    0.194 sec
Total time needed                          ...    0.600 sec

Time for model grid setup =    1.010 sec

------------------------------
INITIAL GUESS: MODEL POTENTIAL
------------------------------
Loading Hartree-Fock densities                     ... done
Calculating cut-offs                               ... done
Initializing the effective Hamiltonian             ... done
Setting up the integral package (SHARK)            ... done
Starting the Coulomb interaction                   ... done (   1.1 sec)
Reading the grid                                   ... done
Mapping shells                                     ... done
Starting the XC term evaluation                    ... done (   0.2 sec)
Transforming the Hamiltonian                       ... done (   0.2 sec)
Diagonalizing the Hamiltonian                      ... done (   0.3 sec)
Back transforming the eigenvectors                 ... done (   0.1 sec)
Now organizing SCF variables                       ... done
                      ------------------
                      INITIAL GUESS DONE (   2.9 sec)
                      ------------------
--------------
SCF ITERATIONS
--------------
ITER       Energy         Delta-E        Max-DP      RMS-DP      [F,P]     Damp
               ***  Starting incremental Fock matrix formation  ***
  0  -2121.6804296236   0.000000000000 0.07218429  0.00122090  0.2320675 0.7000
  1  -2122.3341367594  -0.653707135800 0.05457132  0.00099328  0.1437809 0.7000
                               ***Turning on DIIS***
  2  -2122.7406819799  -0.406545220420 0.12776564  0.00225313  0.0802431 0.0000
  3  -2117.9314270864   4.809254893447 0.03978756  0.00067768  0.0438503 0.0000
  4  -2123.4168905471  -5.485463460689 0.01216483  0.00022632  0.0082042 0.0000
  5  -2123.5736063487  -0.156715801619 0.00591017  0.00013286  0.0049480 0.0000
  6  -2123.5575978448   0.016008503897 0.00371600  0.00008536  0.0020225 0.0000
  7  -2123.6549440514  -0.097346206576 0.00302749  0.00006723  0.0015713 0.0000
  8  -2123.6659134142  -0.010969362815 0.00319907  0.00006355  0.0014659 0.0000
  9  -2123.6356254493   0.030287964886 0.00255472  0.00004439  0.0011727 0.0000
 10  -2123.6451237433  -0.009498293935 0.00512719  0.00009195  0.0009078 0.0000
                      *** Initiating the SOSCF procedure ***
                           *** Shutting down DIIS ***
                      *** Re-Reading the Fockian *** 
                      *** Removing any level shift *** 
ITER      Energy       Delta-E        Grad      Rot      Max-DP    RMS-DP
 11  -2123.53556097   0.1095627735  0.000191  0.000191  0.000238  0.000005
               *** Restarting incremental Fock matrix formation ***
 12  -2123.60199485  -0.0664338757  0.000875  0.005873  0.001338  0.000034
 13  -2123.60209631  -0.0001014662  0.001079  0.029543  0.006240  0.000132
 14  -2123.60227125  -0.0001749429  0.000342  0.002026  0.000661  0.000012
 15  -2123.60228708  -0.0000158255  0.000181  0.002817  0.000750  0.000018
 16  -2123.60229683  -0.0000097459  0.000158  0.002899  0.000461  0.000010
 17  -2123.60230009  -0.0000032620  0.000146  0.001969  0.000339  0.000008
 18  -2123.60230191  -0.0000018178  0.000074  0.000973  0.000300  0.000005
 19  -2123.60230277  -0.0000008665  0.000045  0.000897  0.000185  0.000004
 20  -2123.60230310  -0.0000003319  0.000027  0.000617  0.000104  0.000003
 21  -2123.60230329  -0.0000001891  0.000025  0.000750  0.000137  0.000003
 22  -2123.60230344  -0.0000001503  0.000021  0.000660  0.000115  0.000002
 23  -2123.60230353  -0.0000000878  0.000013  0.000446  0.000077  0.000001
 24  -2123.60230358  -0.0000000477  0.000008  0.000323  0.000048  0.000001
 25  -2123.60230361  -0.0000000301  0.000009  0.000201  0.000036  0.000001
 26  -2123.60230363  -0.0000000158  0.000007  0.000174  0.000032  0.000001
 27  -2123.60230363  -0.0000000077  0.000004  0.000126  0.000025  0.000001
                  ***Gradient check signals convergence***
              ***Rediagonalizing the Fockian in SOSCF/NRSCF***

               *****************************************************
               *                     SUCCESS                       *
               *           SCF CONVERGED AFTER  28 CYCLES          *
               *****************************************************


----------------
TOTAL SCF ENERGY
----------------

Total Energy       :        -2123.60230363 Eh          -57786.15647 eV

Components:
Nuclear Repulsion  :         6231.31023003 Eh          169562.57175 eV
Electronic Energy  :        -8354.91253367 Eh         -227348.72823 eV
One Electron Energy:       -15303.38661629 Eh         -416426.32053 eV
Two Electron Energy:         6948.47408262 Eh          189077.59231 eV

Virial components:
Potential Energy   :        -4245.79922419 Eh         -115534.07053 eV
Kinetic Energy     :         2122.19692056 Eh           57747.91406 eV
Virial Ratio       :            2.00066223


---------------
SCF CONVERGENCE
---------------

  Last Energy change         ...   -9.7680e-10  Tolerance :   1.0000e-08
  Last MAX-Density change    ...    1.2996e-05  Tolerance :   1.0000e-07
  Last RMS-Density change    ...    2.7484e-07  Tolerance :   5.0000e-09
  Last Orbital Gradient      ...    2.3749e-06  Tolerance :   1.0000e-05
  Last Orbital Rotation      ...    7.1198e-05  Tolerance :   1.0000e-05

             **** THE GBW FILE WAS UPDATED (/scratch/allen/tmpyp4_amber_gaff2/conf1/conf1/Conf33.orca.gbw) ****
             **** DENSITY /scratch/allen/tmpyp4_amber_gaff2/conf1/conf1/Conf33.orca.scfp WAS UPDATED ****
             **** ENERGY FILE WAS UPDATED (/scratch/allen/tmpyp4_amber_gaff2/conf1/conf1/Conf33.orca.en.tmp) ****
             **** THE GBW FILE WAS UPDATED (/scratch/allen/tmpyp4_amber_gaff2/conf1/conf1/Conf33.orca.gbw) ****
             **** DENSITY /scratch/allen/tmpyp4_amber_gaff2/conf1/conf1/Conf33.orca.scfp WAS UPDATED ****
----------------
ORBITAL ENERGIES
----------------

  NO   OCC          E(Eh)            E(eV) 
   0   2.0000     -15.672138      -426.4605 
   1   2.0000     -15.634606      -425.4393 
   2   2.0000     -15.631051      -425.3425 
   3   2.0000     -15.592368      -424.2899 
   4   2.0000     -15.524405      -422.4405 
   5   2.0000     -15.516270      -422.2192 
   6   2.0000     -15.452289      -420.4782 
   7   2.0000     -15.441452      -420.1833 
   8   2.0000     -11.323220      -308.1205 
   9   2.0000     -11.323198      -308.1199 
  10   2.0000     -11.321786      -308.0815 
  11   2.0000     -11.299721      -307.4810 
  12   2.0000     -11.297830      -307.4296 
  13   2.0000     -11.293143      -307.3021 
  14   2.0000     -11.290068      -307.2184 
  15   2.0000     -11.287522      -307.1491 
  16   2.0000     -11.286277      -307.1152 
  17   2.0000     -11.274875      -306.8050 
  18   2.0000     -11.273965      -306.7802 
  19   2.0000     -11.258024      -306.3464 
  20   2.0000     -11.257674      -306.3369 
  21   2.0000     -11.257067      -306.3204 
  22   2.0000     -11.255398      -306.2750 
  23   2.0000     -11.238260      -305.8086 
  24   2.0000     -11.235808      -305.7419 
  25   2.0000     -11.231659      -305.6290 
  26   2.0000     -11.230850      -305.6070 
  27   2.0000     -11.229149      -305.5607 
  28   2.0000     -11.229052      -305.5580 
  29   2.0000     -11.209308      -305.0208 
  30   2.0000     -11.208115      -304.9883 
  31   2.0000     -11.201292      -304.8027 
  32   2.0000     -11.194435      -304.6160 
  33   2.0000     -11.192056      -304.5513 
  34   2.0000     -11.190508      -304.5092 
  35   2.0000     -11.189490      -304.4815 
  36   2.0000     -11.188186      -304.4460 
  37   2.0000     -11.185477      -304.3723 
  38   2.0000     -11.184378      -304.3424 
  39   2.0000     -11.172437      -304.0175 
  40   2.0000     -11.171958      -304.0044 
  41   2.0000     -11.170239      -303.9576 
  42   2.0000     -11.166838      -303.8651 
  43   2.0000     -11.161557      -303.7214 
  44   2.0000     -11.159382      -303.6622 
  45   2.0000     -11.158616      -303.6414 
  46   2.0000     -11.158016      -303.6251 
  47   2.0000     -11.154064      -303.5175 
  48   2.0000     -11.148546      -303.3674 
  49   2.0000     -11.140593      -303.1509 
  50   2.0000     -11.132720      -302.9367 
  51   2.0000     -11.123429      -302.6839 
  52   2.0000      -1.353879       -36.8409 
  53   2.0000      -1.321771       -35.9672 
  54   2.0000      -1.318919       -35.8896 
  55   2.0000      -1.286036       -34.9948 
  56   2.0000      -1.224877       -33.3306 
  57   2.0000      -1.210786       -32.9472 
  58   2.0000      -1.171162       -31.8689 
  59   2.0000      -1.152333       -31.3566 
  60   2.0000      -1.138210       -30.9723 
  61   2.0000      -1.110635       -30.2219 
  62   2.0000      -1.108401       -30.1611 
  63   2.0000      -1.081870       -29.4392 
  64   2.0000      -1.076047       -29.2807 
  65   2.0000      -1.045926       -28.4611 
  66   2.0000      -1.043624       -28.3985 
  67   2.0000      -1.037506       -28.2320 
  68   2.0000      -1.014831       -27.6150 
  69   2.0000      -1.014269       -27.5997 
  70   2.0000      -1.009795       -27.4779 
  71   2.0000      -0.992493       -27.0071 
  72   2.0000      -0.987144       -26.8616 
  73   2.0000      -0.979302       -26.6482 
  74   2.0000      -0.972502       -26.4631 
  75   2.0000      -0.960714       -26.1423 
  76   2.0000      -0.952922       -25.9303 
  77   2.0000      -0.946730       -25.7618 
  78   2.0000      -0.935203       -25.4482 
  79   2.0000      -0.919686       -25.0259 
  80   2.0000      -0.905197       -24.6317 
  81   2.0000      -0.893369       -24.3098 
  82   2.0000      -0.874394       -23.7935 
  83   2.0000      -0.871689       -23.7199 
  84   2.0000      -0.868489       -23.6328 
  85   2.0000      -0.856594       -23.3091 
  86   2.0000      -0.841787       -22.9062 
  87   2.0000      -0.836273       -22.7561 
  88   2.0000      -0.823902       -22.4195 
  89   2.0000      -0.798027       -21.7154 
  90   2.0000      -0.792243       -21.5580 
  91   2.0000      -0.749425       -20.3929 
  92   2.0000      -0.741554       -20.1787 
  93   2.0000      -0.732531       -19.9332 
  94   2.0000      -0.723735       -19.6938 
  95   2.0000      -0.721605       -19.6359 
  96   2.0000      -0.715391       -19.4668 
  97   2.0000      -0.710269       -19.3274 
  98   2.0000      -0.706164       -19.2157 
  99   2.0000      -0.696230       -18.9454 
 100   2.0000      -0.696067       -18.9409 
 101   2.0000      -0.684066       -18.6144 
 102   2.0000      -0.679495       -18.4900 
 103   2.0000      -0.678940       -18.4749 
 104   2.0000      -0.678004       -18.4494 
 105   2.0000      -0.673005       -18.3134 
 106   2.0000      -0.668663       -18.1952 
 107   2.0000      -0.661024       -17.9874 
 108   2.0000      -0.655817       -17.8457 
 109   2.0000      -0.653574       -17.7847 
 110   2.0000      -0.650663       -17.7054 
 111   2.0000      -0.643286       -17.5047 
 112   2.0000      -0.640971       -17.4417 
 113   2.0000      -0.640374       -17.4254 
 114   2.0000      -0.637911       -17.3584 
 115   2.0000      -0.627388       -17.0721 
 116   2.0000      -0.625458       -17.0196 
 117   2.0000      -0.618458       -16.8291 
 118   2.0000      -0.612925       -16.6785 
 119   2.0000      -0.612136       -16.6571 
 120   2.0000      -0.610840       -16.6218 
 121   2.0000      -0.606557       -16.5053 
 122   2.0000      -0.600567       -16.3423 
 123   2.0000      -0.586642       -15.9633 
 124   2.0000      -0.582277       -15.8446 
 125   2.0000      -0.580586       -15.7985 
 126   2.0000      -0.579530       -15.7698 
 127   2.0000      -0.576300       -15.6819 
 128   2.0000      -0.566505       -15.4154 
 129   2.0000      -0.559079       -15.2133 
 130   2.0000      -0.551753       -15.0140 
 131   2.0000      -0.547769       -14.9055 
 132   2.0000      -0.542272       -14.7560 
 133   2.0000      -0.539925       -14.6921 
 134   2.0000      -0.538138       -14.6435 
 135   2.0000      -0.535586       -14.5740 
 136   2.0000      -0.527545       -14.3552 
 137   2.0000      -0.523204       -14.2371 
 138   2.0000      -0.516677       -14.0595 
 139   2.0000      -0.513738       -13.9795 
 140   2.0000      -0.512651       -13.9499 
 141   2.0000      -0.511414       -13.9163 
 142   2.0000      -0.508998       -13.8506 
 143   2.0000      -0.503748       -13.7077 
 144   2.0000      -0.501539       -13.6476 
 145   2.0000      -0.497214       -13.5299 
 146   2.0000      -0.493333       -13.4243 
 147   2.0000      -0.484289       -13.1782 
 148   2.0000      -0.480451       -13.0737 
 149   2.0000      -0.466881       -12.7045 
 150   2.0000      -0.465800       -12.6751 
 151   2.0000      -0.457177       -12.4404 
 152   2.0000      -0.450300       -12.2533 
 153   2.0000      -0.445384       -12.1195 
 154   2.0000      -0.441954       -12.0262 
 155   2.0000      -0.434076       -11.8118 
 156   2.0000      -0.429208       -11.6793 
 157   2.0000      -0.417336       -11.3563 
 158   2.0000      -0.404035       -10.9944 
 159   2.0000      -0.388214       -10.5638 
 160   2.0000      -0.382668       -10.4129 
 161   2.0000      -0.378349       -10.2954 
 162   2.0000      -0.370052       -10.0696 
 163   2.0000      -0.357048        -9.7158 
 164   2.0000      -0.355296        -9.6681 
 165   2.0000      -0.340203        -9.2574 
 166   2.0000      -0.337428        -9.1819 
 167   2.0000      -0.326586        -8.8869 
 168   2.0000      -0.325629        -8.8608 
 169   2.0000      -0.303661        -8.2630 
 170   2.0000      -0.299784        -8.1575 
 171   2.0000      -0.286177        -7.7873 
 172   2.0000      -0.282379        -7.6839 
 173   2.0000      -0.262471        -7.1422 
 174   2.0000      -0.243166        -6.6169 
 175   2.0000      -0.189809        -5.1650 
 176   2.0000      -0.180164        -4.9025 
 177   2.0000      -0.075181        -2.0458 
 178   2.0000      -0.058221        -1.5843 
 179   0.0000       0.028591         0.7780 
 180   0.0000       0.066606         1.8124 
 181   0.0000       0.091365         2.4862 
 182   0.0000       0.109240         2.9726 
 183   0.0000       0.111249         3.0272 
 184   0.0000       0.136696         3.7197 
 185   0.0000       0.139779         3.8036 
 186   0.0000       0.144912         3.9433 
 187   0.0000       0.163166         4.4400 
 188   0.0000       0.164766         4.4835 
 189   0.0000       0.166114         4.5202 
 190   0.0000       0.168579         4.5873 
 191   0.0000       0.184393         5.0176 
 192   0.0000       0.186041         5.0624 
 193   0.0000       0.187795         5.1102 
 194   0.0000       0.204578         5.5669 
 195   0.0000       0.206030         5.6064 
 196   0.0000       0.207893         5.6571 
 197   0.0000       0.209056         5.6887 
 198   0.0000       0.220250         5.9933 
 199   0.0000       0.226009         6.1500 
 200   0.0000       0.230334         6.2677 
 201   0.0000       0.237309         6.4575 
 202   0.0000       0.239139         6.5073 
 203   0.0000       0.240186         6.5358 
 204   0.0000       0.248745         6.7687 
 205   0.0000       0.256571         6.9816 
 206   0.0000       0.256675         6.9845 
 207   0.0000       0.258056         7.0221 
 208   0.0000       0.258624         7.0375 
 209   0.0000       0.262372         7.1395 
 210   0.0000       0.262798         7.1511 
 211   0.0000       0.268832         7.3153 
 212   0.0000       0.270983         7.3738 
 213   0.0000       0.272538         7.4161 
 214   0.0000       0.273158         7.4330 
 215   0.0000       0.275861         7.5066 
 216   0.0000       0.278287         7.5726 
 217   0.0000       0.282209         7.6793 
 218   0.0000       0.285943         7.7809 
 219   0.0000       0.288131         7.8404 
 220   0.0000       0.289968         7.8904 
 221   0.0000       0.292477         7.9587 
 222   0.0000       0.295161         8.0317 
 223   0.0000       0.296346         8.0640 
 224   0.0000       0.297417         8.0931 
 225   0.0000       0.298519         8.1231 
 226   0.0000       0.306099         8.3294 
 227   0.0000       0.308033         8.3820 
 228   0.0000       0.309941         8.4339 
 229   0.0000       0.324648         8.8341 
 230   0.0000       0.326188         8.8760 
 231   0.0000       0.329495         8.9660 
 232   0.0000       0.334741         9.1088 
 233   0.0000       0.338999         9.2246 
 234   0.0000       0.352079         9.5806 
 235   0.0000       0.354281         9.6405 
 236   0.0000       0.371173        10.1001 
 237   0.0000       0.378688        10.3046 
 238   0.0000       0.393964        10.7203 
 239   0.0000       0.396827        10.7982 
 240   0.0000       0.400466        10.8972 
 241   0.0000       0.411429        11.1956 
 242   0.0000       0.415818        11.3150 
 243   0.0000       0.419850        11.4247 
 244   0.0000       0.429260        11.6808 
 245   0.0000       0.433877        11.8064 
 246   0.0000       0.436054        11.8656 
 247   0.0000       0.441165        12.0047 
 248   0.0000       0.441707        12.0195 
 249   0.0000       0.449078        12.2200 
 250   0.0000       0.454383        12.3644 
 251   0.0000       0.459538        12.5047 
 252   0.0000       0.467372        12.7178 
 253   0.0000       0.469603        12.7785 
 254   0.0000       0.472014        12.8442 
 255   0.0000       0.472788        12.8652 
 256   0.0000       0.478637        13.0244 
 257   0.0000       0.481769        13.1096 
 258   0.0000       0.486633        13.2420 
 259   0.0000       0.497919        13.5491 
 260   0.0000       0.504260        13.7216 
 261   0.0000       0.504582        13.7304 
 262   0.0000       0.506933        13.7944 
 263   0.0000       0.508030        13.8242 
 264   0.0000       0.514308        13.9950 
 265   0.0000       0.519366        14.1327 
 266   0.0000       0.524707        14.2780 
 267   0.0000       0.529938        14.4203 
 268   0.0000       0.531530        14.4637 
 269   0.0000       0.537007        14.6127 
 270   0.0000       0.540323        14.7029 
 271   0.0000       0.547242        14.8912 
 272   0.0000       0.553057        15.0494 
 273   0.0000       0.559189        15.2163 
 274   0.0000       0.561407        15.2767 
 275   0.0000       0.564748        15.3676 
 276   0.0000       0.571140        15.5415 
 277   0.0000       0.571354        15.5473 
 278   0.0000       0.577525        15.7153 
 279   0.0000       0.586653        15.9636 
 280   0.0000       0.589380        16.0378 
 281   0.0000       0.592985        16.1360 
 282   0.0000       0.593731        16.1562 
 283   0.0000       0.595295        16.1988 
 284   0.0000       0.597988        16.2721 
 285   0.0000       0.600185        16.3319 
 286   0.0000       0.607607        16.5338 
 287   0.0000       0.612606        16.6698 
 288   0.0000       0.615787        16.7564 
 289   0.0000       0.621658        16.9162 
 290   0.0000       0.627005        17.0617 
 291   0.0000       0.629644        17.1335 
 292   0.0000       0.634110        17.2550 
 293   0.0000       0.638235        17.3672 
 294   0.0000       0.645898        17.5758 
 295   0.0000       0.647909        17.6305 
 296   0.0000       0.653754        17.7896 
 297   0.0000       0.656247        17.8574 
 298   0.0000       0.663571        18.0567 
 299   0.0000       0.668142        18.1811 
 300   0.0000       0.670610        18.2482 
 301   0.0000       0.675011        18.3680 
 302   0.0000       0.676836        18.4177 
 303   0.0000       0.680078        18.5059 
 304   0.0000       0.680462        18.5163 
 305   0.0000       0.685752        18.6603 
 306   0.0000       0.688300        18.7296 
 307   0.0000       0.690746        18.7962 
 308   0.0000       0.695767        18.9328 
 309   0.0000       0.697893        18.9906 
 310   0.0000       0.702841        19.1253 
 311   0.0000       0.703784        19.1509 
 312   0.0000       0.708053        19.2671 
 313   0.0000       0.709755        19.3134 
 314   0.0000       0.711407        19.3584 
 315   0.0000       0.715378        19.4664 
 316   0.0000       0.717193        19.5158 
 317   0.0000       0.718924        19.5629 
 318   0.0000       0.720206        19.5978 
 319   0.0000       0.723716        19.6933 
 320   0.0000       0.725743        19.7485 
 321   0.0000       0.731569        19.9070 
 322   0.0000       0.732904        19.9433 
 323   0.0000       0.734099        19.9758 
 324   0.0000       0.735600        20.0167 
 325   0.0000       0.740206        20.1420 
 326   0.0000       0.743606        20.2346 
 327   0.0000       0.746685        20.3183 
 328   0.0000       0.750007        20.4087 
 329   0.0000       0.750189        20.4137 
 330   0.0000       0.754005        20.5175 
 331   0.0000       0.757534        20.6136 
 332   0.0000       0.760457        20.6931 
 333   0.0000       0.763924        20.7874 
 334   0.0000       0.767637        20.8885 
 335   0.0000       0.772728        21.0270 
 336   0.0000       0.773851        21.0576 
 337   0.0000       0.780646        21.2424 
 338   0.0000       0.782746        21.2996 
 339   0.0000       0.788944        21.4683 
 340   0.0000       0.792091        21.5539 
 341   0.0000       0.794877        21.6297 
 342   0.0000       0.795942        21.6587 
 343   0.0000       0.803456        21.8631 
 344   0.0000       0.805106        21.9081 
 345   0.0000       0.807894        21.9839 
 346   0.0000       0.808470        21.9996 
 347   0.0000       0.811433        22.0802 
 348   0.0000       0.815135        22.1810 
 349   0.0000       0.818705        22.2781 
 350   0.0000       0.819103        22.2889 
 351   0.0000       0.822597        22.3840 
 352   0.0000       0.825348        22.4589 
 353   0.0000       0.825538        22.4640 
 354   0.0000       0.827000        22.5038 
 355   0.0000       0.831638        22.6300 
 356   0.0000       0.833188        22.6722 
 357   0.0000       0.836601        22.7651 
 358   0.0000       0.837056        22.7774 
 359   0.0000       0.838829        22.8257 
 360   0.0000       0.839199        22.8358 
 361   0.0000       0.843156        22.9434 
 362   0.0000       0.844383        22.9768 
 363   0.0000       0.847383        23.0585 
 364   0.0000       0.848187        23.0804 
 365   0.0000       0.853714        23.2307 
 366   0.0000       0.856954        23.3189 
 367   0.0000       0.860280        23.4094 
 368   0.0000       0.863985        23.5102 
 369   0.0000       0.866556        23.5802 
 370   0.0000       0.869443        23.6588 
 371   0.0000       0.872571        23.7439 
 372   0.0000       0.873303        23.7638 
 373   0.0000       0.876283        23.8449 
 374   0.0000       0.879758        23.9394 
 375   0.0000       0.884177        24.0597 
 376   0.0000       0.886441        24.1213 
 377   0.0000       0.888370        24.1738 
 378   0.0000       0.889503        24.2046 
 379   0.0000       0.892816        24.2948 
 380   0.0000       0.897207        24.4142 
 381   0.0000       0.899732        24.4830 
 382   0.0000       0.900680        24.5088 
 383   0.0000       0.901395        24.5282 
 384   0.0000       0.903727        24.5917 
 385   0.0000       0.904779        24.6203 
 386   0.0000       0.907657        24.6986 
 387   0.0000       0.908661        24.7259 
 388   0.0000       0.911067        24.7914 
 389   0.0000       0.916464        24.9383 
 390   0.0000       0.921004        25.0618 
 391   0.0000       0.923911        25.1409 
 392   0.0000       0.925357        25.1802 
 393   0.0000       0.927071        25.2269 
 394   0.0000       0.927185        25.2300 
 395   0.0000       0.929997        25.3065 
 396   0.0000       0.934212        25.4212 
 397   0.0000       0.938669        25.5425 
 398   0.0000       0.940741        25.5989 
 399   0.0000       0.942815        25.6553 
 400   0.0000       0.944028        25.6883 
 401   0.0000       0.948707        25.8156 
 402   0.0000       0.953117        25.9356 
 403   0.0000       0.956291        26.0220 
 404   0.0000       0.959927        26.1209 
 405   0.0000       0.962887        26.2015 
 406   0.0000       0.964539        26.2464 
 407   0.0000       0.969883        26.3919 
 408   0.0000       0.971145        26.4262 
 409   0.0000       0.978630        26.6299 
 410   0.0000       0.981540        26.7091 
 411   0.0000       0.986252        26.8373 
 412   0.0000       0.988911        26.9096 
 413   0.0000       0.996635        27.1198 
 414   0.0000       0.999611        27.2008 
 415   0.0000       1.000908        27.2361 
 416   0.0000       1.005428        27.3591 
 417   0.0000       1.011835        27.5334 
 418   0.0000       1.021531        27.7973 
 419   0.0000       1.022166        27.8146 
 420   0.0000       1.028344        27.9827 
 421   0.0000       1.031793        28.0765 
 422   0.0000       1.035675        28.1821 
 423   0.0000       1.044017        28.4092 
 424   0.0000       1.050403        28.5829 
 425   0.0000       1.054958        28.7069 
 426   0.0000       1.057578        28.7782 
 427   0.0000       1.064850        28.9760 
 428   0.0000       1.075030        29.2530 
 429   0.0000       1.080060        29.3899 
 430   0.0000       1.081495        29.4290 
 431   0.0000       1.084578        29.5129 
 432   0.0000       1.089655        29.6510 
 433   0.0000       1.091755        29.7082 
 434   0.0000       1.100378        29.9428 
 435   0.0000       1.101078        29.9618 
 436   0.0000       1.106238        30.1023 
 437   0.0000       1.110723        30.2243 
 438   0.0000       1.115043        30.3419 
 439   0.0000       1.118126        30.4257 
 440   0.0000       1.120347        30.4862 
 441   0.0000       1.122536        30.5458 
 442   0.0000       1.124442        30.5976 
 443   0.0000       1.127810        30.6893 
 444   0.0000       1.133862        30.8540 
 445   0.0000       1.136146        30.9161 
 446   0.0000       1.140350        31.0305 
 447   0.0000       1.143870        31.1263 
 448   0.0000       1.145327        31.1659 
 449   0.0000       1.149661        31.2839 
 450   0.0000       1.152226        31.3537 
 451   0.0000       1.158903        31.5353 
 452   0.0000       1.160158        31.5695 
 453   0.0000       1.165655        31.7191 
 454   0.0000       1.167670        31.7739 
 455   0.0000       1.170009        31.8376 
 456   0.0000       1.172001        31.8918 
 457   0.0000       1.176493        32.0140 
 458   0.0000       1.183029        32.1919 
 459   0.0000       1.185468        32.2582 
 460   0.0000       1.193721        32.4828 
 461   0.0000       1.197699        32.5911 
 462   0.0000       1.200103        32.6565 
 463   0.0000       1.205716        32.8092 
 464   0.0000       1.208149        32.8754 
 465   0.0000       1.210216        32.9316 
 466   0.0000       1.216979        33.1157 
 467   0.0000       1.218454        33.1558 
 468   0.0000       1.221016        33.2255 
 469   0.0000       1.225939        33.3595 
 470   0.0000       1.228402        33.4265 
 471   0.0000       1.230805        33.4919 
 472   0.0000       1.234638        33.5962 
 473   0.0000       1.235268        33.6134 
 474   0.0000       1.243127        33.8272 
 475   0.0000       1.243532        33.8382 
 476   0.0000       1.249017        33.9875 
 477   0.0000       1.250562        34.0295 
 478   0.0000       1.251787        34.0629 
 479   0.0000       1.254745        34.1433 
 480   0.0000       1.257948        34.2305 
 481   0.0000       1.264237        34.4017 
 482   0.0000       1.264648        34.4128 
 483   0.0000       1.269820        34.5536 
 484   0.0000       1.273442        34.6521 
 485   0.0000       1.278064        34.7779 
 486   0.0000       1.282364        34.8949 
 487   0.0000       1.284629        34.9565 
 488   0.0000       1.287523        35.0353 
 489   0.0000       1.290692        35.1215 
 490   0.0000       1.294847        35.2346 
 491   0.0000       1.296884        35.2900 
 492   0.0000       1.300570        35.3903 
 493   0.0000       1.309471        35.6325 
 494   0.0000       1.311288        35.6819 
 495   0.0000       1.316770        35.8311 
 496   0.0000       1.321326        35.9551 
 497   0.0000       1.324127        36.0313 
 498   0.0000       1.325528        36.0695 
 499   0.0000       1.328484        36.1499 
 500   0.0000       1.333037        36.2738 
 501   0.0000       1.334477        36.3130 
 502   0.0000       1.339128        36.4395 
 503   0.0000       1.342668        36.5359 
 504   0.0000       1.346094        36.6291 
 505   0.0000       1.351143        36.7665 
 506   0.0000       1.352411        36.8010 
 507   0.0000       1.356156        36.9029 
 508   0.0000       1.358701        36.9721 
 509   0.0000       1.361917        37.0596 
[...]
      pz      :     0.022092  p :     0.079742
      px      :     0.043556
      py      :     0.014094
 77 H s       :     0.885357  s :     0.885357
      pz      :     0.047914  p :     0.079218
      px      :     0.015021
      py      :     0.016283
 78 H s       :     0.885712  s :     0.885712
      pz      :     0.025850  p :     0.079181
      px      :     0.020473
      py      :     0.032857
 79 H s       :     0.910410  s :     0.910410
      pz      :     0.021857  p :     0.086383
      px      :     0.021679
      py      :     0.042848
 80 H s       :     0.865576  s :     0.865576
      pz      :     0.039296  p :     0.084694
      px      :     0.030214
      py      :     0.015184
 81 H s       :     0.886951  s :     0.886951
      pz      :     0.037805  p :     0.084086
      px      :     0.016180
      py      :     0.030101
 82 H s       :     0.915815  s :     0.915815
      pz      :     0.021973  p :     0.086750
      px      :     0.031603
      py      :     0.033173
 83 H s       :     0.873261  s :     0.873261
      pz      :     0.039276  p :     0.084074
      px      :     0.015271
      py      :     0.029527
 84 H s       :     0.886733  s :     0.886733
      pz      :     0.035776  p :     0.083489
      px      :     0.031701
      py      :     0.016011
 85 H s       :     0.892962  s :     0.892962
      pz      :     0.022493  p :     0.079782
      px      :     0.014073
      py      :     0.043217
 86 H s       :     0.890948  s :     0.890948
      pz      :     0.024730  p :     0.078835
      px      :     0.032983
      py      :     0.021122
 87 H s       :     0.889948  s :     0.889948
      pz      :     0.048002  p :     0.078731
      px      :     0.015591
      py      :     0.015139
 88 H s       :     0.911057  s :     0.911057
      pz      :     0.021681  p :     0.087002
      px      :     0.042877
      py      :     0.022444
 89 H s       :     0.871635  s :     0.871635
      pz      :     0.037930  p :     0.083829
      px      :     0.030470
      py      :     0.015429


                      *****************************
                      * MAYER POPULATION ANALYSIS *
                      *****************************

  NA   - Mulliken gross atomic population
  ZA   - Total nuclear charge
  QA   - Mulliken gross atomic charge
  VA   - Mayer's total valence
  BVA  - Mayer's bonded valence
  FA   - Mayer's free valence

  ATOM       NA         ZA         QA         VA         BVA        FA
  0 C      5.7908     6.0000     0.2092     3.8408     3.8408    -0.0000
  1 N      7.4550     7.0000    -0.4550     3.3328     3.3328     0.0000
  2 C      6.0650     6.0000    -0.0650     3.9202     3.9202     0.0000
  3 N      7.3370     7.0000    -0.3370     3.4570     3.4570    -0.0000
  4 C      6.0483     6.0000    -0.0483     4.0237     4.0237     0.0000
  5 N      7.5641     7.0000    -0.5641     3.0939     3.0939    -0.0000
  6 C      6.1076     6.0000    -0.1076     3.9913     3.9913     0.0000
  7 N      7.3401     7.0000    -0.3401     3.4347     3.4347     0.0000
  8 C      5.7941     6.0000     0.2059     3.8408     3.8408    -0.0000
  9 N      7.5624     7.0000    -0.5624     3.0782     3.0782    -0.0000
 10 C      5.8810     6.0000     0.1190     3.9081     3.9081     0.0000
 11 N      7.4383     7.0000    -0.4383     3.3787     3.3787     0.0000
 12 C      6.0825     6.0000    -0.0825     3.9008     3.9008    -0.0000
 13 N      7.4312     7.0000    -0.4312     3.4199     3.4199     0.0000
 14 C      5.7656     6.0000     0.2344     3.7841     3.7841    -0.0000
 15 N      7.4410     7.0000    -0.4410     3.3719     3.3719    -0.0000
 16 C      5.7719     6.0000     0.2281     3.7798     3.7798    -0.0000
 17 C      6.1199     6.0000    -0.1199     3.9988     3.9988    -0.0000
 18 C      6.1966     6.0000    -0.1966     3.7674     3.7674     0.0000
 19 C      5.7731     6.0000     0.2269     3.8617     3.8617    -0.0000
 20 C      5.7874     6.0000     0.2126     3.8287     3.8287    -0.0000
 21 C      6.0936     6.0000    -0.0936     3.8849     3.8849     0.0000
 22 C      6.0910     6.0000    -0.0910     3.9828     3.9828    -0.0000
 23 C      6.0408     6.0000    -0.0408     3.9924     3.9924    -0.0000
 24 C      5.8047     6.0000     0.1953     3.8216     3.8216    -0.0000
 25 C      5.8855     6.0000     0.1145     3.8913     3.8913     0.0000
 26 C      6.0805     6.0000    -0.0805     3.9095     3.9095     0.0000
 27 C      5.7867     6.0000     0.2133     3.8647     3.8647     0.0000
 28 C      6.0605     6.0000    -0.0605     3.9886     3.9886    -0.0000
 29 C      6.1805     6.0000    -0.1805     3.7443     3.7443     0.0000
 30 C      5.7554     6.0000     0.2446     3.7996     3.7996     0.0000
 31 C      5.7729     6.0000     0.2271     3.8191     3.8191     0.0000
 32 C      6.0623     6.0000    -0.0623     3.9224     3.9224     0.0000
 33 C      6.0639     6.0000    -0.0639     3.9743     3.9743    -0.0000
 34 C      6.0509     6.0000    -0.0509     3.9851     3.9851     0.0000
 35 C      5.7758     6.0000     0.2242     3.8182     3.8182    -0.0000
 36 C      5.8908     6.0000     0.1092     3.8776     3.8776     0.0000
 37 C      6.0647     6.0000    -0.0647     3.9176     3.9176     0.0000
 38 C      5.7678     6.0000     0.2322     3.8001     3.8001    -0.0000
 39 C      6.0583     6.0000    -0.0583     3.9845     3.9845    -0.0000
 40 C      6.1825     6.0000    -0.1825     3.7297     3.7297     0.0000
 41 C      5.7748     6.0000     0.2252     3.8858     3.8858     0.0000
 42 C      5.8019     6.0000     0.1981     3.8261     3.8261    -0.0000
 43 C      6.0724     6.0000    -0.0724     3.9004     3.9004     0.0000
 44 C      6.0896     6.0000    -0.0896     3.9849     3.9849     0.0000
 45 C      6.0600     6.0000    -0.0600     3.9924     3.9924     0.0000
 46 C      5.7897     6.0000     0.2103     3.8281     3.8281     0.0000
 47 C      5.8846     6.0000     0.1154     3.8931     3.8931     0.0000
 48 C      6.0680     6.0000    -0.0680     3.9089     3.9089    -0.0000
 49 C      5.7630     6.0000     0.2370     3.8923     3.8923    -0.0000
 50 C      6.0475     6.0000    -0.0475     3.9905     3.9905     0.0000
 51 C      6.1914     6.0000    -0.1914     3.7360     3.7360    -0.0000
 52 H      0.9597     1.0000     0.0403     0.9859     0.9859    -0.0000
 53 H      1.0165     1.0000    -0.0165     0.9983     0.9983     0.0000
 54 H      0.9473     1.0000     0.0527     1.0154     1.0154    -0.0000
 55 H      0.9607     1.0000     0.0393     0.9867     0.9867     0.0000
 56 H      0.9500     1.0000     0.0500     0.9697     0.9697     0.0000
 57 H      0.9514     1.0000     0.0486     0.9830     0.9830     0.0000
 58 H      0.9522     1.0000     0.0478     0.9848     0.9848    -0.0000
 59 H      0.9988     1.0000     0.0012     1.0032     1.0032     0.0000
 60 H      0.9513     1.0000     0.0487     1.0138     1.0138    -0.0000
 61 H      0.8287     1.0000     0.1713     1.0421     1.0421     0.0000
 62 H      0.8249     1.0000     0.1751     1.0435     1.0435     0.0000
 63 H      0.9447     1.0000     0.0553     0.9853     0.9853    -0.0000
 64 H      1.0084     1.0000    -0.0084     0.9973     0.9973    -0.0000
 65 H      0.9527     1.0000     0.0473     1.0095     1.0095     0.0000
 66 H      0.9440     1.0000     0.0560     0.9854     0.9854    -0.0000
 67 H      0.9377     1.0000     0.0623     0.9719     0.9719     0.0000
 68 H      0.9426     1.0000     0.0574     0.9868     0.9868    -0.0000
 69 H      0.9433     1.0000     0.0567     0.9828     0.9828     0.0000
 70 H      1.0290     1.0000    -0.0290     0.9935     0.9935    -0.0000
 71 H      0.9550     1.0000     0.0450     1.0060     1.0060     0.0000
 72 H      0.9311     1.0000     0.0689     0.9838     0.9838     0.0000
 73 H      1.0088     1.0000    -0.0088     1.0006     1.0006     0.0000
 74 H      0.9418     1.0000     0.0582     1.0100     1.0100     0.0000
 75 H      0.9317     1.0000     0.0683     0.9841     0.9841    -0.0000
 76 H      0.9272     1.0000     0.0728     0.9721     0.9721     0.0000
 77 H      0.9336     1.0000     0.0664     0.9854     0.9854     0.0000
 78 H      0.9343     1.0000     0.0657     0.9853     0.9853     0.0000
 79 H      1.0161     1.0000    -0.0161     0.9978     0.9978     0.0000
 80 H      0.9410     1.0000     0.0590     1.0072     1.0072    -0.0000
 81 H      0.9460     1.0000     0.0540     0.9856     0.9856     0.0000
 82 H      1.0246     1.0000    -0.0246     0.9936     0.9936     0.0000
 83 H      0.9579     1.0000     0.0421     1.0084     1.0084     0.0000
 84 H      0.9460     1.0000     0.0540     0.9853     0.9853    -0.0000
 85 H      0.9394     1.0000     0.0606     0.9716     0.9716     0.0000
 86 H      0.9444     1.0000     0.0556     0.9839     0.9839     0.0000
 87 H      0.9430     1.0000     0.0570     0.9856     0.9856     0.0000
 88 H      1.0154     1.0000    -0.0154     0.9964     0.9964    -0.0000
 89 H      0.9541     1.0000     0.0459     1.0074     1.0074     0.0000

  Mayer bond orders larger than 0.100000
B(  0-C ,  1-N ) :   1.0950 B(  0-C , 17-C ) :   1.6977 B(  0-C , 52-H ) :   0.9673 
B(  1-N ,  8-C ) :   1.0873 B(  1-N , 10-C ) :   0.9765 B(  2-C , 12-C ) :   1.5093 
B(  2-C , 16-C ) :   1.3542 B(  2-C , 53-H ) :   0.9754 B(  3-N , 14-C ) :   1.2182 
B(  3-N , 16-C ) :   1.1901 B(  3-N , 61-H ) :   0.8990 B(  4-C ,  6-C ) :   1.2138 
B(  4-C , 17-C ) :   1.2159 B(  4-C , 18-C ) :   1.4277 B(  5-N , 19-C ) :   1.4500 
B(  5-N , 27-C ) :   1.3806 B(  6-C ,  8-C ) :   1.7055 B(  6-C , 54-H ) :   0.9542 
B(  7-N , 30-C ) :   1.1957 B(  7-N , 38-C ) :   1.1917 B(  7-N , 62-H ) :   0.8970 
B(  8-C , 55-H ) :   0.9672 B(  9-N , 41-C ) :   1.3959 B(  9-N , 49-C ) :   1.4243 
B( 10-C , 56-H ) :   0.9770 B( 10-C , 57-H ) :   0.9821 B( 10-C , 58-H ) :   0.9843 
B( 11-N , 20-C ) :   1.1299 B( 11-N , 24-C ) :   1.1089 B( 11-N , 25-C ) :   0.9600 
B( 12-C , 14-C ) :   1.3541 B( 12-C , 59-H ) :   0.9732 B( 13-N , 31-C ) :   1.1550 
B( 13-N , 35-C ) :   1.1524 B( 13-N , 36-C ) :   0.9444 B( 14-C , 18-C ) :   1.1340 
B( 15-N , 42-C ) :   1.1087 B( 15-N , 46-C ) :   1.1224 B( 15-N , 47-C ) :   0.9615 
B( 16-C , 51-C ) :   1.1736 B( 17-C , 60-H ) :   0.9585 B( 18-C , 19-C ) :   1.1391 
B( 19-C , 21-C ) :   1.2438 B( 20-C , 28-C ) :   1.6281 B( 20-C , 63-H ) :   0.9703 
B( 21-C , 26-C ) :   1.6084 B( 21-C , 64-H ) :   0.9673 B( 22-C , 23-C ) :   1.2886 
B( 22-C , 28-C ) :   1.2652 B( 22-C , 29-C ) :   1.2243 B( 23-C , 24-C ) :   1.6200 
B( 23-C , 65-H ) :   0.9704 B( 24-C , 66-H ) :   0.9695 B( 25-C , 67-H ) :   0.9760 
B( 25-C , 68-H ) :   0.9828 B( 25-C , 69-H ) :   0.9823 B( 26-C , 27-C ) :   1.2404 
B( 26-C , 70-H ) :   0.9708 B( 27-C , 29-C ) :   1.2140 B( 28-C , 71-H ) :   0.9719 
B( 29-C , 30-C ) :   1.2388 B( 30-C , 32-C ) :   1.2855 B( 31-C , 39-C ) :   1.5952 
B( 31-C , 72-H ) :   0.9684 B( 32-C , 37-C ) :   1.5732 B( 32-C , 73-H ) :   0.9785 
B( 33-C , 34-C ) :   1.3019 B( 33-C , 39-C ) :   1.2978 B( 33-C , 40-C ) :   1.1881 
B( 34-C , 35-C ) :   1.5924 B( 34-C , 74-H ) :   0.9698 B( 35-C , 75-H ) :   0.9684 
B( 36-C , 76-H ) :   0.9767 B( 36-C , 77-H ) :   0.9817 B( 36-C , 78-H ) :   0.9825 
B( 37-C , 38-C ) :   1.2902 B( 37-C , 79-H ) :   0.9767 B( 38-C , 40-C ) :   1.2289 
B( 39-C , 80-H ) :   0.9707 B( 40-C , 41-C ) :   1.2460 B( 41-C , 43-C ) :   1.1889 
B( 42-C , 50-C ) :   1.6334 B( 42-C , 81-H ) :   0.9697 B( 43-C , 48-C ) :   1.6636 
B( 43-C , 82-H ) :   0.9724 B( 44-C , 45-C ) :   1.2644 B( 44-C , 50-C ) :   1.2714 
B( 44-C , 51-C ) :   1.2600 B( 45-C , 46-C ) :   1.6347 B( 45-C , 83-H ) :   0.9717 
B( 46-C , 84-H ) :   0.9700 B( 47-C , 85-H ) :   0.9762 B( 47-C , 86-H ) :   0.9829 
B( 47-C , 87-H ) :   0.9825 B( 48-C , 49-C ) :   1.1921 B( 48-C , 88-H ) :   0.9747 
B( 49-C , 51-C ) :   1.2394 B( 50-C , 89-H ) :   0.9710 

-------
TIMINGS
-------

Total SCF time: 0 days 0 hours 23 min 10 sec 

Total time                  ....    1390.485 sec
Sum of individual times     ....    1386.749 sec  ( 99.7%)

Fock matrix formation       ....    1366.120 sec  ( 98.2%)
Diagonalization             ....       6.730 sec  (  0.5%)
Density matrix formation    ....       0.370 sec  (  0.0%)
Population analysis         ....       0.422 sec  (  0.0%)
Initial guess               ....       1.929 sec  (  0.1%)
Orbital Transformation      ....       0.000 sec  (  0.0%)
Orbital Orthonormalization  ....       0.000 sec  (  0.0%)
DIIS solution               ....       2.891 sec  (  0.2%)
SOSCF solution              ....       7.278 sec  (  0.5%)

Maximum memory used throughout the entire SCF-calculation: 302.6 MB


           ************************************************************
           *        Program running with 16 parallel MPI-processes    *
           *              working on a common directory               *
           ************************************************************

------------------------------------------------------------------------------
                                ORCA  MP2 
------------------------------------------------------------------------------

Freezing NCore=104 chemical core electrons

----------
MP2 ENERGY (disk based algorithm)
----------

Dimension of the basis                    ...  918
Memory devoted to MP2                     ... 2000 MB   
Data format for buffers                   ... DOUBLE
Compression type for matrix containers    ... UNCOMPRESSED

-------------------------------
PARTIAL EXCHANGE TRANSFORMATION
-------------------------------

Transformation type                        ... one-operator
Generation of integrals (i,mue|j,nue)      ... ON
Generation of integrals (mue,kappa|nue,tau)... OFF
Generation of integrals (i,mue|a,nue)      ... OFF
Dimension of the basis                     ...  918
Number of internal MOs                     ...  127 (  52- 178)
Pair cutoff                                ... 2.500e-12 Eh
Number of AO pairs in the trafo            ... 421821
Total Number of distinct AO pairs          ... 421821
Memory devoted for trafo                   ... 2000.0 MB 
Max. Number of MO pairs treated together   ...  311      
Number Format for Storage                  ... Double (8 Byte)
Integral package used                      ... LIBINT

Starting integral evaluation:
    ... done with AO integral generation
Closing buffer AOK     (38.29 GB; CompressionRatio= 1.32)
Collecting buffer AOK 
Number of MO pairs included in the trafo   ... 8128
------------------------
SORTING OF (i,mue|j,nue)
------------------------

IBATCH = 1 of  2
IBATCH = 2 of  2
Closing buffer KAO     (51.03 GB; CompressionRatio= 1.00)
Collecting buffer KAO 
N(AO-Batches) Done                         ...  85824720 
N(AO-Batches) Skipped                      ...  82558261 
N(IJ)-pairs Skipped                        ...         0 
TOTAL TIME for half transformation         ...  2846.571 sec
AO-integral generation                     ...   179.136 sec
Half transformation                        ...   318.363 sec
K-integral sorting                         ...  2208.533 sec
Process 10:   Internal MO 132
Process 13:   Internal MO 156
Process  1:   Internal MO  60
Process  7:   Internal MO 108

Finished integral transformation - now doing MP2 part

OPERATOR COMBINATION   0   0: ij=( 52..178, 52..178)
Process  4:   Internal MO  84
Process  0:   Internal MO  54
Process  2:   Internal MO  69
Process  0:   Internal MO  57
Process  1:   Internal MO  63
Process  5:   Internal MO  93
Process  3:   Internal MO  78
Process  8:   Internal MO 117
Process  2:   Internal MO  72
Process  1:   Internal MO  66
Process  6:   Internal MO 102
Process  4:   Internal MO  87
Process 11:   Internal MO 141
Process 14:   Internal MO 165
Process  2:   Internal MO  75
Process  3:   Internal MO  81
Process  9:   Internal MO 126
Process  7:   Internal MO 111
Process  5:   Internal MO  96
Process 12:   Internal MO 150
Process  4:   Internal MO  90
Process 15:   Internal MO 174
Process 10:   Internal MO 135
Process  6:   Internal MO 105
Process  8:   Internal MO 120
Process 13:   Internal MO 159
Process  5:   Internal MO  99
Process  7:   Internal MO 114
Process 11:   Internal MO 144
Process  9:   Internal MO 129
Process 14:   Internal MO 168
Process  8:   Internal MO 123
Process 10:   Internal MO 138
Process 12:   Internal MO 153
Process 15:   Internal MO 177
Process 13:   Internal MO 162
Process 11:   Internal MO 147
Process 14:   Internal MO 171
-----------------------------------------------
 MP2 CORRELATION ENERGY   :     -7.283656294 Eh
-----------------------------------------------


-------
TIMINGS
-------
Total time                : 3338.787 sec
Integral trafo            : 2848.595 sec ( 85.3%)
K(i,j)                    :    6.181 sec (  0.2%)
T(i,j)                    :    0.531 sec (  0.0%)

---------------------------------------
MP2 TOTAL ENERGY:    -2130.885959928 Eh
---------------------------------------

Maximum memory used throughout the entire MP2-calculation: 2275.3 MB

-------------------------   --------------------
FINAL SINGLE POINT ENERGY     -2130.885959928235
-------------------------   --------------------


                            ***************************************
                            *     ORCA property calculations      *
                            ***************************************


  WARNING: The energy has been calculated at the MP2 level but the densities
           used in the property calculations are still SCF densities
           MP2 response densities have not been calculated 
           use %mp2 Density relaxed end
           or  %mp2 Density unrelaxed end

                                    ---------------------
                                    Active property flags
                                    ---------------------
   (+) Dipole Moment


------------------------------------------------------------------------------
                       ORCA ELECTRIC PROPERTIES CALCULATION
------------------------------------------------------------------------------

Dipole Moment Calculation                       ... on
Quadrupole Moment Calculation                   ... off
Polarizability Calculation                      ... off
GBWName                                         ... /scratch/allen/tmpyp4_amber_gaff2/conf1/conf1/Conf33.orca.gbw
Electron density                                ... /scratch/allen/tmpyp4_amber_gaff2/conf1/conf1/Conf33.orca.scfp
The origin for moment calculation is the CENTER OF MASS  = (-0.000559, -0.004512  0.003395)

-------------
DIPOLE MOMENT
-------------
                                X             Y             Z
Electronic contribution:      2.35932      -3.70594      -0.11350
Nuclear contribution   :     -0.04944       0.15257       0.13586
                        -----------------------------------------
Total Dipole Moment    :      2.30988      -3.55337       0.02237
                        -----------------------------------------
Magnitude (a.u.)       :      4.23822
Magnitude (Debye)      :     10.77269



--------------------
Rotational spectrum 
--------------------
 
Rotational constants in cm-1:     0.001502     0.001477     0.000761 
Rotational constants in MHz :    45.021509    44.266576    22.803087 

 Dipole components along the rotational axes: 
x,y,z [a.u.] :     3.056251     2.936179     0.025981 
x,y,z [Debye]:     7.768373     7.463175     0.066038 

 

Timings for individual modules:

Sum of individual times         ...     4752.696 sec (=  79.212 min)
GTO integral calculation        ...        2.658 sec (=   0.044 min)   0.1 %
SCF iterations                  ...     1391.401 sec (=  23.190 min)  29.3 %
MP2 module                      ...     3358.637 sec (=  55.977 min)  70.7 %
                             ****ORCA TERMINATED NORMALLY****
TOTAL RUN TIME: 0 days 1 hours 19 minutes 16 seconds 41 msec
# of primitive gaussian functions

