
                                 *****************
                                 * O   R   C   A *
                                 *****************

                                            #,                                       
                                            ###                                      
                                            ####                                     
                                            #####                                    
                                            ######                                   
                                           ########,                                 
                                     ,,################,,,,,                         
                               ,,#################################,,                 
                          ,,##########################################,,             
                       ,#########################################, ''#####,          
                    ,#############################################,,   '####,        
                  ,##################################################,,,,####,       
                ,###########''''           ''''###############################       
              ,#####''   ,,,,##########,,,,          '''####'''          '####       
            ,##' ,,,,###########################,,,                        '##       
           ' ,,###''''                  '''############,,,                           
         ,,##''                                '''############,,,,        ,,,,,,###''
      ,#''                                            '''#######################'''  
     '                                                          ''''####''''         
             ,#######,   #######,   ,#######,      ##                                
            ,#'     '#,  ##    ##  ,#'     '#,    #''#        ######   ,####,        
            ##       ##  ##   ,#'  ##            #'  '#       #        #'  '#        
            ##       ##  #######   ##           ,######,      #####,   #    #        
            '#,     ,#'  ##    ##  '#,     ,#' ,#      #,         ##   #,  ,#        
             '#######'   ##     ##  '#######'  #'      '#     #####' # '####'        



                  #######################################################
                  #                        -***-                        #
                  #          Department of theory and spectroscopy      #
                  #    Directorship and core code : Frank Neese         #
                  #        Max Planck Institute fuer Kohlenforschung    #
                  #                Kaiser Wilhelm Platz 1               #
                  #                 D-45470 Muelheim/Ruhr               #
                  #                      Germany                        #
                  #                                                     #
                  #                  All rights reserved                #
                  #                        -***-                        #
                  #######################################################


                         Program Version 5.0.4 -  RELEASE  -


 With contributions from (in alphabetic order):
   Daniel Aravena         : Magnetic Suceptibility
   Michael Atanasov       : Ab Initio Ligand Field Theory (pilot matlab implementation)
   Alexander A. Auer      : GIAO ZORA, VPT2 properties, NMR spectrum
   Ute Becker             : Parallelization
   Giovanni Bistoni       : ED, misc. LED, open-shell LED, HFLD
   Martin Brehm           : Molecular dynamics
   Dmytro Bykov           : SCF Hessian
   Vijay G. Chilkuri      : MRCI spin determinant printing, contributions to CSF-ICE
   Dipayan Datta          : RHF DLPNO-CCSD density
   Achintya Kumar Dutta   : EOM-CC, STEOM-CC
   Dmitry Ganyushin       : Spin-Orbit,Spin-Spin,Magnetic field MRCI
   Miquel Garcia          : C-PCM and meta-GGA Hessian, CC/C-PCM, Gaussian charge scheme
   Yang Guo               : DLPNO-NEVPT2, F12-NEVPT2, CIM, IAO-localization
   Andreas Hansen         : Spin unrestricted coupled pair/coupled cluster methods
   Benjamin Helmich-Paris : MC-RPA, TRAH-SCF, COSX integrals
   Lee Huntington         : MR-EOM, pCC
   Robert Izsak           : Overlap fitted RIJCOSX, COSX-SCS-MP3, EOM
   Marcus Kettner         : VPT2
   Christian Kollmar      : KDIIS, OOCD, Brueckner-CCSD(T), CCSD density, CASPT2, CASPT2-K
   Simone Kossmann        : Meta GGA functionals, TD-DFT gradient, OOMP2, MP2 Hessian
   Martin Krupicka        : Initial AUTO-CI
   Lucas Lang             : DCDCAS
   Marvin Lechner         : AUTO-CI (C++ implementation), FIC-MRCC
   Dagmar Lenk            : GEPOL surface, SMD
   Dimitrios Liakos       : Extrapolation schemes; Compound Job, initial MDCI parallelization
   Dimitrios Manganas     : Further ROCIS development; embedding schemes
   Dimitrios Pantazis     : SARC Basis sets
   Anastasios Papadopoulos: AUTO-CI, single reference methods and gradients
   Taras Petrenko         : DFT Hessian,TD-DFT gradient, ASA, ECA, R-Raman, ABS, FL, XAS/XES, NRVS
   Peter Pinski           : DLPNO-MP2, DLPNO-MP2 Gradient
   Christoph Reimann      : Effective Core Potentials
   Marius Retegan         : Local ZFS, SOC
   Christoph Riplinger    : Optimizer, TS searches, QM/MM, DLPNO-CCSD(T), (RO)-DLPNO pert. Triples
   Tobias Risthaus        : Range-separated hybrids, TD-DFT gradient, RPA, STAB
   Michael Roemelt        : Original ROCIS implementation
   Masaaki Saitow         : Open-shell DLPNO-CCSD energy and density
   Barbara Sandhoefer     : DKH picture change effects
   Avijit Sen             : IP-ROCIS
   Kantharuban Sivalingam : CASSCF convergence, NEVPT2, FIC-MRCI
   Bernardo de Souza      : ESD, SOC TD-DFT
   Georgi Stoychev        : AutoAux, RI-MP2 NMR, DLPNO-MP2 response
   Willem Van den Heuvel  : Paramagnetic NMR
   Boris Wezisla          : Elementary symmetry handling
   Frank Wennmohs         : Technical directorship


 We gratefully acknowledge several colleagues who have allowed us to
 interface, adapt or use parts of their codes:
   Stefan Grimme, W. Hujo, H. Kruse, P. Pracht,  : VdW corrections, initial TS optimization,
                  C. Bannwarth, S. Ehlert          DFT functionals, gCP, sTDA/sTD-DF
   Ed Valeev, F. Pavosevic, A. Kumar             : LibInt (2-el integral package), F12 methods
   Garnet Chan, S. Sharma, J. Yang, R. Olivares  : DMRG
   Ulf Ekstrom                                   : XCFun DFT Library
   Mihaly Kallay                                 : mrcc  (arbitrary order and MRCC methods)
   Jiri Pittner, Ondrej Demel                    : Mk-CCSD
   Frank Weinhold                                : gennbo (NPA and NBO analysis)
   Christopher J. Cramer and Donald G. Truhlar   : smd solvation model
   Lars Goerigk                                  : TD-DFT with DH, B97 family of functionals
   V. Asgeirsson, H. Jonsson                     : NEB implementation
   FAccTs GmbH                                   : IRC, NEB, NEB-TS, DLPNO-Multilevel, CI-OPT
                                                   MM, QMMM, 2- and 3-layer-ONIOM, Crystal-QMMM,
                                                   LR-CPCM, SF, NACMEs, symmetry and pop. for TD-DFT,
                                                   nearIR, NL-DFT gradient (VV10), updates on ESD,
                                                   ML-optimized integration grids
   S Lehtola, MJT Oliveira, MAL Marques          : LibXC Library
   Liviu Ungur et al                             : ANISO software


 Your calculation uses the libint2 library for the computation of 2-el integrals
 For citations please refer to: http://libint.valeyev.net

 Your ORCA version has been built with support for libXC version: 5.1.0
 For citations please refer to: https://tddft.org/programs/libxc/

 This ORCA versions uses:
   CBLAS   interface :  Fast vector & matrix operations
   LAPACKE interface :  Fast linear algebra routines
   SCALAPACK package :  Parallel linear algebra routines
   Shared memory     :  Shared parallel matrices
   BLAS/LAPACK       :  OpenBLAS 0.3.15  USE64BITINT DYNAMIC_ARCH NO_AFFINITY Sandybridge SINGLE_THREADED
        Core in use  :  Sandybridge
   Copyright (c) 2011-2014, The OpenBLAS Project


================================================================================

----- Orbital basis set information -----
Your calculation utilizes the basis: cc-pVDZ 
       H, B-Ne : Obtained from the ccRepo (grant-hill.group.shef.ac.uk/ccrepo) Feb. 2017
                 T. H. Dunning, Jr., J. Chem. Phys. 90, 1007 (1989)
            He : Obtained from the ccRepo (grant-hill.group.shef.ac.uk/ccrepo) Feb. 2017
                 D. E. Woon, T. H. Dunning, Jr., J. Chem. Phys. 100, 2975 (1994)
  Li-Be, Na-Mg : Obtained from the ccRepo (grant-hill.group.shef.ac.uk/ccrepo) Feb. 2017
                 B. P. Prascher, D. E. Woon, K. A. Peterson, T. H. Dunning, Jr., A. K. Wilson, Theor. Chem. Acc. 128, 69 (2011)
         Al-Ar : Obtained from the ccRepo (grant-hill.group.shef.ac.uk/ccrepo) Feb. 2017
                 D. E. Woon, T. H. Dunning, Jr., J. Chem. Phys. 98, 1358 (1993)
            Ca : Obtained from the Peterson Research Group Website (tyr0.chem.wsu.edu/~kipeters) Feb. 2017
                 J. Koput, K. A. Peterson, J. Phys. Chem. 106, 9595 (2002)
         Sc-Zn : Obtained from the ccRepo (grant-hill.group.shef.ac.uk/ccrepo) Feb. 2017
                 N. B. Balabanov, K. A. Peterson, J. Chem. Phys. 123, 064107 (2005)
                 N. B. Balabanov, K. A. Peterson, J. Chem. Phys. 125, 074110 (2006)
         Ga-Kr : Obtained from the ccRepo (grant-hill.group.shef.ac.uk/ccrepo) Feb. 2017
                 A. K. Wilson, D. E. Woon, K. A. Peterson, T. H. Dunning, Jr., J. Chem. Phys. 110, 7667 (1999)

================================================================================
                                        WARNINGS
                       Please study these warnings very carefully!
================================================================================


WARNING: No MP2 level density has been requested!
         To caclulate MP2 level properties use
         %mp2 Density relaxed end
         or
         %mp2 Density unrelaxed end

WARNING: Post HF methods need fully converged wavefunctions
  ===> : Setting SCFConvForced true
         You can overwrite this default with %scf ConvForced false 


INFO   : the flag for use of the SHARK integral package has been found!

================================================================================
                                       INPUT FILE
================================================================================
NAME = /scratch/allen/tmpyp4_amber_gaff2/2.Mdgx/conf11/conf11/Conf145.orca
|  1> ! PAL2
|  2> ! mp2 cc-pvdz TightSCF  NoKeepInts
|  3> 
|  4> %scf
|  5>   MaxCore 2000
|  6> end
|  7> %mp2
|  8>   MaxCore 2000
|  9> end
| 10> * xyz 0 1
| 11>    C       -4.76300         5.32800        -0.62600
| 12>    C        1.47400         4.04100         0.05700
| 13>    C       -2.80200         4.09300         0.04900
| 14>    C       -2.40600         5.22200         0.78300
| 15>    C       -3.19500         6.35500         0.79000
| 16>    C       -5.19400         7.61500         0.15000
| 17>    C        0.13200         4.30700         0.06100
| 18>    C       -0.56900         3.05600         0.04700
| 19>    C        1.64900         2.61800         0.02300
| 20>    C       -4.01100         4.16900        -0.66000
| 21>    N       -4.35200         6.39900         0.09100
| 22>    N        0.38800         2.06700         0.02500
| 23>    N       -2.01000         0.39500        -0.07500
| 24>    N       -0.38800        -2.07400        -0.02700
| 25>    N        2.01000        -0.40100         0.06500
| 26>    C       -1.96000         2.86100         0.02400
| 27>    C       -2.62300         1.61500        -0.01800
| 28>    C       -5.57300        -4.32900         1.06600
| 29>    C       -4.07300         1.47100         0.05600
| 30>    C       -4.10600        -2.75600        -0.02600
| 31>    C       -4.99500        -2.75700        -1.11100
| 32>    C       -6.13200        -3.54200        -1.07600
| 33>    C       -7.65100        -5.11300         0.04000
| 34>    C       -4.32400         0.14100         0.03700
| 35>    C       -3.02500        -0.52000        -0.04800
| 36>    C       -4.42200        -3.56600         1.07500
| 37>    N       -6.40700        -4.31300         0.00100
| 38>    C       -2.86700        -1.92200        -0.04000
| 39>    C       -1.65000        -2.62400        -0.02700
| 40>    C        3.56800        -6.14200        -1.04000
| 41>    C       -1.47600        -4.04900        -0.03400
| 42>    C        2.80300        -4.09900        -0.00800
| 43>    C        3.65700        -4.38400         1.06900
| 44>    C        4.42700        -5.53000         1.05900
| 45>    C        5.24500        -7.58800         0.01400
| 46>    C       -0.13400        -4.31500        -0.02200
| 47>    C        0.56800        -3.06400        -0.02700
| 48>    C        2.77500        -5.01200        -1.07400
| 49>    N        4.37600        -6.39100         0.01700
| 50>    C        1.95900        -2.86900        -0.00900
| 51>    C        2.62100        -1.62200         0.00900
| 52>    C        5.54300         4.33900        -1.13000
| 53>    C        4.07000        -1.47900        -0.09400
| 54>    C        4.10400         2.75100        -0.02100
| 55>    C        5.02700         2.72900         1.03600
| 56>    C        6.16600         3.50900         0.97800
| 57>    C        7.61900         5.15300        -0.11500
| 58>    C        4.32100        -0.14800        -0.09200
| 59>    C        3.02500         0.51400         0.01500
| 60>    C        4.38700         3.58200        -1.11500
| 61>    C        2.86600         1.91600         0.01300
| 62>    N        6.41300         4.29600        -0.09500
| 63>    H       -5.69500         5.43600        -1.16700
| 64>    H        2.27400         4.76600         0.08100
| 65>    H       -1.48800         5.22100         1.35800
| 66>    H       -2.93600         7.24600         1.34800
| 67>    H       -5.84600         7.55300         1.02400
| 68>    H       -4.54500         8.48700         0.22700
| 69>    H       -5.79100         7.67200        -0.75900
| 70>    H       -0.33200         5.28200         0.06900
| 71>    H       -4.36400         3.33600        -1.25700
| 72>    H        0.18200         1.07200         0.00500
| 73>    H       -0.18300        -1.08000        -0.02100
| 74>    H       -5.86400        -4.96200         1.89500
| 75>    H       -4.79400         2.27200         0.13900
| 76>    H       -4.80000        -2.16000        -1.99400
| 77>    H       -6.84100        -3.58200        -1.89300
| 78>    H       -8.42800        -4.53600         0.54600
| 79>    H       -7.95600        -5.33700        -0.98100
| 80>    H       -7.45600        -6.03700         0.58400
| 81>    H       -5.28700        -0.34400         0.10000
| 82>    H       -3.78000        -3.60100         1.94700
| 83>    H        3.58700        -6.86800        -1.84300
| 84>    H       -2.27600        -4.77400        -0.05000
| 85>    H        3.71400        -3.72400         1.92600
| 86>    H        5.09200        -5.79500         1.87100
| 87>    H        6.20500        -7.32900        -0.43900
| 88>    H        5.39300        -7.91700         1.04200
| 89>    H        4.75900        -8.37300        -0.56400
| 90>    H        0.32900        -5.29000        -0.00800
| 91>    H        2.14600        -4.84200        -1.94000
| 92>    H        5.80800         4.98600        -1.95600
| 93>    H        4.78800        -2.28100        -0.18500
| 94>    H        4.86000         2.11400         1.91200
| 95>    H        6.90100         3.53100         1.77200
| 96>    H        7.38300         6.10900         0.35600
| 97>    H        8.41400         4.65200         0.43500
| 98>    H        7.92100         5.31000        -1.15000
| 99>    H        5.28300         0.33600        -0.17900
|100>    H        3.72000         3.63200        -1.96700
|101> *
|102> 
|103>                          ****END OF INPUT****
================================================================================

                       ****************************
                       * Single Point Calculation *
                       ****************************

---------------------------------
CARTESIAN COORDINATES (ANGSTROEM)
---------------------------------
  C     -4.763000    5.328000   -0.626000
  C      1.474000    4.041000    0.057000
  C     -2.802000    4.093000    0.049000
  C     -2.406000    5.222000    0.783000
  C     -3.195000    6.355000    0.790000
  C     -5.194000    7.615000    0.150000
  C      0.132000    4.307000    0.061000
  C     -0.569000    3.056000    0.047000
  C      1.649000    2.618000    0.023000
  C     -4.011000    4.169000   -0.660000
  N     -4.352000    6.399000    0.091000
  N      0.388000    2.067000    0.025000
  N     -2.010000    0.395000   -0.075000
  N     -0.388000   -2.074000   -0.027000
  N      2.010000   -0.401000    0.065000
  C     -1.960000    2.861000    0.024000
  C     -2.623000    1.615000   -0.018000
  C     -5.573000   -4.329000    1.066000
  C     -4.073000    1.471000    0.056000
  C     -4.106000   -2.756000   -0.026000
  C     -4.995000   -2.757000   -1.111000
  C     -6.132000   -3.542000   -1.076000
  C     -7.651000   -5.113000    0.040000
  C     -4.324000    0.141000    0.037000
  C     -3.025000   -0.520000   -0.048000
  C     -4.422000   -3.566000    1.075000
  N     -6.407000   -4.313000    0.001000
  C     -2.867000   -1.922000   -0.040000
  C     -1.650000   -2.624000   -0.027000
  C      3.568000   -6.142000   -1.040000
  C     -1.476000   -4.049000   -0.034000
  C      2.803000   -4.099000   -0.008000
  C      3.657000   -4.384000    1.069000
  C      4.427000   -5.530000    1.059000
  C      5.245000   -7.588000    0.014000
  C     -0.134000   -4.315000   -0.022000
  C      0.568000   -3.064000   -0.027000
  C      2.775000   -5.012000   -1.074000
  N      4.376000   -6.391000    0.017000
  C      1.959000   -2.869000   -0.009000
  C      2.621000   -1.622000    0.009000
  C      5.543000    4.339000   -1.130000
  C      4.070000   -1.479000   -0.094000
  C      4.104000    2.751000   -0.021000
  C      5.027000    2.729000    1.036000
  C      6.166000    3.509000    0.978000
  C      7.619000    5.153000   -0.115000
  C      4.321000   -0.148000   -0.092000
  C      3.025000    0.514000    0.015000
  C      4.387000    3.582000   -1.115000
  C      2.866000    1.916000    0.013000
  N      6.413000    4.296000   -0.095000
  H     -5.695000    5.436000   -1.167000
  H      2.274000    4.766000    0.081000
  H     -1.488000    5.221000    1.358000
  H     -2.936000    7.246000    1.348000
  H     -5.846000    7.553000    1.024000
  H     -4.545000    8.487000    0.227000
  H     -5.791000    7.672000   -0.759000
  H     -0.332000    5.282000    0.069000
  H     -4.364000    3.336000   -1.257000
  H      0.182000    1.072000    0.005000
  H     -0.183000   -1.080000   -0.021000
  H     -5.864000   -4.962000    1.895000
  H     -4.794000    2.272000    0.139000
  H     -4.800000   -2.160000   -1.994000
  H     -6.841000   -3.582000   -1.893000
  H     -8.428000   -4.536000    0.546000
  H     -7.956000   -5.337000   -0.981000
  H     -7.456000   -6.037000    0.584000
  H     -5.287000   -0.344000    0.100000
  H     -3.780000   -3.601000    1.947000
  H      3.587000   -6.868000   -1.843000
  H     -2.276000   -4.774000   -0.050000
  H      3.714000   -3.724000    1.926000
  H      5.092000   -5.795000    1.871000
  H      6.205000   -7.329000   -0.439000
  H      5.393000   -7.917000    1.042000
  H      4.759000   -8.373000   -0.564000
  H      0.329000   -5.290000   -0.008000
  H      2.146000   -4.842000   -1.940000
  H      5.808000    4.986000   -1.956000
  H      4.788000   -2.281000   -0.185000
  H      4.860000    2.114000    1.912000
  H      6.901000    3.531000    1.772000
  H      7.383000    6.109000    0.356000
  H      8.414000    4.652000    0.435000
  H      7.921000    5.310000   -1.150000
  H      5.283000    0.336000   -0.179000
  H      3.720000    3.632000   -1.967000

----------------------------
CARTESIAN COORDINATES (A.U.)
----------------------------
  NO LB      ZA    FRAG     MASS         X           Y           Z
   0 C     6.0000    0    12.011   -9.000766   10.068461   -1.182969
   1 C     6.0000    0    12.011    2.785456    7.636383    0.107714
   2 C     6.0000    0    12.011   -5.295013    7.734649    0.092597
   3 C     6.0000    0    12.011   -4.546681    9.868150    1.479656
   4 C     6.0000    0    12.011   -6.037675   12.009210    1.492884
   5 C     6.0000    0    12.011   -9.815238   14.390265    0.283459
   6 C     6.0000    0    12.011    0.249444    8.139050    0.115273
   7 C     6.0000    0    12.011   -1.075254    5.775003    0.088817
   8 C     6.0000    0    12.011    3.116158    4.947303    0.043464
   9 C     6.0000    0    12.011   -7.579692    7.878268   -1.247219
  10 N     7.0000    0    14.007   -8.224088   12.092358    0.171965
  11 N     7.0000    0    14.007    0.733214    3.906064    0.047243
  12 N     7.0000    0    14.007   -3.798350    0.746442   -0.141729
  13 N     7.0000    0    14.007   -0.733214   -3.919292   -0.051023
  14 N     7.0000    0    14.007    3.798350   -0.757780    0.122832
  15 C     6.0000    0    12.011   -3.703863    5.406506    0.045353
  16 C     6.0000    0    12.011   -4.956752    3.051908   -0.034015
  17 C     6.0000    0    12.011  -10.531444   -8.180624    2.014448
  18 C     6.0000    0    12.011   -7.696855    2.779787    0.105825
  19 C     6.0000    0    12.011   -7.759216   -5.208085   -0.049133
  20 C     6.0000    0    12.011   -9.439182   -5.209975   -2.099486
  21 C     6.0000    0    12.011  -11.587801   -6.693410   -2.033345
  22 C     6.0000    0    12.011  -14.458295   -9.662170    0.075589
  23 C     6.0000    0    12.011   -8.171176    0.266451    0.069920
  24 C     6.0000    0    12.011   -5.716422   -0.982658   -0.090707
  25 C     6.0000    0    12.011   -8.356369   -6.738763    2.031456
  26 N     7.0000    0    14.007  -12.107475   -8.150389    0.001890
  27 C     6.0000    0    12.011   -5.417845   -3.632054   -0.075589
  28 C     6.0000    0    12.011   -3.118048   -4.958641   -0.051023
  29 C     6.0000    0    12.011    6.742543  -11.606698   -1.965315
  30 C     6.0000    0    12.011   -2.789236   -7.651501   -0.064251
  31 C     6.0000    0    12.011    5.296902   -7.745987   -0.015118
  32 C     6.0000    0    12.011    6.910728   -8.284559    2.020117
  33 C     6.0000    0    12.011    8.365818  -10.450186    2.001220
  34 C     6.0000    0    12.011    9.911614  -14.339242    0.026456
  35 C     6.0000    0    12.011   -0.253223   -8.154168   -0.041574
  36 C     6.0000    0    12.011    1.073364   -5.790121   -0.051023
  37 C     6.0000    0    12.011    5.243990   -9.471307   -2.029566
  38 N     7.0000    0    14.007    8.269442  -12.077240    0.032125
  39 C     6.0000    0    12.011    3.701973   -5.421624   -0.017008
  40 C     6.0000    0    12.011    4.952972   -3.065136    0.017008
  41 C     6.0000    0    12.011   10.474752    8.199522   -2.135391
  42 C     6.0000    0    12.011    7.691185   -2.794905   -0.177634
  43 C     6.0000    0    12.011    7.755436    5.198637   -0.039684
  44 C     6.0000    0    12.011    9.499653    5.157063    1.957756
  45 C     6.0000    0    12.011   11.652051    6.631049    1.848152
  46 C     6.0000    0    12.011   14.397823    9.737759   -0.217319
  47 C     6.0000    0    12.011    8.165507   -0.279679   -0.173855
  48 C     6.0000    0    12.011    5.716422    0.971319    0.028346
  49 C     6.0000    0    12.011    8.290229    6.768999   -2.107045
  50 C     6.0000    0    12.011    5.415955    3.620715    0.024566
  51 N     7.0000    0    14.007   12.118814    8.118263   -0.179524
  52 H     1.0000    0     1.008  -10.761990   10.272551   -2.205310
  53 H     1.0000    0     1.008    4.297237    9.006435    0.153068
  54 H     1.0000    0     1.008   -2.811912    9.866260    2.566248
  55 H     1.0000    0     1.008   -5.548236   13.692956    2.547351
  56 H     1.0000    0     1.008  -11.047339   14.273101    1.935080
  57 H     1.0000    0     1.008   -8.588805   16.038106    0.428968
  58 H     1.0000    0     1.008  -10.943404   14.497979   -1.434302
  59 H     1.0000    0     1.008   -0.627389    9.981533    0.130391
  60 H     1.0000    0     1.008   -8.246765    6.304126   -2.375386
  61 H     1.0000    0     1.008    0.343930    2.025786    0.009449
  62 H     1.0000    0     1.008   -0.345820   -2.040904   -0.039684
  63 H     1.0000    0     1.008  -11.081354   -9.376821    3.581031
  64 H     1.0000    0     1.008   -9.059347    4.293458    0.262672
  65 H     1.0000    0     1.008   -9.070685   -4.081808   -3.768114
  66 H     1.0000    0     1.008  -12.927616   -6.768999   -3.577252
  67 H     1.0000    0     1.008  -15.926612   -8.571798    1.031790
  68 H     1.0000    0     1.008  -15.034661  -10.085468   -1.853821
  69 H     1.0000    0     1.008  -14.089798  -11.408277    1.103600
  70 H     1.0000    0     1.008   -9.990982   -0.650066    0.188973
  71 H     1.0000    0     1.008   -7.143165   -6.804904    3.679297
  72 H     1.0000    0     1.008    6.778448  -12.978639   -3.482765
  73 H     1.0000    0     1.008   -4.301017   -9.021553   -0.094486
  74 H     1.0000    0     1.008    7.018443   -7.037340    3.639613
  75 H     1.0000    0     1.008    9.622485  -10.950963    3.535678
  76 H     1.0000    0     1.008   11.725751  -13.849803   -0.829590
  77 H     1.0000    0     1.008   10.191293  -14.960962    1.969095
  78 H     1.0000    0     1.008    8.993207  -15.822677   -1.065806
  79 H     1.0000    0     1.008    0.621720   -9.996651   -0.015118
  80 H     1.0000    0     1.008    4.055352   -9.150054   -3.666069
  81 H     1.0000    0     1.008   10.975529    9.422175   -3.696304
  82 H     1.0000    0     1.008    9.048009   -4.310465   -0.349599
  83 H     1.0000    0     1.008    9.184069    3.994881    3.613156
  84 H     1.0000    0     1.008   13.041000    6.672623    3.348595
  85 H     1.0000    0     1.008   13.951848   11.544337    0.672743
  86 H     1.0000    0     1.008   15.900156    8.791006    0.822031
  87 H     1.0000    0     1.008   14.968521   10.034446   -2.173185
  88 H     1.0000    0     1.008    9.983423    0.634948   -0.338261
  89 H     1.0000    0     1.008    7.029781    6.863485   -3.717091

--------------------------------
INTERNAL COORDINATES (ANGSTROEM)
--------------------------------
 C      0   0   0     0.000000000000     0.00000000     0.00000000
 C      1   0   0     6.404922091642     0.00000000     0.00000000
 C      1   2   0     2.413787687432    22.51997391     0.00000000
 C      3   1   2     1.403642760819    87.93119402    58.10865122
 C      4   3   1     1.380673386431   120.09785162     0.10566885
 C      5   4   3     2.448101509333   152.58046956     1.70303141
 C      2   1   3     1.368114030335     6.30486391   302.48386237
 C      7   2   4     1.434084376876   108.05010202   239.85686037
 C      2   1   3     1.434123425651   108.40181390    31.88801731
 C      1   2   7     1.382006150493    45.91203865   266.13059692
 N      5   4   3     1.352474029326   120.86008843   359.73993903
 N      9   2   1     1.376127174356   106.58526707   352.59872608
 N     12   9   2     2.925062050624   168.53581413   171.12065651
 N     13  12   9     2.954513327098    91.55032014    11.12112580
 N     14  13  12     2.925371258490    88.43092389   359.84326247
 C      8   7   2     1.404790019896   127.24786865   181.11170171
 C     13  12   9     1.366535034311    81.72106996   188.00453233
 C     14  13  12     5.758810554272    80.56209567   166.76250791
 C     17  13  12     1.459010623676   111.08861209   183.82872609
 C     18  14  13     2.412235892279    27.27532823    36.33507194
 C     20  18  14     1.402692767501    87.95206320   148.94598259
 C     21  20  18     1.382106725257   120.14573887   359.70382047
 C     18  14  13     2.446510985056   144.15733107    82.80075377
 C     19  17  13     1.353610726908   106.29293361   359.75308708
 C     13  12   9     1.366813447402   172.21332906    33.46711076
 C     18  14  13     1.380960173213    15.08449437   309.23336894
 N     22  21  20     1.352773077792   120.73759875     0.27865223
 C     25  13  17     1.410897586645   125.60330303   182.37774668
 C     14  13  12     1.376642291955    80.24689249   177.85461986
 C     14  13  12     5.764089607215   164.51507311   312.20821879
 C     29  14  13     1.435600919476   106.58649366   178.76395472
 C     30  14  13     2.413316804732    27.10625047    82.12560436
 C     32  30  14     1.403734305344    87.90059683   149.76154742
 C     33  32  30     1.380694028378   120.14881443   359.74174632
 C     34  33  32     2.448777858443   152.49203239     2.45173620
 C     31  29  14     1.368160809262   108.16950133     0.70383075
 C     14  13  12     1.376239804685   169.26375223   353.09862627
 C     30  14  13     1.380907310430    14.68948582   353.70041132
 N     34  33  32     1.352658863128   120.85575621     0.19603406
 C     37  14  29     1.404717053360   126.01551127   180.90772073
 C     15  14  13     1.366491126938    81.61824056   183.09049352
 C      2   1   3     4.249062720177   152.70212506   153.27402175
 C     41  15  14     1.459677704153   111.05201287   175.08990246
 C     42   2   1     2.412953791518    41.78584867   210.56952320
 C     44  42   2     1.403446472082    87.95153797   233.97558675
 C     45  44  42     1.381696421071   120.11137308     0.19721020
 C     42   2   1     2.450019795838   135.97209175   120.88437230
 C     43  41  15     1.354461516618   106.26758155     0.30894352
 C     15  14  13     1.367461151185   171.87382904   332.35056460
 C     42   2   1     1.381886391857    32.59078432   259.42480239
 C      9   2   1     1.404988612053   126.98745415   173.60306361
 N     42   2   1     1.352765315936   113.57249190   148.62096149
 H      1   2   7     1.083036933812   155.68376040   194.75294100
 H      2   1   3     1.079907866440   126.07547429   205.50812018
 H      4   3   1     1.083212813809   121.05992007   179.56831581
 H      5   4   3     1.082740042670   122.76593577   179.41454566
 H      6   5   4     1.092164822726   104.42076014   100.01481575
 H      6   5   4     1.089731159507    84.66791953   209.47598819
 H      6   5   4     1.089008264431   133.85145687   322.35934614
 H      7   2  54     1.079807853278   126.66122480     1.30600390
 H     10   1   2     1.083931270884   118.73987821   208.01669807
 H     12   9   2     1.016297692608   125.29023241   180.00180175
 H     14  13  12     1.014936943854    44.97226959   359.42596618
 H     18  14  13     1.082871645210   128.03556573   234.20482432
 H     19  17  13     1.080893611786   126.41830519   178.11313280
 H     21  20  18     1.083569563987   121.05669627   180.67006309
 H     22  21  20     1.082483256222   122.73097286   180.59748951
 H     23  18  14     1.092105306278   103.92715769   234.93429879
 H     23  18  14     1.088871893291   134.19244188    12.25587044
 H     23  18  14     1.089833473518    84.85857450   125.45241208
 H     24  19  17     1.080075460327   127.28078426   178.44613241
 H     26  18  14     1.083408048706   118.76995697   244.94906660
 H     30  14  13     1.082703098730   127.99711412   279.66882698
 H     31  29  14     1.079759695488   125.22293469   180.92530585
 H     33  32  30     1.083188810873   121.01964473   180.74284758
 H     34  33  32     1.082494341787   122.70821597   180.59516895
 H     35  34  33     1.092652735319   105.73575241    97.19771933
 H     35  34  33     1.089462711615    84.05943581   206.43036958
 H     35  34  33     1.089268102902   133.08365142   318.50306270
 H     36  31  29     1.079439669458   126.61599965   178.98859863
 H     38  30  73     1.083742127999   118.77264435   359.90091293
 H     42   2   1     1.082178358682   119.31790784     5.25249195
 H     43  41  15     1.080281907652   126.36969097   182.06329380
 H     45  44  42     1.083277434455   121.10105945   179.58025624
 H     46  45  44     1.082194529648   122.72144639   179.46906377
 H     47  42   2     1.091546151109   106.65128841   315.16475048
 H     47  42   2     1.088818625851   132.46019523    94.52397119
 H     47  42   2     1.089531091801    83.63838232   206.04504406
 H     48  43  41     1.080402239909   127.23657387   181.62955349
 H     50  42   2     1.083186502870   118.77001737    94.71359229

---------------------------
INTERNAL COORDINATES (A.U.)
---------------------------
 C      0   0   0     0.000000000000     0.00000000     0.00000000
 C      1   0   0    12.103548662305     0.00000000     0.00000000
 C      1   2   0     4.561397674678    22.51997391     0.00000000
 C      3   1   2     2.652500407809    87.93119402    58.10865122
 C      4   3   1     2.609094580749   120.09785162     0.10566885
 C      5   4   3     4.626241400679   152.58046956     1.70303141
 C      2   1   3     2.585360837309     6.30486391   302.48386237
 C      7   2   4     2.710026725231   108.05010202   239.85686037
 C      2   1   3     2.710100516721   108.40181390    31.88801731
 C      1   2   7     2.611613139826    45.91203865   266.13059692
 N      5   4   3     2.555805518666   120.86008843   359.73993903
 N      9   2   1     2.600503484979   106.58526707   352.59872608
 N     12   9   2     5.527566200405   168.53581413   171.12065651
 N     13  12   9     5.583221047236    91.55032014    11.12112580
 N     14  13  12     5.528150518591    88.43092389   359.84326247
 C      8   7   2     2.654668413270   127.24786865   181.11170171
 C     13  12   9     2.582376967257    81.72106996   188.00453233
 C     14  13  12    10.882574804710    80.56209567   166.76250791
 C     17  13  12     2.757130505230   111.08861209   183.82872609
 C     18  14  13     4.558465206823    27.27532823    36.33507194
 C     20  18  14     2.650705180609    87.95206320   148.94598259
 C     21  20  18     2.611803198586   120.14573887   359.70382047
 C     18  14  13     4.623235745386   144.15733107    82.80075377
 C     19  17  13     2.557953565794   106.29293361   359.75308708
 C     13  12   9     2.582903091751   172.21332906    33.46711076
 C     18  14  13     2.609636529225    15.08449437   309.23336894
 N     22  21  20     2.556370638369   120.73759875     0.27865223
 C     25  13  17     2.666210041769   125.60330303   182.37774668
 C     14  13  12     2.601476916169    80.24689249   177.85461986
 C     14  13  12    10.892550769017   164.51507311   312.20821879
 C     29  14  13     2.712892575415   106.58649366   178.76395472
 C     30  14  13     4.560507835333    27.10625047    82.12560436
 C     32  30  14     2.652673401891    87.90059683   149.76154742
 C     33  32  30     2.609133588376   120.14881443   359.74174632
 C     34  33  32     4.627519515267   152.49203239     2.45173620
 C     31  29  14     2.585449236669   108.16950133     0.70383075
 C     14  13  12     2.600716325456   169.26375223   353.09862627
 C     30  14  13     2.609536633043    14.68948582   353.70041132
 N     34  33  32     2.556154803934   120.85575621     0.19603406
 C     37  14  29     2.654530526499   126.01551127   180.90772073
 C     15  14  13     2.582293994346    81.61824056   183.09049352
 C      2   1   3     8.029564866989   152.70212506   153.27402175
 C     41  15  14     2.758391104639   111.05201287   175.08990246
 C     42   2   1     4.559821839776    41.78584867   210.56952320
 C     44  42   2     2.652129475853    87.95153797   233.97558675
 C     45  44  42     2.611027836043   120.11137308     0.19721020
 C     42   2   1     4.629866436820   135.97209175   120.88437230
 C     43  41  15     2.559561325344   106.26758155     0.30894352
 C     15  14  13     2.584127074516   171.87382904   332.35056460
 C     42   2   1     2.611386828803    32.59078432   259.42480239
 C      9   2   1     2.655043698059   126.98745415   173.60306361
 N     42   2   1     2.556355970587   113.57249190   148.62096149
 H      1   2   7     2.046643197826   155.68376040   194.75294100
 H      2   1   3     2.040730117440   126.07547429   205.50812018
 H      4   3   1     2.046975562853   121.05992007   179.56831581
 H      5   4   3     2.046082154876   122.76593577   179.41454566
 H      6   5   4     2.063892408055   104.42076014   100.01481575
 H      6   5   4     2.059293451068    84.66791953   209.47598819
 H      6   5   4     2.057927377352   133.85145687   322.35934614
 H      7   2  54     2.040541119952   126.66122480     1.30600390
 H     10   1   2     2.048333249964   118.73987821   208.01669807
 H     12   9   2     1.920524309565   125.29023241   180.00180175
 H     14  13  12     1.917952867083    44.97226959   359.42596618
 H     18  14  13     2.046330847636   128.03556573   234.20482432
 H     19  17  13     2.042592906181   126.41830519   178.11313280
 H     21  20  18     2.047649722989   121.05669627   180.67006309
 H     22  21  20     2.045596898814   122.73097286   180.59748951
 H     23  18  14     2.063779938267   103.92715769   234.93429879
 H     23  18  14     2.057669673245   134.19244188    12.25587044
 H     23  18  14     2.059486796529    84.85857450   125.45241208
 H     24  19  17     2.041046823986   127.28078426   178.44613241
 H     26  18  14     2.047344503340   118.76995697   244.94906660
 H     30  14  13     2.046012340948   127.99711412   279.66882698
 H     31  29  14     2.040450114918   125.22293469   180.92530585
 H     33  32  30     2.046930203877   121.01964473   180.74284758
 H     34  33  32     2.045617847496   122.70821597   180.59516895
 H     35  34  33     2.064814429233   105.73575241    97.19771933
 H     35  34  33     2.058786158072    84.05943581   206.43036958
 H     35  34  33     2.058418400901   133.08365142   318.50306270
 H     36  31  29     2.039845353366   126.61599965   178.98859863
 H     38  30  73     2.047975821711   118.77264435   359.90091293
 H     42   2   1     2.045020725966   119.31790784     5.25249195
 H     43  41  15     2.041436952892   126.36969097   182.06329380
 H     45  44  42     2.047097678177   121.10105945   179.58025624
 H     46  45  44     2.045051284662   122.72144639   179.46906377
 H     47  42   2     2.062723288131   106.65128841   315.16475048
 H     47  42   2     2.057569012371   132.46019523    94.52397119
 H     47  42   2     2.058915377895    83.63838232   206.04504406
 H     48  43  41     2.041664347903   127.23657387   181.62955349
 H     50  42   2     2.046925842384   118.77001737    94.71359229

---------------------
BASIS SET INFORMATION
---------------------
There are 3 groups of distinct atoms

 Group   1 Type C   : 17s4p1d contracted to 3s2p1d pattern {881/31/1}
 Group   2 Type N   : 17s4p1d contracted to 3s2p1d pattern {881/31/1}
 Group   3 Type H   : 4s1p contracted to 2s1p pattern {31/1}

Atom   0C    basis set group =>   1
Atom   1N    basis set group =>   2
Atom   2C    basis set group =>   1
Atom   3N    basis set group =>   2
Atom   4C    basis set group =>   1
Atom   5N    basis set group =>   2
Atom   6C    basis set group =>   1
Atom   7N    basis set group =>   2
Atom   8C    basis set group =>   1
Atom   9N    basis set group =>   2
Atom  10C    basis set group =>   1
Atom  11N    basis set group =>   2
Atom  12C    basis set group =>   1
Atom  13N    basis set group =>   2
Atom  14C    basis set group =>   1
Atom  15N    basis set group =>   2
Atom  16C    basis set group =>   1
Atom  17C    basis set group =>   1
Atom  18C    basis set group =>   1
Atom  19C    basis set group =>   1
Atom  20C    basis set group =>   1
Atom  21C    basis set group =>   1
Atom  22C    basis set group =>   1
Atom  23C    basis set group =>   1
Atom  24C    basis set group =>   1
Atom  25C    basis set group =>   1
Atom  26C    basis set group =>   1
Atom  27C    basis set group =>   1
Atom  28C    basis set group =>   1
Atom  29C    basis set group =>   1
Atom  30C    basis set group =>   1
Atom  31C    basis set group =>   1
Atom  32C    basis set group =>   1
Atom  33C    basis set group =>   1
Atom  34C    basis set group =>   1
Atom  35C    basis set group =>   1
Atom  36C    basis set group =>   1
Atom  37C    basis set group =>   1
Atom  38C    basis set group =>   1
Atom  39C    basis set group =>   1
Atom  40C    basis set group =>   1
Atom  41C    basis set group =>   1
Atom  42C    basis set group =>   1
Atom  43C    basis set group =>   1
Atom  44C    basis set group =>   1
Atom  45C    basis set group =>   1
Atom  46C    basis set group =>   1
Atom  47C    basis set group =>   1
Atom  48C    basis set group =>   1
Atom  49C    basis set group =>   1
Atom  50C    basis set group =>   1
Atom  51C    basis set group =>   1
Atom  52H    basis set group =>   3
Atom  53H    basis set group =>   3
Atom  54H    basis set group =>   3
Atom  55H    basis set group =>   3
Atom  56H    basis set group =>   3
Atom  57H    basis set group =>   3
Atom  58H    basis set group =>   3
Atom  59H    basis set group =>   3
Atom  60H    basis set group =>   3
Atom  61H    basis set group =>   3
Atom  62H    basis set group =>   3
Atom  63H    basis set group =>   3
Atom  64H    basis set group =>   3
Atom  65H    basis set group =>   3
Atom  66H    basis set group =>   3
Atom  67H    basis set group =>   3
Atom  68H    basis set group =>   3
Atom  69H    basis set group =>   3
Atom  70H    basis set group =>   3
Atom  71H    basis set group =>   3
Atom  72H    basis set group =>   3
Atom  73H    basis set group =>   3
Atom  74H    basis set group =>   3
Atom  75H    basis set group =>   3
Atom  76H    basis set group =>   3
Atom  77H    basis set group =>   3
Atom  78H    basis set group =>   3
Atom  79H    basis set group =>   3
Atom  80H    basis set group =>   3
Atom  81H    basis set group =>   3
Atom  82H    basis set group =>   3
Atom  83H    basis set group =>   3
Atom  84H    basis set group =>   3
Atom  85H    basis set group =>   3
Atom  86H    basis set group =>   3
Atom  87H    basis set group =>   3
Atom  88H    basis set group =>   3
Atom  89H    basis set group =>   3


           ************************************************************
           *        Program running with 16 parallel MPI-processes    *
           *              working on a common directory               *
           ************************************************************
------------------------------------------------------------------------------
                           ORCA GTO INTEGRAL CALCULATION
------------------------------------------------------------------------------
------------------------------------------------------------------------------
                   ___                                                        
                  /   \      - P O W E R E D   B Y -                         
                 /     \                                                     
                 |  |  |   _    _      __       _____    __    __             
                 |  |  |  | |  | |    /  \     |  _  \  |  |  /  |          
                  \  \/   | |  | |   /    \    | | | |  |  | /  /          
                 / \  \   | |__| |  /  /\  \   | |_| |  |  |/  /          
                |  |  |   |  __  | /  /__\  \  |    /   |      \           
                |  |  |   | |  | | |   __   |  |    \   |  |\   \          
                \     /   | |  | | |  |  |  |  | |\  \  |  | \   \       
                 \___/    |_|  |_| |__|  |__|  |_| \__\ |__|  \__/        
                                                                              
                      - O R C A' S   B I G   F R I E N D -                    
                                      &                                       
                       - I N T E G R A L  F E E D E R -                       
                                                                              
 v1 FN, 2020, v2 2021                                                         
------------------------------------------------------------------------------


Reading SHARK input file /scratch/allen/tmpyp4_amber_gaff2/conf1/conf1/Conf145.orca.SHARKINP.tmp ... ok
----------------------
SHARK INTEGRAL PACKAGE
----------------------

Number of atoms                             ...     90
Number of basis functions                   ...   1230
Number of shells                            ...    738
Maximum angular momentum                    ...      2
Integral batch strategy                     ... SHARK/LIBINT Hybrid
RI-J (if used) integral strategy            ... SPLIT-RIJ (Revised 2003 algorithm where possible)
Printlevel                                  ...      1
Contraction scheme used                     ... PARTIAL GENERAL contraction
Coulomb Range Separation                    ... NOT USED
Exchange Range Separation                   ... NOT USED
Finite Nucleus Model                        ... NOT USED
Auxiliary Coulomb fitting basis             ... NOT available
Auxiliary J/K fitting basis                 ... NOT available
Auxiliary Correlation fitting basis         ... NOT available
Auxiliary 'external' fitting basis          ... NOT available
Integral threshold                          ...     2.500000e-11
Primitive cut-off                           ...     2.500000e-12
Primitive pair pre-selection threshold      ...     2.500000e-12

Calculating pre-screening integrals         ... done (  0.1 sec) Dimension = 738
Calculating pre-screening integrals (ORCA)  ... done (  0.3 sec) Dimension = 426
Organizing shell pair data                  ... done (  0.7 sec)
Shell pair information
Total number of shell pairs                 ...    272691
Shell pairs after pre-screening             ...     71640
Total number of primitive shell pairs       ...    422091
Primitive shell pairs kept                  ...     92449
          la=0 lb=0:  29407 shell pairs
          la=1 lb=0:  25996 shell pairs
          la=1 lb=1:   4706 shell pairs
          la=2 lb=0:   7879 shell pairs
          la=2 lb=1:   3122 shell pairs
          la=2 lb=2:    530 shell pairs

Calculating one electron integrals          ... done (  0.2 sec)
Calculating Nuclear repulsion               ... done (  0.0 sec) ENN=   6229.801752864923 Eh

SHARK setup successfully completed in   3.6 seconds

Maximum memory used throughout the entire GTOINT-calculation: 99.0 MB


           ************************************************************
           *        Program running with 16 parallel MPI-processes    *
           *              working on a common directory               *
           ************************************************************
-------------------------------------------------------------------------------
                                 ORCA SCF
-------------------------------------------------------------------------------

------------
SCF SETTINGS
------------
Hamiltonian:
 Ab initio Hamiltonian  Method          .... Hartree-Fock(GTOs)


General Settings:
 Integral files         IntName         .... /scratch/allen/tmpyp4_amber_gaff2/conf1/conf1/Conf145.orca
 Hartree-Fock type      HFTyp           .... RHF
 Total Charge           Charge          ....    0
 Multiplicity           Mult            ....    1
 Number of Electrons    NEL             ....  358
 Basis Dimension        Dim             ....  918
 Nuclear Repulsion      ENuc            ....   6229.8017528649 Eh

Convergence Acceleration:
 DIIS                   CNVDIIS         .... on
   Start iteration      DIISMaxIt       ....    12
   Startup error        DIISStart       ....  0.200000
   # of expansion vecs  DIISMaxEq       ....     5
   Bias factor          DIISBfac        ....   1.050
   Max. coefficient     DIISMaxC        ....  10.000
 Trust-Rad. Augm. Hess. CNVTRAH         .... auto
   Auto Start mean grad. ratio tolernc. ....  1.125000
   Auto Start start iteration           ....    20
   Auto Start num. interpolation iter.  ....    10
   Max. Number of Micro iterations      ....    16
   Max. Number of Macro iterations      .... Maxiter - #DIIS iter
   Number of Davidson start vectors     ....     2
   Converg. threshold I  (grad. norm)   ....   1.000e-05
   Converg. threshold II (energy diff.) ....   1.000e-08
   Grad. Scal. Fac. for Micro threshold ....   0.100
   Minimum threshold for Micro iter.    ....   0.010
   NR start threshold (gradient norm)   ....   0.001
   Initial trust radius                 ....   0.400
   Minimum AH scaling param. (alpha)    ....   1.000
   Maximum AH scaling param. (alpha)    .... 1000.000
   Orbital update algorithm             .... Taylor
   White noise on init. David. guess    .... on
   Maximum white noise                  ....   0.010
   Quad. conv. algorithm                .... NR
 SOSCF                  CNVSOSCF        .... on
   Start iteration      SOSCFMaxIt      ....   150
   Startup grad/error   SOSCFStart      ....  0.003300
 Level Shifting         CNVShift        .... on
   Level shift para.    LevelShift      ....    0.2500
   Turn off err/grad.   ShiftErr        ....    0.0010
 Zerner damping         CNVZerner       .... off
 Static damping         CNVDamp         .... on
   Fraction old density DampFac         ....    0.7000
   Max. Damping (<1)    DampMax         ....    0.9800
   Min. Damping (>=0)   DampMin         ....    0.0000
   Turn off err/grad.   DampErr         ....    0.1000
 Fernandez-Rico         CNVRico         .... off

SCF Procedure:
 Maximum # iterations   MaxIter         ....   125
 SCF integral mode      SCFMode         .... Direct
   Integral package                     .... SHARK and LIBINT hybrid scheme
 Reset frequency        DirectResetFreq ....    20
 Integral Threshold     Thresh          ....  2.500e-11 Eh
 Primitive CutOff       TCut            ....  2.500e-12 Eh

Convergence Tolerance:
 Convergence Check Mode ConvCheckMode   .... Total+1el-Energy
 Convergence forced     ConvForced      .... 1
 Energy Change          TolE            ....  1.000e-08 Eh
 1-El. energy change                    ....  1.000e-05 Eh
 Orbital Gradient       TolG            ....  1.000e-05
 Orbital Rotation angle TolX            ....  1.000e-05
 DIIS Error             TolErr          ....  5.000e-07


Diagonalization of the overlap matrix:
Smallest eigenvalue                        ... 2.220e-04
Time for diagonalization                   ...    0.449 sec
Threshold for overlap eigenvalues          ... 1.000e-08
Number of eigenvalues below threshold      ... 0
Time for construction of square roots      ...    0.266 sec
Total time needed                          ...    0.722 sec

Time for model grid setup =    1.299 sec

------------------------------
INITIAL GUESS: MODEL POTENTIAL
------------------------------
Loading Hartree-Fock densities                     ... done
Calculating cut-offs                               ... done
Initializing the effective Hamiltonian             ... done
Setting up the integral package (SHARK)            ... done
Starting the Coulomb interaction                   ... done (   1.4 sec)
Reading the grid                                   ... done
Mapping shells                                     ... done
Starting the XC term evaluation                    ... done (   0.2 sec)
Transforming the Hamiltonian                       ... done (   0.3 sec)
Diagonalizing the Hamiltonian                      ... done (   0.4 sec)
Back transforming the eigenvectors                 ... done (   0.1 sec)
Now organizing SCF variables                       ... done
                      ------------------
                      INITIAL GUESS DONE (   3.8 sec)
                      ------------------
--------------
SCF ITERATIONS
--------------
ITER       Energy         Delta-E        Max-DP      RMS-DP      [F,P]     Damp
               ***  Starting incremental Fock matrix formation  ***
  0  -2121.6959494274   0.000000000000 0.07338562  0.00121066  0.2322104 0.7000
  1  -2122.3516677344  -0.655718307004 0.05523290  0.00098407  0.1438410 0.7000
                               ***Turning on DIIS***
  2  -2122.7593308959  -0.407663161561 0.12862682  0.00223488  0.0802464 0.0000
  3  -2117.9202739030   4.839056992894 0.03019747  0.00066843  0.0439318 0.0000
  4  -2123.4344468731  -5.514172970023 0.00962748  0.00022474  0.0076192 0.0000
  5  -2123.5939617239  -0.159514850877 0.00519996  0.00013222  0.0049927 0.0000
  6  -2123.5773162644   0.016645459578 0.00357625  0.00008506  0.0019684 0.0000
  7  -2123.6758663967  -0.098550132338 0.00304697  0.00006686  0.0015688 0.0000
  8  -2123.6873496782  -0.011483281500 0.00321529  0.00006290  0.0014580 0.0000
  9  -2123.6563692657   0.030980412532 0.00257050  0.00004380  0.0011633 0.0000
 10  -2123.6661665264  -0.009797260769 0.00519834  0.00009048  0.0008975 0.0000
                      *** Initiating the SOSCF procedure ***
                           *** Shutting down DIIS ***
                      *** Re-Reading the Fockian *** 
                      *** Removing any level shift *** 
ITER      Energy       Delta-E        Grad      Rot      Max-DP    RMS-DP
 11  -2123.55668093   0.1094855935  0.000196  0.000196  0.000248  0.000005
               *** Restarting incremental Fock matrix formation ***
 12  -2123.62240393  -0.0657229969  0.000844  0.005741  0.001348  0.000033
 13  -2123.62250061  -0.0000966797  0.001033  0.029520  0.006433  0.000131
 14  -2123.62266784  -0.0001672288  0.000340  0.002046  0.000601  0.000012
 15  -2123.62268366  -0.0000158229  0.000162  0.003291  0.000795  0.000018
 16  -2123.62269347  -0.0000098057  0.000165  0.003202  0.000514  0.000011
 17  -2123.62269665  -0.0000031805  0.000131  0.002106  0.000330  0.000007
 18  -2123.62269835  -0.0000017052  0.000073  0.000830  0.000303  0.000004
 19  -2123.62269911  -0.0000007536  0.000043  0.000557  0.000137  0.000003
 20  -2123.62269934  -0.0000002381  0.000022  0.000420  0.000094  0.000002
 21  -2123.62269946  -0.0000001171  0.000023  0.000293  0.000096  0.000002
 22  -2123.62269953  -0.0000000727  0.000014  0.000282  0.000081  0.000001
 23  -2123.62269958  -0.0000000434  0.000007  0.000185  0.000044  0.000001
 24  -2123.62269960  -0.0000000248  0.000004  0.000134  0.000029  0.000001
 25  -2123.62269961  -0.0000000105  0.000004  0.000102  0.000016  0.000000
 26  -2123.62269962  -0.0000000058  0.000003  0.000126  0.000019  0.000000
 27  -2123.62269962  -0.0000000046  0.000003  0.000132  0.000018  0.000000
                  ***Gradient check signals convergence***
              ***Rediagonalizing the Fockian in SOSCF/NRSCF***

               *****************************************************
               *                     SUCCESS                       *
               *           SCF CONVERGED AFTER  28 CYCLES          *
               *****************************************************


----------------
TOTAL SCF ENERGY
----------------

Total Energy       :        -2123.62269963 Eh          -57786.71148 eV

Components:
Nuclear Repulsion  :         6229.80175286 Eh          169521.52400 eV
Electronic Energy  :        -8353.42445249 Eh         -227308.23548 eV
One Electron Energy:       -15300.45437064 Eh         -416346.53007 eV
Two Electron Energy:         6947.02991815 Eh          189038.29459 eV

Virial components:
Potential Energy   :        -4245.72799291 Eh         -115532.13223 eV
Kinetic Energy     :         2122.10529329 Eh           57745.42075 eV
Virial Ratio       :            2.00071505


---------------
SCF CONVERGENCE
---------------

  Last Energy change         ...   -1.6207e-09  Tolerance :   1.0000e-08
  Last MAX-Density change    ...    1.3161e-05  Tolerance :   1.0000e-07
  Last RMS-Density change    ...    3.4100e-07  Tolerance :   5.0000e-09
  Last Orbital Gradient      ...    2.1664e-06  Tolerance :   1.0000e-05
  Last Orbital Rotation      ...    1.1227e-04  Tolerance :   1.0000e-05

             **** THE GBW FILE WAS UPDATED (/scratch/allen/tmpyp4_amber_gaff2/conf1/conf1/Conf145.orca.gbw) ****
             **** DENSITY /scratch/allen/tmpyp4_amber_gaff2/conf1/conf1/Conf145.orca.scfp WAS UPDATED ****
             **** ENERGY FILE WAS UPDATED (/scratch/allen/tmpyp4_amber_gaff2/conf1/conf1/Conf145.orca.en.tmp) ****
             **** THE GBW FILE WAS UPDATED (/scratch/allen/tmpyp4_amber_gaff2/conf1/conf1/Conf145.orca.gbw) ****
             **** DENSITY /scratch/allen/tmpyp4_amber_gaff2/conf1/conf1/Conf145.orca.scfp WAS UPDATED ****
----------------
ORBITAL ENERGIES
----------------

  NO   OCC          E(Eh)            E(eV) 
   0   2.0000     -15.669012      -426.3755 
   1   2.0000     -15.637880      -425.5284 
   2   2.0000     -15.628524      -425.2738 
   3   2.0000     -15.593238      -424.3136 
   4   2.0000     -15.524631      -422.4467 
   5   2.0000     -15.515888      -422.2088 
   6   2.0000     -15.450918      -420.4409 
   7   2.0000     -15.443125      -420.2288 
   8   2.0000     -11.321271      -308.0675 
   9   2.0000     -11.320952      -308.0588 
  10   2.0000     -11.318743      -307.9987 
  11   2.0000     -11.301747      -307.5362 
  12   2.0000     -11.296206      -307.3854 
  13   2.0000     -11.295659      -307.3705 
  14   2.0000     -11.290685      -307.2352 
  15   2.0000     -11.287755      -307.1554 
  16   2.0000     -11.284157      -307.0575 
  17   2.0000     -11.274910      -306.8059 
  18   2.0000     -11.271935      -306.7249 
  19   2.0000     -11.258216      -306.3516 
  20   2.0000     -11.257574      -306.3342 
  21   2.0000     -11.255816      -306.2863 
  22   2.0000     -11.254883      -306.2609 
  23   2.0000     -11.241495      -305.8966 
  24   2.0000     -11.234075      -305.6947 
  25   2.0000     -11.233503      -305.6792 
  26   2.0000     -11.233299      -305.6736 
  27   2.0000     -11.227186      -305.5073 
  28   2.0000     -11.226902      -305.4995 
  29   2.0000     -11.209692      -305.0312 
  30   2.0000     -11.208314      -304.9937 
  31   2.0000     -11.203282      -304.8568 
  32   2.0000     -11.197538      -304.7005 
  33   2.0000     -11.197254      -304.6928 
  34   2.0000     -11.189812      -304.4903 
  35   2.0000     -11.189300      -304.4763 
  36   2.0000     -11.186719      -304.4061 
  37   2.0000     -11.182957      -304.3037 
  38   2.0000     -11.182046      -304.2789 
  39   2.0000     -11.174542      -304.0747 
  40   2.0000     -11.171700      -303.9974 
  41   2.0000     -11.168325      -303.9056 
  42   2.0000     -11.167719      -303.8891 
  43   2.0000     -11.162758      -303.7541 
  44   2.0000     -11.161494      -303.7197 
  45   2.0000     -11.159530      -303.6662 
  46   2.0000     -11.156108      -303.5731 
  47   2.0000     -11.151454      -303.4465 
  48   2.0000     -11.148031      -303.3533 
  49   2.0000     -11.141849      -303.1851 
  50   2.0000     -11.134980      -302.9982 
  51   2.0000     -11.127847      -302.8041 
  52   2.0000      -1.351207       -36.7682 
  53   2.0000      -1.324596       -36.0441 
  54   2.0000      -1.316708       -35.8295 
  55   2.0000      -1.287313       -35.0296 
  56   2.0000      -1.225095       -33.3365 
  57   2.0000      -1.210424       -32.9373 
  58   2.0000      -1.169283       -31.8178 
  59   2.0000      -1.153852       -31.3979 
  60   2.0000      -1.135900       -30.9094 
  61   2.0000      -1.113025       -30.2869 
  62   2.0000      -1.106455       -30.1082 
  63   2.0000      -1.082804       -29.4646 
  64   2.0000      -1.073562       -29.2131 
  65   2.0000      -1.048635       -28.5348 
  66   2.0000      -1.041480       -28.3401 
  67   2.0000      -1.036159       -28.1953 
  68   2.0000      -1.015359       -27.6293 
  69   2.0000      -1.014586       -27.6083 
  70   2.0000      -1.009390       -27.4669 
  71   2.0000      -0.992800       -27.0155 
  72   2.0000      -0.987377       -26.8679 
  73   2.0000      -0.978636       -26.6300 
  74   2.0000      -0.972225       -26.4556 
  75   2.0000      -0.959581       -26.1115 
  76   2.0000      -0.951734       -25.8980 
  77   2.0000      -0.947041       -25.7703 
  78   2.0000      -0.935650       -25.4603 
  79   2.0000      -0.920247       -25.0412 
  80   2.0000      -0.903179       -24.5768 
  81   2.0000      -0.892371       -24.2827 
  82   2.0000      -0.875813       -23.8321 
  83   2.0000      -0.871109       -23.7041 
  84   2.0000      -0.866657       -23.5829 
  85   2.0000      -0.855495       -23.2792 
  86   2.0000      -0.841172       -22.8895 
  87   2.0000      -0.837521       -22.7901 
  88   2.0000      -0.822824       -22.3902 
  89   2.0000      -0.798386       -21.7252 
  90   2.0000      -0.792918       -21.5764 
  91   2.0000      -0.747626       -20.3439 
  92   2.0000      -0.738989       -20.1089 
  93   2.0000      -0.732759       -19.9394 
  94   2.0000      -0.723952       -19.6997 
  95   2.0000      -0.720187       -19.5973 
  96   2.0000      -0.714589       -19.4450 
  97   2.0000      -0.708034       -19.2666 
  98   2.0000      -0.703779       -19.1508 
  99   2.0000      -0.696357       -18.9488 
 100   2.0000      -0.695490       -18.9252 
 101   2.0000      -0.682671       -18.5764 
 102   2.0000      -0.679715       -18.4960 
 103   2.0000      -0.677184       -18.4271 
 104   2.0000      -0.675036       -18.3687 
 105   2.0000      -0.670998       -18.2588 
 106   2.0000      -0.666784       -18.1441 
 107   2.0000      -0.662301       -18.0221 
 108   2.0000      -0.655946       -17.8492 
 109   2.0000      -0.653479       -17.7821 
 110   2.0000      -0.649055       -17.6617 
 111   2.0000      -0.643655       -17.5147 
 112   2.0000      -0.641976       -17.4690 
 113   2.0000      -0.638272       -17.3683 
 114   2.0000      -0.636944       -17.3321 
 115   2.0000      -0.626655       -17.0522 
 116   2.0000      -0.624776       -17.0010 
 117   2.0000      -0.615927       -16.7602 
 118   2.0000      -0.615149       -16.7390 
 119   2.0000      -0.612826       -16.6758 
 120   2.0000      -0.608865       -16.5681 
 121   2.0000      -0.604603       -16.4521 
 122   2.0000      -0.599917       -16.3246 
 123   2.0000      -0.587118       -15.9763 
 124   2.0000      -0.584164       -15.8959 
 125   2.0000      -0.582503       -15.8507 
 126   2.0000      -0.578835       -15.7509 
 127   2.0000      -0.577771       -15.7219 
 128   2.0000      -0.564792       -15.3688 
 129   2.0000      -0.558543       -15.1987 
 130   2.0000      -0.552303       -15.0289 
 131   2.0000      -0.548147       -14.9158 
 132   2.0000      -0.543146       -14.7797 
 133   2.0000      -0.539434       -14.6787 
 134   2.0000      -0.538253       -14.6466 
 135   2.0000      -0.534100       -14.5336 
 136   2.0000      -0.525613       -14.3027 
 137   2.0000      -0.523741       -14.2517 
 138   2.0000      -0.518120       -14.0988 
 139   2.0000      -0.513495       -13.9729 
 140   2.0000      -0.512045       -13.9334 
 141   2.0000      -0.510143       -13.8817 
 142   2.0000      -0.509833       -13.8733 
 143   2.0000      -0.503136       -13.6910 
 144   2.0000      -0.500574       -13.6213 
 145   2.0000      -0.496756       -13.5174 
 146   2.0000      -0.494276       -13.4499 
 147   2.0000      -0.484825       -13.1928 
 148   2.0000      -0.480953       -13.0874 
 149   2.0000      -0.467804       -12.7296 
 150   2.0000      -0.465041       -12.6544 
 151   2.0000      -0.456925       -12.4336 
 152   2.0000      -0.449213       -12.2237 
 153   2.0000      -0.446400       -12.1472 
 154   2.0000      -0.443528       -12.0690 
 155   2.0000      -0.439224       -11.9519 
 156   2.0000      -0.430470       -11.7137 
 157   2.0000      -0.425716       -11.5843 
 158   2.0000      -0.403123       -10.9695 
 159   2.0000      -0.386271       -10.5110 
 160   2.0000      -0.380613       -10.3570 
 161   2.0000      -0.378524       -10.3002 
 162   2.0000      -0.370910       -10.0930 
 163   2.0000      -0.359316        -9.7775 
 164   2.0000      -0.353436        -9.6175 
 165   2.0000      -0.338684        -9.2161 
 166   2.0000      -0.337531        -9.1847 
 167   2.0000      -0.327986        -8.9249 
 168   2.0000      -0.327408        -8.9092 
 169   2.0000      -0.303881        -8.2690 
 170   2.0000      -0.299609        -8.1528 
 171   2.0000      -0.286308        -7.7908 
 172   2.0000      -0.283133        -7.7044 
 173   2.0000      -0.260843        -7.0979 
 174   2.0000      -0.244515        -6.6536 
 175   2.0000      -0.189749        -5.1633 
 176   2.0000      -0.180036        -4.8990 
 177   2.0000      -0.074098        -2.0163 
 178   2.0000      -0.057823        -1.5735 
 179   0.0000       0.028696         0.7809 
 180   0.0000       0.066979         1.8226 
 181   0.0000       0.091858         2.4996 
 182   0.0000       0.107737         2.9317 
 183   0.0000       0.113339         3.0841 
 184   0.0000       0.134554         3.6614 
 185   0.0000       0.141485         3.8500 
 186   0.0000       0.146546         3.9877 
 187   0.0000       0.162904         4.4328 
 188   0.0000       0.163633         4.4527 
 189   0.0000       0.167430         4.5560 
 190   0.0000       0.167844         4.5673 
 191   0.0000       0.185257         5.0411 
 192   0.0000       0.186044         5.0625 
 193   0.0000       0.189466         5.1556 
 194   0.0000       0.202701         5.5158 
 195   0.0000       0.206077         5.6076 
 196   0.0000       0.207575         5.6484 
 197   0.0000       0.210619         5.7312 
 198   0.0000       0.221763         6.0345 
 199   0.0000       0.225101         6.1253 
 200   0.0000       0.230150         6.2627 
 201   0.0000       0.237151         6.4532 
 202   0.0000       0.239443         6.5156 
 203   0.0000       0.241412         6.5691 
 204   0.0000       0.249435         6.7875 
 205   0.0000       0.254957         6.9377 
 206   0.0000       0.257324         7.0021 
 207   0.0000       0.259046         7.0490 
 208   0.0000       0.260197         7.0803 
 209   0.0000       0.261673         7.1205 
 210   0.0000       0.264225         7.1899 
 211   0.0000       0.270212         7.3528 
 212   0.0000       0.271434         7.3861 
 213   0.0000       0.271833         7.3969 
 214   0.0000       0.274667         7.4741 
 215   0.0000       0.276561         7.5256 
 216   0.0000       0.278689         7.5835 
 217   0.0000       0.280923         7.6443 
 218   0.0000       0.284881         7.7520 
 219   0.0000       0.288970         7.8633 
 220   0.0000       0.289171         7.8688 
 221   0.0000       0.293375         7.9831 
 222   0.0000       0.293990         7.9999 
 223   0.0000       0.295773         8.0484 
 224   0.0000       0.298870         8.1327 
 225   0.0000       0.299842         8.1591 
 226   0.0000       0.306870         8.3503 
 227   0.0000       0.308244         8.3877 
 228   0.0000       0.309558         8.4235 
 229   0.0000       0.321838         8.7577 
 230   0.0000       0.324194         8.8218 
 231   0.0000       0.329337         8.9617 
 232   0.0000       0.330655         8.9976 
 233   0.0000       0.333340         9.0707 
 234   0.0000       0.344009         9.3610 
 235   0.0000       0.352639         9.5958 
 236   0.0000       0.357495         9.7279 
 237   0.0000       0.379200        10.3186 
 238   0.0000       0.394217        10.7272 
 239   0.0000       0.397016        10.8033 
 240   0.0000       0.401104        10.9146 
 241   0.0000       0.412384        11.2215 
 242   0.0000       0.417662        11.3652 
 243   0.0000       0.419520        11.4157 
 244   0.0000       0.427405        11.6303 
 245   0.0000       0.434588        11.8257 
 246   0.0000       0.436701        11.8832 
 247   0.0000       0.438541        11.9333 
 248   0.0000       0.443572        12.0702 
 249   0.0000       0.448133        12.1943 
 250   0.0000       0.450832        12.2678 
 251   0.0000       0.459233        12.4964 
 252   0.0000       0.464155        12.6303 
 253   0.0000       0.469078        12.7643 
 254   0.0000       0.469679        12.7806 
 255   0.0000       0.474242        12.9048 
 256   0.0000       0.479986        13.0611 
 257   0.0000       0.482413        13.1271 
 258   0.0000       0.487212        13.2577 
 259   0.0000       0.498503        13.5649 
 260   0.0000       0.502283        13.6678 
 261   0.0000       0.505022        13.7423 
 262   0.0000       0.506060        13.7706 
 263   0.0000       0.509083        13.8528 
 264   0.0000       0.514082        13.9889 
 265   0.0000       0.518397        14.1063 
 266   0.0000       0.524240        14.2653 
 267   0.0000       0.525091        14.2885 
 268   0.0000       0.532868        14.5001 
 269   0.0000       0.537028        14.6133 
 270   0.0000       0.540246        14.7008 
 271   0.0000       0.548221        14.9178 
 272   0.0000       0.550569        14.9817 
 273   0.0000       0.557164        15.1612 
 274   0.0000       0.560782        15.2596 
 275   0.0000       0.564317        15.3559 
 276   0.0000       0.569639        15.5007 
 277   0.0000       0.572759        15.5856 
 278   0.0000       0.578324        15.7370 
 279   0.0000       0.586822        15.9682 
 280   0.0000       0.589001        16.0275 
 281   0.0000       0.590976        16.0813 
 282   0.0000       0.591934        16.1073 
 283   0.0000       0.596102        16.2208 
 284   0.0000       0.597686        16.2639 
 285   0.0000       0.598687        16.2911 
 286   0.0000       0.608308        16.5529 
 287   0.0000       0.612212        16.6591 
 288   0.0000       0.616704        16.7814 
 289   0.0000       0.621680        16.9168 
 290   0.0000       0.627581        17.0773 
 291   0.0000       0.630169        17.1478 
 292   0.0000       0.633676        17.2432 
 293   0.0000       0.635174        17.2840 
 294   0.0000       0.646133        17.5822 
 295   0.0000       0.649718        17.6797 
 296   0.0000       0.653716        17.7885 
 297   0.0000       0.656830        17.8732 
 298   0.0000       0.665205        18.1011 
 299   0.0000       0.667054        18.1515 
 300   0.0000       0.670349        18.2411 
 301   0.0000       0.672608        18.3026 
 302   0.0000       0.677938        18.4476 
 303   0.0000       0.679417        18.4879 
 304   0.0000       0.682134        18.5618 
 305   0.0000       0.686510        18.6809 
 306   0.0000       0.689412        18.7599 
 307   0.0000       0.691414        18.8143 
 308   0.0000       0.695603        18.9283 
 309   0.0000       0.697815        18.9885 
 310   0.0000       0.702212        19.1082 
 311   0.0000       0.702944        19.1281 
 312   0.0000       0.706585        19.2272 
 313   0.0000       0.709709        19.3122 
 314   0.0000       0.711529        19.3617 
 315   0.0000       0.714558        19.4441 
 316   0.0000       0.716849        19.5065 
 317   0.0000       0.718482        19.5509 
 318   0.0000       0.721490        19.6327 
 319   0.0000       0.725290        19.7362 
 320   0.0000       0.725836        19.7510 
 321   0.0000       0.730516        19.8784 
 322   0.0000       0.733135        19.9496 
 323   0.0000       0.735484        20.0135 
 324   0.0000       0.737588        20.0708 
 325   0.0000       0.740348        20.1459 
 326   0.0000       0.743411        20.2292 
 327   0.0000       0.745319        20.2812 
 328   0.0000       0.748882        20.3781 
 329   0.0000       0.751393        20.4465 
 330   0.0000       0.752633        20.4802 
 331   0.0000       0.755730        20.5645 
 332   0.0000       0.759487        20.6667 
 333   0.0000       0.761980        20.7345 
 334   0.0000       0.768176        20.9031 
 335   0.0000       0.774188        21.0667 
 336   0.0000       0.776266        21.1233 
 337   0.0000       0.781624        21.2691 
 338   0.0000       0.784085        21.3360 
 339   0.0000       0.789151        21.4739 
 340   0.0000       0.792358        21.5612 
 341   0.0000       0.795234        21.6394 
 342   0.0000       0.797007        21.6876 
 343   0.0000       0.800842        21.7920 
 344   0.0000       0.803865        21.8743 
 345   0.0000       0.806181        21.9373 
 346   0.0000       0.807690        21.9784 
 347   0.0000       0.810409        22.0524 
 348   0.0000       0.814455        22.1624 
 349   0.0000       0.817665        22.2498 
 350   0.0000       0.819902        22.3107 
 351   0.0000       0.821997        22.3677 
 352   0.0000       0.822571        22.3833 
 353   0.0000       0.824355        22.4318 
 354   0.0000       0.831245        22.6193 
 355   0.0000       0.832036        22.6409 
 356   0.0000       0.833844        22.6901 
 357   0.0000       0.835955        22.7475 
 358   0.0000       0.836603        22.7651 
 359   0.0000       0.838820        22.8255 
 360   0.0000       0.841918        22.9098 
 361   0.0000       0.843370        22.9493 
 362   0.0000       0.844103        22.9692 
 363   0.0000       0.844439        22.9783 
 364   0.0000       0.849379        23.1128 
 365   0.0000       0.854524        23.2528 
 366   0.0000       0.856375        23.3031 
 367   0.0000       0.860079        23.4040 
 368   0.0000       0.861955        23.4550 
 369   0.0000       0.865174        23.5426 
 370   0.0000       0.869902        23.6712 
 371   0.0000       0.872821        23.7507 
 372   0.0000       0.874598        23.7990 
 373   0.0000       0.879639        23.9362 
 374   0.0000       0.881381        23.9836 
 375   0.0000       0.881820        23.9955 
 376   0.0000       0.885194        24.0873 
 377   0.0000       0.888307        24.1721 
 378   0.0000       0.890824        24.2405 
 379   0.0000       0.893929        24.3250 
 380   0.0000       0.896362        24.3913 
 381   0.0000       0.899646        24.4806 
 382   0.0000       0.902230        24.5509 
 383   0.0000       0.902414        24.5559 
 384   0.0000       0.903477        24.5848 
 385   0.0000       0.905326        24.6352 
 386   0.0000       0.907062        24.6824 
 387   0.0000       0.908965        24.7342 
 388   0.0000       0.911198        24.7950 
 389   0.0000       0.916156        24.9299 
 390   0.0000       0.918249        24.9868 
 391   0.0000       0.922567        25.1043 
 392   0.0000       0.925246        25.1772 
 393   0.0000       0.926280        25.2054 
 394   0.0000       0.927360        25.2347 
 395   0.0000       0.929757        25.3000 
 396   0.0000       0.931264        25.3410 
 397   0.0000       0.932121        25.3643 
 398   0.0000       0.941361        25.6157 
 399   0.0000       0.942835        25.6558 
 400   0.0000       0.944221        25.6936 
 401   0.0000       0.949538        25.8383 
 402   0.0000       0.953796        25.9541 
 403   0.0000       0.954634        25.9769 
 404   0.0000       0.959930        26.1210 
 405   0.0000       0.961415        26.1614 
 406   0.0000       0.964093        26.2343 
 407   0.0000       0.966668        26.3044 
 408   0.0000       0.969091        26.3703 
 409   0.0000       0.977086        26.5879 
 410   0.0000       0.980047        26.6684 
 411   0.0000       0.983039        26.7498 
 412   0.0000       0.988965        26.9111 
 413   0.0000       0.989419        26.9235 
 414   0.0000       0.994692        27.0669 
 415   0.0000       1.003845        27.3160 
 416   0.0000       1.003956        27.3190 
 417   0.0000       1.007057        27.4034 
 418   0.0000       1.010005        27.4836 
 419   0.0000       1.020203        27.7611 
 420   0.0000       1.023827        27.8597 
 421   0.0000       1.028803        27.9952 
 422   0.0000       1.038929        28.2707 
 423   0.0000       1.043611        28.3981 
 424   0.0000       1.044808        28.4307 
 425   0.0000       1.055032        28.7089 
 426   0.0000       1.059472        28.8297 
 427   0.0000       1.061597        28.8875 
 428   0.0000       1.067835        29.0573 
 429   0.0000       1.074392        29.2357 
 430   0.0000       1.078034        29.3348 
 431   0.0000       1.083622        29.4868 
 432   0.0000       1.085784        29.5457 
 433   0.0000       1.089428        29.6448 
 434   0.0000       1.097565        29.8663 
 435   0.0000       1.104887        30.0655 
 436   0.0000       1.105900        30.0931 
 437   0.0000       1.110971        30.2310 
 438   0.0000       1.115858        30.3640 
 439   0.0000       1.117136        30.3988 
 440   0.0000       1.120925        30.5019 
 441   0.0000       1.123500        30.5720 
 442   0.0000       1.125572        30.6284 
 443   0.0000       1.128592        30.7105 
 444   0.0000       1.130898        30.7733 
 445   0.0000       1.133452        30.8428 
 446   0.0000       1.140672        31.0393 
 447   0.0000       1.142371        31.0855 
 448   0.0000       1.147239        31.2179 
 449   0.0000       1.150317        31.3017 
 450   0.0000       1.151535        31.3348 
 451   0.0000       1.153006        31.3749 
 452   0.0000       1.158260        31.5179 
 453   0.0000       1.161479        31.6054 
 454   0.0000       1.164225        31.6802 
 455   0.0000       1.170936        31.8628 
 456   0.0000       1.171880        31.8885 
 457   0.0000       1.177743        32.0480 
 458   0.0000       1.180197        32.1148 
 459   0.0000       1.186118        32.2759 
 460   0.0000       1.189201        32.3598 
 461   0.0000       1.196356        32.5545 
 462   0.0000       1.201755        32.7014 
 463   0.0000       1.202265        32.7153 
 464   0.0000       1.205887        32.8139 
 465   0.0000       1.208862        32.8948 
 466   0.0000       1.211674        32.9713 
 467   0.0000       1.214793        33.0562 
 468   0.0000       1.221246        33.2318 
 469   0.0000       1.226237        33.3676 
 470   0.0000       1.228880        33.4395 
 471   0.0000       1.232477        33.5374 
 472   0.0000       1.233839        33.5745 
 473   0.0000       1.235229        33.6123 
 474   0.0000       1.242193        33.8018 
 475   0.0000       1.244833        33.8736 
 476   0.0000       1.249413        33.9983 
 477   0.0000       1.251408        34.0525 
 478   0.0000       1.253971        34.1223 
 479   0.0000       1.254944        34.1488 
 480   0.0000       1.258364        34.2418 
 481   0.0000       1.262499        34.3543 
 482   0.0000       1.269653        34.5490 
 483   0.0000       1.271519        34.5998 
 484   0.0000       1.275000        34.6945 
 485   0.0000       1.275715        34.7140 
 486   0.0000       1.280331        34.8396 
 487   0.0000       1.284373        34.9496 
 488   0.0000       1.288610        35.0649 
 489   0.0000       1.290340        35.1119 
 490   0.0000       1.294290        35.2194 
 491   0.0000       1.295288        35.2466 
 492   0.0000       1.299621        35.3645 
 493   0.0000       1.302507        35.4430 
 494   0.0000       1.310658        35.6648 
 495   0.0000       1.313860        35.7519 
 496   0.0000       1.317899        35.8619 
 497   0.0000       1.322478        35.9865 
 498   0.0000       1.325767        36.0760 
 499   0.0000       1.328720        36.1563 
 500   0.0000       1.334493        36.3134 
 501   0.0000       1.334795        36.3216 
 502   0.0000       1.336464        36.3670 
 503   0.0000       1.346221        36.6325 
 504   0.0000       1.348414        36.6922 
 505   0.0000       1.350135        36.7390 
 506   0.0000       1.350830        36.7580 
 507   0.0000       1.357152        36.9300 
 508   0.0000       1.361720        37.0543 
 509   0.0000       1.364012        37.1166 
[...]
      pz      :     0.022078  p :     0.079732
      px      :     0.043540
      py      :     0.014114
 77 H s       :     0.885716  s :     0.885716
      pz      :     0.047893  p :     0.079188
      px      :     0.015020
      py      :     0.016276
 78 H s       :     0.886135  s :     0.886135
      pz      :     0.025835  p :     0.079140
      px      :     0.020480
      py      :     0.032825
 79 H s       :     0.910014  s :     0.910014
      pz      :     0.021884  p :     0.086444
      px      :     0.021688
      py      :     0.042872
 80 H s       :     0.866187  s :     0.866187
      pz      :     0.039254  p :     0.084653
      px      :     0.030200
      py      :     0.015199
 81 H s       :     0.887183  s :     0.887183
      pz      :     0.037790  p :     0.084063
      px      :     0.016191
      py      :     0.030082
 82 H s       :     0.916035  s :     0.916035
      pz      :     0.022016  p :     0.086748
      px      :     0.031566
      py      :     0.033167
 83 H s       :     0.873711  s :     0.873711
      pz      :     0.039226  p :     0.084025
      px      :     0.015281
      py      :     0.029518
 84 H s       :     0.887221  s :     0.887221
      pz      :     0.035745  p :     0.083507
      px      :     0.031687
      py      :     0.016075
 85 H s       :     0.893437  s :     0.893437
      pz      :     0.022482  p :     0.079757
      px      :     0.014089
      py      :     0.043186
 86 H s       :     0.891224  s :     0.891224
      pz      :     0.024719  p :     0.078812
      px      :     0.032964
      py      :     0.021129
 87 H s       :     0.890150  s :     0.890150
      pz      :     0.047987  p :     0.078711
      px      :     0.015590
      py      :     0.015134
 88 H s       :     0.911345  s :     0.911345
      pz      :     0.021768  p :     0.087027
      px      :     0.042819
      py      :     0.022440
 89 H s       :     0.871564  s :     0.871564
      pz      :     0.037934  p :     0.083831
      px      :     0.030466
      py      :     0.015432


                      *****************************
                      * MAYER POPULATION ANALYSIS *
                      *****************************

  NA   - Mulliken gross atomic population
  ZA   - Total nuclear charge
  QA   - Mulliken gross atomic charge
  VA   - Mayer's total valence
  BVA  - Mayer's bonded valence
  FA   - Mayer's free valence

  ATOM       NA         ZA         QA         VA         BVA        FA
  0 C      5.7944     6.0000     0.2056     3.8399     3.8399     0.0000
  1 N      7.4542     7.0000    -0.4542     3.3305     3.3305    -0.0000
  2 C      6.0650     6.0000    -0.0650     3.9210     3.9210     0.0000
  3 N      7.3363     7.0000    -0.3363     3.4589     3.4589    -0.0000
  4 C      6.0540     6.0000    -0.0540     4.0093     4.0093     0.0000
  5 N      7.5611     7.0000    -0.5611     3.0951     3.0951     0.0000
  6 C      6.1148     6.0000    -0.1148     4.0052     4.0052     0.0000
  7 N      7.3400     7.0000    -0.3400     3.4349     3.4349    -0.0000
  8 C      5.7930     6.0000     0.2070     3.8418     3.8418     0.0000
  9 N      7.5627     7.0000    -0.5627     3.0793     3.0793     0.0000
 10 C      5.8809     6.0000     0.1191     3.9078     3.9078     0.0000
 11 N      7.4377     7.0000    -0.4377     3.3823     3.3823     0.0000
 12 C      6.0815     6.0000    -0.0815     3.9050     3.9050     0.0000
 13 N      7.4319     7.0000    -0.4319     3.4165     3.4165    -0.0000
 14 C      5.7745     6.0000     0.2255     3.7823     3.7823    -0.0000
 15 N      7.4415     7.0000    -0.4415     3.3693     3.3693    -0.0000
 16 C      5.7702     6.0000     0.2298     3.7803     3.7803     0.0000
 17 C      6.1116     6.0000    -0.1116     4.0057     4.0057    -0.0000
 18 C      6.1708     6.0000    -0.1708     3.7617     3.7617     0.0000
 19 C      5.7878     6.0000     0.2122     3.8630     3.8630     0.0000
 20 C      5.7863     6.0000     0.2137     3.8279     3.8279    -0.0000
 21 C      6.0922     6.0000    -0.0922     3.9012     3.9012     0.0000
 22 C      6.0886     6.0000    -0.0886     3.9819     3.9819    -0.0000
 23 C      6.0417     6.0000    -0.0417     3.9920     3.9920     0.0000
 24 C      5.8025     6.0000     0.1975     3.8216     3.8216    -0.0000
 25 C      5.8859     6.0000     0.1141     3.8901     3.8901     0.0000
 26 C      6.0753     6.0000    -0.0753     3.9066     3.9066     0.0000
 27 C      5.7872     6.0000     0.2128     3.8663     3.8663     0.0000
 28 C      6.0593     6.0000    -0.0593     3.9886     3.9886    -0.0000
 29 C      6.1808     6.0000    -0.1808     3.7440     3.7440     0.0000
 30 C      5.7566     6.0000     0.2434     3.7972     3.7972    -0.0000
 31 C      5.7733     6.0000     0.2267     3.8201     3.8201     0.0000
 32 C      6.0619     6.0000    -0.0619     3.9226     3.9226    -0.0000
 33 C      6.0656     6.0000    -0.0656     3.9753     3.9753    -0.0000
 34 C      6.0496     6.0000    -0.0496     3.9859     3.9859    -0.0000
 35 C      5.7786     6.0000     0.2214     3.8186     3.8186     0.0000
 36 C      5.8903     6.0000     0.1097     3.8788     3.8788    -0.0000
 37 C      6.0649     6.0000    -0.0649     3.9175     3.9175     0.0000
 38 C      5.7663     6.0000     0.2337     3.8017     3.8017    -0.0000
 39 C      6.0596     6.0000    -0.0596     3.9850     3.9850     0.0000
 40 C      6.1823     6.0000    -0.1823     3.7302     3.7302    -0.0000
 41 C      5.7766     6.0000     0.2234     3.8850     3.8850     0.0000
 42 C      5.8023     6.0000     0.1977     3.8266     3.8266    -0.0000
 43 C      6.0730     6.0000    -0.0730     3.9004     3.9004     0.0000
 44 C      6.0911     6.0000    -0.0911     3.9858     3.9858     0.0000
 45 C      6.0598     6.0000    -0.0598     3.9923     3.9923    -0.0000
 46 C      5.7916     6.0000     0.2084     3.8284     3.8284     0.0000
 47 C      5.8843     6.0000     0.1157     3.8940     3.8940    -0.0000
 48 C      6.0691     6.0000    -0.0691     3.9083     3.9083    -0.0000
 49 C      5.7645     6.0000     0.2355     3.8927     3.8927     0.0000
 50 C      6.0478     6.0000    -0.0478     3.9906     3.9906     0.0000
 51 C      6.1930     6.0000    -0.1930     3.7369     3.7369     0.0000
 52 H      0.9587     1.0000     0.0413     0.9860     0.9860     0.0000
 53 H      1.0163     1.0000    -0.0163     0.9985     0.9985     0.0000
 54 H      0.9490     1.0000     0.0510     1.0114     1.0114     0.0000
 55 H      0.9599     1.0000     0.0401     0.9866     0.9866    -0.0000
 56 H      0.9499     1.0000     0.0501     0.9699     0.9699     0.0000
 57 H      0.9512     1.0000     0.0488     0.9824     0.9824     0.0000
 58 H      0.9521     1.0000     0.0479     0.9853     0.9853    -0.0000
 59 H      0.9990     1.0000     0.0010     1.0038     1.0038     0.0000
 60 H      0.9492     1.0000     0.0508     1.0144     1.0144    -0.0000
 61 H      0.8288     1.0000     0.1712     1.0419     1.0419    -0.0000
 62 H      0.8248     1.0000     0.1752     1.0436     1.0436     0.0000
 63 H      0.9433     1.0000     0.0567     0.9852     0.9852    -0.0000
 64 H      1.0055     1.0000    -0.0055     0.9976     0.9976     0.0000
 65 H      0.9530     1.0000     0.0470     1.0097     1.0097    -0.0000
 66 H      0.9432     1.0000     0.0568     0.9853     0.9853    -0.0000
 67 H      0.9366     1.0000     0.0634     0.9720     0.9720    -0.0000
 68 H      0.9421     1.0000     0.0579     0.9868     0.9868    -0.0000
 69 H      0.9424     1.0000     0.0576     0.9829     0.9829    -0.0000
 70 H      1.0278     1.0000    -0.0278     0.9930     0.9930    -0.0000
 71 H      0.9534     1.0000     0.0466     1.0060     1.0060    -0.0000
 72 H      0.9321     1.0000     0.0679     0.9839     0.9839    -0.0000
 73 H      1.0092     1.0000    -0.0092     1.0003     1.0003     0.0000
 74 H      0.9427     1.0000     0.0573     1.0102     1.0102    -0.0000
 75 H      0.9329     1.0000     0.0671     0.9843     0.9843     0.0000
 76 H      0.9280     1.0000     0.0720     0.9720     0.9720    -0.0000
 77 H      0.9343     1.0000     0.0657     0.9854     0.9854    -0.0000
 78 H      0.9352     1.0000     0.0648     0.9852     0.9852    -0.0000
 79 H      1.0154     1.0000    -0.0154     0.9981     0.9981    -0.0000
 80 H      0.9422     1.0000     0.0578     1.0071     1.0071     0.0000
 81 H      0.9464     1.0000     0.0536     0.9856     0.9856    -0.0000
 82 H      1.0250     1.0000    -0.0250     0.9934     0.9934    -0.0000
 83 H      0.9589     1.0000     0.0411     1.0085     1.0085    -0.0000
 84 H      0.9470     1.0000     0.0530     0.9854     0.9854    -0.0000
 85 H      0.9403     1.0000     0.0597     0.9715     0.9715    -0.0000
 86 H      0.9449     1.0000     0.0551     0.9839     0.9839    -0.0000
 87 H      0.9434     1.0000     0.0566     0.9856     0.9856    -0.0000
 88 H      1.0161     1.0000    -0.0161     0.9963     0.9963    -0.0000
 89 H      0.9539     1.0000     0.0461     1.0070     1.0070     0.0000

  Mayer bond orders larger than 0.100000
B(  0-C ,  1-N ) :   1.0891 B(  0-C , 17-C ) :   1.7012 B(  0-C , 52-H ) :   0.9675 
B(  1-N ,  8-C ) :   1.0917 B(  1-N , 10-C ) :   0.9763 B(  2-C , 12-C ) :   1.5131 
B(  2-C , 16-C ) :   1.3504 B(  2-C , 53-H ) :   0.9763 B(  3-N , 14-C ) :   1.2170 
B(  3-N , 16-C ) :   1.1922 B(  3-N , 61-H ) :   0.8994 B(  4-C ,  6-C ) :   1.2149 
B(  4-C , 17-C ) :   1.2147 B(  4-C , 18-C ) :   1.4143 B(  5-N , 19-C ) :   1.4492 
B(  5-N , 27-C ) :   1.3826 B(  6-C ,  8-C ) :   1.6993 B(  6-C , 54-H ) :   0.9623 
B(  7-N , 30-C ) :   1.1937 B(  7-N , 38-C ) :   1.1938 B(  7-N , 62-H ) :   0.8969 
B(  8-C , 55-H ) :   0.9684 B(  9-N , 41-C ) :   1.3945 B(  9-N , 49-C ) :   1.4266 
B( 10-C , 56-H ) :   0.9768 B( 10-C , 57-H ) :   0.9832 B( 10-C , 58-H ) :   0.9834 
B( 11-N , 20-C ) :   1.1315 B( 11-N , 24-C ) :   1.1125 B( 11-N , 25-C ) :   0.9586 
B( 12-C , 14-C ) :   1.3519 B( 12-C , 59-H ) :   0.9749 B( 13-N , 31-C ) :   1.1536 
B( 13-N , 35-C ) :   1.1479 B( 13-N , 36-C ) :   0.9458 B( 14-C , 18-C ) :   1.1388 
B( 15-N , 42-C ) :   1.1075 B( 15-N , 46-C ) :   1.1200 B( 15-N , 47-C ) :   0.9625 
B( 16-C , 51-C ) :   1.1758 B( 17-C , 60-H ) :   0.9622 B( 18-C , 19-C ) :   1.1443 
B( 19-C , 21-C ) :   1.2388 B( 20-C , 28-C ) :   1.6250 B( 20-C , 63-H ) :   0.9701 
B( 21-C , 26-C ) :   1.6192 B( 21-C , 64-H ) :   0.9712 B( 22-C , 23-C ) :   1.2905 
B( 22-C , 28-C ) :   1.2685 B( 22-C , 29-C ) :   1.2202 B( 23-C , 24-C ) :   1.6169 
B( 23-C , 65-H ) :   0.9705 B( 24-C , 66-H ) :   0.9694 B( 25-C , 67-H ) :   0.9760 
B( 25-C , 68-H ) :   0.9828 B( 25-C , 69-H ) :   0.9822 B( 26-C , 27-C ) :   1.2332 
B( 26-C , 70-H ) :   0.9709 B( 27-C , 29-C ) :   1.2169 B( 28-C , 71-H ) :   0.9718 
B( 29-C , 30-C ) :   1.2385 B( 30-C , 32-C ) :   1.2855 B( 31-C , 39-C ) :   1.5983 
B( 31-C , 72-H ) :   0.9685 B( 32-C , 37-C ) :   1.5738 B( 32-C , 73-H ) :   0.9784 
B( 33-C , 34-C ) :   1.3010 B( 33-C , 39-C ) :   1.2943 B( 33-C , 40-C ) :   1.1916 
B( 34-C , 35-C ) :   1.5948 B( 34-C , 74-H ) :   0.9698 B( 35-C , 75-H ) :   0.9685 
B( 36-C , 76-H ) :   0.9766 B( 36-C , 77-H ) :   0.9817 B( 36-C , 78-H ) :   0.9825 
B( 37-C , 38-C ) :   1.2893 B( 37-C , 79-H ) :   0.9769 B( 38-C , 40-C ) :   1.2293 
B( 39-C , 80-H ) :   0.9708 B( 40-C , 41-C ) :   1.2429 B( 41-C , 43-C ) :   1.1935 
B( 42-C , 50-C ) :   1.6360 B( 42-C , 81-H ) :   0.9697 B( 43-C , 48-C ) :   1.6583 
B( 43-C , 82-H ) :   0.9724 B( 44-C , 45-C ) :   1.2629 B( 44-C , 50-C ) :   1.2688 
B( 44-C , 51-C ) :   1.2646 B( 45-C , 46-C ) :   1.6368 B( 45-C , 83-H ) :   0.9717 
B( 46-C , 84-H ) :   0.9701 B( 47-C , 85-H ) :   0.9762 B( 47-C , 86-H ) :   0.9829 
B( 47-C , 87-H ) :   0.9825 B( 48-C , 49-C ) :   1.1966 B( 48-C , 88-H ) :   0.9747 
B( 49-C , 51-C ) :   1.2336 B( 50-C , 89-H ) :   0.9710 

-------
TIMINGS
-------

Total SCF time: 0 days 0 hours 28 min 8 sec 

Total time                  ....    1688.489 sec
Sum of individual times     ....    1683.560 sec  ( 99.7%)

Fock matrix formation       ....    1655.848 sec  ( 98.1%)
Diagonalization             ....       8.755 sec  (  0.5%)
Density matrix formation    ....       0.539 sec  (  0.0%)
Population analysis         ....       0.588 sec  (  0.0%)
Initial guess               ....       2.506 sec  (  0.1%)
Orbital Transformation      ....       0.000 sec  (  0.0%)
Orbital Orthonormalization  ....       0.000 sec  (  0.0%)
DIIS solution               ....       3.994 sec  (  0.2%)
SOSCF solution              ....      10.031 sec  (  0.6%)

Maximum memory used throughout the entire SCF-calculation: 302.6 MB


           ************************************************************
           *        Program running with 16 parallel MPI-processes    *
           *              working on a common directory               *
           ************************************************************

------------------------------------------------------------------------------
                                ORCA  MP2 
------------------------------------------------------------------------------

Freezing NCore=104 chemical core electrons

----------
MP2 ENERGY (disk based algorithm)
----------

Dimension of the basis                    ...  918
Memory devoted to MP2                     ... 2000 MB   
Data format for buffers                   ... DOUBLE
Compression type for matrix containers    ... UNCOMPRESSED

-------------------------------
PARTIAL EXCHANGE TRANSFORMATION
-------------------------------

Transformation type                        ... one-operator
Generation of integrals (i,mue|j,nue)      ... ON
Generation of integrals (mue,kappa|nue,tau)... OFF
Generation of integrals (i,mue|a,nue)      ... OFF
Dimension of the basis                     ...  918
Number of internal MOs                     ...  127 (  52- 178)
Pair cutoff                                ... 2.500e-12 Eh
Number of AO pairs in the trafo            ... 421821
Total Number of distinct AO pairs          ... 421821
Memory devoted for trafo                   ... 2000.0 MB 
Max. Number of MO pairs treated together   ...  311      
Number Format for Storage                  ... Double (8 Byte)
Integral package used                      ... LIBINT

Starting integral evaluation:
    ... done with AO integral generation
Closing buffer AOK     (38.27 GB; CompressionRatio= 1.32)
Collecting buffer AOK 
Number of MO pairs included in the trafo   ... 8128
------------------------
SORTING OF (i,mue|j,nue)
------------------------

IBATCH = 1 of  2
IBATCH = 2 of  2
Closing buffer KAO     (51.03 GB; CompressionRatio= 1.00)
Collecting buffer KAO 
N(AO-Batches) Done                         ...  85700573 
N(AO-Batches) Skipped                      ...  82465272 
N(IJ)-pairs Skipped                        ...         0 
TOTAL TIME for half transformation         ...  2268.038 sec
AO-integral generation                     ...   210.966 sec
Half transformation                        ...   424.763 sec
K-integral sorting                         ...  1409.310 sec
Process 10:   Internal MO 132
Process 13:   Internal MO 156

Finished integral transformation - now doing MP2 part

OPERATOR COMBINATION   0   0: ij=( 52..178, 52..178)
Process  7:   Internal MO 108
Process  1:   Internal MO  60
Process  4:   Internal MO  84
Process  2:   Internal MO  69
Process  0:   Internal MO  54
Process  1:   Internal MO  63
Process  0:   Internal MO  57
Process  5:   Internal MO  93
Process  3:   Internal MO  78
Process  1:   Internal MO  66
Process  2:   Internal MO  72
Process  8:   Internal MO 117
Process 11:   Internal MO 141
Process 14:   Internal MO 165
Process  6:   Internal MO 102
Process  2:   Internal MO  75
Process  9:   Internal MO 126
Process  3:   Internal MO  81
Process  4:   Internal MO  87
Process  5:   Internal MO  96
Process  7:   Internal MO 111
Process 12:   Internal MO 150
Process 10:   Internal MO 135
Process 15:   Internal MO 174
Process  4:   Internal MO  90
Process  6:   Internal MO 105
Process  8:   Internal MO 120
Process  5:   Internal MO  99
Process  7:   Internal MO 114
Process 13:   Internal MO 159
Process  9:   Internal MO 129
Process 11:   Internal MO 144
Process 14:   Internal MO 168
Process  8:   Internal MO 123
Process 12:   Internal MO 153
Process 10:   Internal MO 138
Process 15:   Internal MO 177
Process 13:   Internal MO 162
Process 11:   Internal MO 147
Process 14:   Internal MO 171
-----------------------------------------------
 MP2 CORRELATION ENERGY   :     -7.282279861 Eh
-----------------------------------------------


-------
TIMINGS
-------
Total time                : 2549.238 sec
Integral trafo            : 2270.203 sec ( 89.1%)
K(i,j)                    :   14.609 sec (  0.6%)
T(i,j)                    :    0.160 sec (  0.0%)

---------------------------------------
MP2 TOTAL ENERGY:    -2130.904979487 Eh
---------------------------------------

Maximum memory used throughout the entire MP2-calculation: 2275.3 MB

-------------------------   --------------------
FINAL SINGLE POINT ENERGY     -2130.904979486607
-------------------------   --------------------


                            ***************************************
                            *     ORCA property calculations      *
                            ***************************************


  WARNING: The energy has been calculated at the MP2 level but the densities
           used in the property calculations are still SCF densities
           MP2 response densities have not been calculated 
           use %mp2 Density relaxed end
           or  %mp2 Density unrelaxed end

                                    ---------------------
                                    Active property flags
                                    ---------------------
   (+) Dipole Moment


------------------------------------------------------------------------------
                       ORCA ELECTRIC PROPERTIES CALCULATION
------------------------------------------------------------------------------

Dipole Moment Calculation                       ... on
Quadrupole Moment Calculation                   ... off
Polarizability Calculation                      ... off
GBWName                                         ... /scratch/allen/tmpyp4_amber_gaff2/conf1/conf1/Conf145.orca.gbw
Electron density                                ... /scratch/allen/tmpyp4_amber_gaff2/conf1/conf1/Conf145.orca.scfp
The origin for moment calculation is the CENTER OF MASS  = ( 0.003281, -0.001855  0.002145)

-------------
DIPOLE MOMENT
-------------
                                X             Y             Z
Electronic contribution:      1.86008      -3.70427      -0.22422
Nuclear contribution   :      0.02920       0.20472       0.22593
                        -----------------------------------------
Total Dipole Moment    :      1.88927      -3.49955       0.00171
                        -----------------------------------------
Magnitude (a.u.)       :      3.97696
Magnitude (Debye)      :     10.10863



--------------------
Rotational spectrum 
--------------------
 
Rotational constants in cm-1:     0.001500     0.001477     0.000761 
Rotational constants in MHz :    44.960273    44.291110    22.812095 

 Dipole components along the rotational axes: 
x,y,z [a.u.] :     2.729403    -2.892499     0.006168 
x,y,z [Debye]:     6.937590    -7.352149     0.015677 

 

Timings for individual modules:

Sum of individual times         ...     4270.900 sec (=  71.182 min)
GTO integral calculation        ...       12.654 sec (=   0.211 min)   0.3 %
SCF iterations                  ...     1691.017 sec (=  28.184 min)  39.6 %
MP2 module                      ...     2567.230 sec (=  42.787 min)  60.1 %
                             ****ORCA TERMINATED NORMALLY****
TOTAL RUN TIME: 0 days 1 hours 11 minutes 14 seconds 462 msec
# of primitive gaussian functions

