
                                 *****************
                                 * O   R   C   A *
                                 *****************

                                            #,                                       
                                            ###                                      
                                            ####                                     
                                            #####                                    
                                            ######                                   
                                           ########,                                 
                                     ,,################,,,,,                         
                               ,,#################################,,                 
                          ,,##########################################,,             
                       ,#########################################, ''#####,          
                    ,#############################################,,   '####,        
                  ,##################################################,,,,####,       
                ,###########''''           ''''###############################       
              ,#####''   ,,,,##########,,,,          '''####'''          '####       
            ,##' ,,,,###########################,,,                        '##       
           ' ,,###''''                  '''############,,,                           
         ,,##''                                '''############,,,,        ,,,,,,###''
      ,#''                                            '''#######################'''  
     '                                                          ''''####''''         
             ,#######,   #######,   ,#######,      ##                                
            ,#'     '#,  ##    ##  ,#'     '#,    #''#        ######   ,####,        
            ##       ##  ##   ,#'  ##            #'  '#       #        #'  '#        
            ##       ##  #######   ##           ,######,      #####,   #    #        
            '#,     ,#'  ##    ##  '#,     ,#' ,#      #,         ##   #,  ,#        
             '#######'   ##     ##  '#######'  #'      '#     #####' # '####'        



                  #######################################################
                  #                        -***-                        #
                  #          Department of theory and spectroscopy      #
                  #    Directorship and core code : Frank Neese         #
                  #        Max Planck Institute fuer Kohlenforschung    #
                  #                Kaiser Wilhelm Platz 1               #
                  #                 D-45470 Muelheim/Ruhr               #
                  #                      Germany                        #
                  #                                                     #
                  #                  All rights reserved                #
                  #                        -***-                        #
                  #######################################################


                         Program Version 5.0.4 -  RELEASE  -


 With contributions from (in alphabetic order):
   Daniel Aravena         : Magnetic Suceptibility
   Michael Atanasov       : Ab Initio Ligand Field Theory (pilot matlab implementation)
   Alexander A. Auer      : GIAO ZORA, VPT2 properties, NMR spectrum
   Ute Becker             : Parallelization
   Giovanni Bistoni       : ED, misc. LED, open-shell LED, HFLD
   Martin Brehm           : Molecular dynamics
   Dmytro Bykov           : SCF Hessian
   Vijay G. Chilkuri      : MRCI spin determinant printing, contributions to CSF-ICE
   Dipayan Datta          : RHF DLPNO-CCSD density
   Achintya Kumar Dutta   : EOM-CC, STEOM-CC
   Dmitry Ganyushin       : Spin-Orbit,Spin-Spin,Magnetic field MRCI
   Miquel Garcia          : C-PCM and meta-GGA Hessian, CC/C-PCM, Gaussian charge scheme
   Yang Guo               : DLPNO-NEVPT2, F12-NEVPT2, CIM, IAO-localization
   Andreas Hansen         : Spin unrestricted coupled pair/coupled cluster methods
   Benjamin Helmich-Paris : MC-RPA, TRAH-SCF, COSX integrals
   Lee Huntington         : MR-EOM, pCC
   Robert Izsak           : Overlap fitted RIJCOSX, COSX-SCS-MP3, EOM
   Marcus Kettner         : VPT2
   Christian Kollmar      : KDIIS, OOCD, Brueckner-CCSD(T), CCSD density, CASPT2, CASPT2-K
   Simone Kossmann        : Meta GGA functionals, TD-DFT gradient, OOMP2, MP2 Hessian
   Martin Krupicka        : Initial AUTO-CI
   Lucas Lang             : DCDCAS
   Marvin Lechner         : AUTO-CI (C++ implementation), FIC-MRCC
   Dagmar Lenk            : GEPOL surface, SMD
   Dimitrios Liakos       : Extrapolation schemes; Compound Job, initial MDCI parallelization
   Dimitrios Manganas     : Further ROCIS development; embedding schemes
   Dimitrios Pantazis     : SARC Basis sets
   Anastasios Papadopoulos: AUTO-CI, single reference methods and gradients
   Taras Petrenko         : DFT Hessian,TD-DFT gradient, ASA, ECA, R-Raman, ABS, FL, XAS/XES, NRVS
   Peter Pinski           : DLPNO-MP2, DLPNO-MP2 Gradient
   Christoph Reimann      : Effective Core Potentials
   Marius Retegan         : Local ZFS, SOC
   Christoph Riplinger    : Optimizer, TS searches, QM/MM, DLPNO-CCSD(T), (RO)-DLPNO pert. Triples
   Tobias Risthaus        : Range-separated hybrids, TD-DFT gradient, RPA, STAB
   Michael Roemelt        : Original ROCIS implementation
   Masaaki Saitow         : Open-shell DLPNO-CCSD energy and density
   Barbara Sandhoefer     : DKH picture change effects
   Avijit Sen             : IP-ROCIS
   Kantharuban Sivalingam : CASSCF convergence, NEVPT2, FIC-MRCI
   Bernardo de Souza      : ESD, SOC TD-DFT
   Georgi Stoychev        : AutoAux, RI-MP2 NMR, DLPNO-MP2 response
   Willem Van den Heuvel  : Paramagnetic NMR
   Boris Wezisla          : Elementary symmetry handling
   Frank Wennmohs         : Technical directorship


 We gratefully acknowledge several colleagues who have allowed us to
 interface, adapt or use parts of their codes:
   Stefan Grimme, W. Hujo, H. Kruse, P. Pracht,  : VdW corrections, initial TS optimization,
                  C. Bannwarth, S. Ehlert          DFT functionals, gCP, sTDA/sTD-DF
   Ed Valeev, F. Pavosevic, A. Kumar             : LibInt (2-el integral package), F12 methods
   Garnet Chan, S. Sharma, J. Yang, R. Olivares  : DMRG
   Ulf Ekstrom                                   : XCFun DFT Library
   Mihaly Kallay                                 : mrcc  (arbitrary order and MRCC methods)
   Jiri Pittner, Ondrej Demel                    : Mk-CCSD
   Frank Weinhold                                : gennbo (NPA and NBO analysis)
   Christopher J. Cramer and Donald G. Truhlar   : smd solvation model
   Lars Goerigk                                  : TD-DFT with DH, B97 family of functionals
   V. Asgeirsson, H. Jonsson                     : NEB implementation
   FAccTs GmbH                                   : IRC, NEB, NEB-TS, DLPNO-Multilevel, CI-OPT
                                                   MM, QMMM, 2- and 3-layer-ONIOM, Crystal-QMMM,
                                                   LR-CPCM, SF, NACMEs, symmetry and pop. for TD-DFT,
                                                   nearIR, NL-DFT gradient (VV10), updates on ESD,
                                                   ML-optimized integration grids
   S Lehtola, MJT Oliveira, MAL Marques          : LibXC Library
   Liviu Ungur et al                             : ANISO software


 Your calculation uses the libint2 library for the computation of 2-el integrals
 For citations please refer to: http://libint.valeyev.net

 Your ORCA version has been built with support for libXC version: 5.1.0
 For citations please refer to: https://tddft.org/programs/libxc/

 This ORCA versions uses:
   CBLAS   interface :  Fast vector & matrix operations
   LAPACKE interface :  Fast linear algebra routines
   SCALAPACK package :  Parallel linear algebra routines
   Shared memory     :  Shared parallel matrices
   BLAS/LAPACK       :  OpenBLAS 0.3.15  USE64BITINT DYNAMIC_ARCH NO_AFFINITY Sandybridge SINGLE_THREADED
        Core in use  :  Sandybridge
   Copyright (c) 2011-2014, The OpenBLAS Project


================================================================================

----- Orbital basis set information -----
Your calculation utilizes the basis: cc-pVDZ 
       H, B-Ne : Obtained from the ccRepo (grant-hill.group.shef.ac.uk/ccrepo) Feb. 2017
                 T. H. Dunning, Jr., J. Chem. Phys. 90, 1007 (1989)
            He : Obtained from the ccRepo (grant-hill.group.shef.ac.uk/ccrepo) Feb. 2017
                 D. E. Woon, T. H. Dunning, Jr., J. Chem. Phys. 100, 2975 (1994)
  Li-Be, Na-Mg : Obtained from the ccRepo (grant-hill.group.shef.ac.uk/ccrepo) Feb. 2017
                 B. P. Prascher, D. E. Woon, K. A. Peterson, T. H. Dunning, Jr., A. K. Wilson, Theor. Chem. Acc. 128, 69 (2011)
         Al-Ar : Obtained from the ccRepo (grant-hill.group.shef.ac.uk/ccrepo) Feb. 2017
                 D. E. Woon, T. H. Dunning, Jr., J. Chem. Phys. 98, 1358 (1993)
            Ca : Obtained from the Peterson Research Group Website (tyr0.chem.wsu.edu/~kipeters) Feb. 2017
                 J. Koput, K. A. Peterson, J. Phys. Chem. 106, 9595 (2002)
         Sc-Zn : Obtained from the ccRepo (grant-hill.group.shef.ac.uk/ccrepo) Feb. 2017
                 N. B. Balabanov, K. A. Peterson, J. Chem. Phys. 123, 064107 (2005)
                 N. B. Balabanov, K. A. Peterson, J. Chem. Phys. 125, 074110 (2006)
         Ga-Kr : Obtained from the ccRepo (grant-hill.group.shef.ac.uk/ccrepo) Feb. 2017
                 A. K. Wilson, D. E. Woon, K. A. Peterson, T. H. Dunning, Jr., J. Chem. Phys. 110, 7667 (1999)

================================================================================
                                        WARNINGS
                       Please study these warnings very carefully!
================================================================================


WARNING: No MP2 level density has been requested!
         To caclulate MP2 level properties use
         %mp2 Density relaxed end
         or
         %mp2 Density unrelaxed end

WARNING: Post HF methods need fully converged wavefunctions
  ===> : Setting SCFConvForced true
         You can overwrite this default with %scf ConvForced false 


INFO   : the flag for use of the SHARK integral package has been found!

================================================================================
                                       INPUT FILE
================================================================================
NAME = /scratch/allen/tmpyp4_amber_gaff2/2.Mdgx/conf11/conf11/Conf11.orca
|  1> ! PAL2
|  2> ! mp2 cc-pvdz TightSCF  NoKeepInts
|  3> 
|  4> %scf
|  5>   MaxCore 2000
|  6> end
|  7> %mp2
|  8>   MaxCore 2000
|  9> end
| 10> * xyz 0 1
| 11>    C       -3.04600         6.49000        -0.08600
| 12>    C        1.47400         4.04100         0.05700
| 13>    C       -2.80200         4.09300         0.04900
| 14>    C       -4.18800         4.01500         0.25400
| 15>    C       -4.95100         5.16500         0.27900
| 16>    C       -5.22900         7.59100         0.10900
| 17>    C        0.13200         4.30700         0.06100
| 18>    C       -0.56900         3.05600         0.04700
| 19>    C        1.64900         2.61800         0.02300
| 20>    C       -2.24100         5.36800        -0.12500
| 21>    N       -4.37900         6.38000         0.11400
| 22>    N        0.38800         2.06700         0.02500
| 23>    N       -2.01000         0.39500        -0.07500
| 24>    N       -0.38800        -2.07400        -0.02700
| 25>    N        2.01000        -0.40100         0.06500
| 26>    C       -1.96000         2.86100         0.02400
| 27>    C       -2.62300         1.61500        -0.01800
| 28>    C       -5.57300        -4.32900         1.06600
| 29>    C       -4.07300         1.47100         0.05600
| 30>    C       -4.10600        -2.75600        -0.02600
| 31>    C       -4.99500        -2.75700        -1.11100
| 32>    C       -6.13200        -3.54200        -1.07600
| 33>    C       -7.65100        -5.11300         0.04000
| 34>    C       -4.32400         0.14100         0.03700
| 35>    C       -3.02500        -0.52000        -0.04800
| 36>    C       -4.42200        -3.56600         1.07500
| 37>    N       -6.40700        -4.31300         0.00100
| 38>    C       -2.86700        -1.92200        -0.04000
| 39>    C       -1.65000        -2.62400        -0.02700
| 40>    C        3.56800        -6.14200        -1.04000
| 41>    C       -1.47600        -4.04900        -0.03400
| 42>    C        2.80300        -4.09900        -0.00800
| 43>    C        3.65700        -4.38400         1.06900
| 44>    C        4.42700        -5.53000         1.05900
| 45>    C        5.24500        -7.58800         0.01400
| 46>    C       -0.13400        -4.31500        -0.02200
| 47>    C        0.56800        -3.06400        -0.02700
| 48>    C        2.77500        -5.01200        -1.07400
| 49>    N        4.37600        -6.39100         0.01700
| 50>    C        1.95900        -2.86900        -0.00900
| 51>    C        2.62100        -1.62200         0.00900
| 52>    C        5.54300         4.33900        -1.13000
| 53>    C        4.07000        -1.47900        -0.09400
| 54>    C        4.10400         2.75100        -0.02100
| 55>    C        5.02700         2.72900         1.03600
| 56>    C        6.16600         3.50900         0.97800
| 57>    C        7.61900         5.15300        -0.11500
| 58>    C        4.32100        -0.14800        -0.09200
| 59>    C        3.02500         0.51400         0.01500
| 60>    C        4.38700         3.58200        -1.11500
| 61>    C        2.86600         1.91600         0.01300
| 62>    N        6.41300         4.29600        -0.09500
| 63>    H       -2.65500         7.49400        -0.20300
| 64>    H        2.27400         4.76600         0.08100
| 65>    H       -4.68100         3.05900         0.38500
| 66>    H       -6.02400         5.15400         0.42500
| 67>    H       -5.61400         7.75100        -0.90100
| 68>    H       -6.05400         7.44300         0.80500
| 69>    H       -4.62700         8.44400         0.41900
| 70>    H       -0.33200         5.28200         0.06900
| 71>    H       -1.17500         5.49500        -0.27300
| 72>    H        0.18200         1.07200         0.00500
| 73>    H       -0.18300        -1.08000        -0.02100
| 74>    H       -5.86400        -4.96200         1.89500
| 75>    H       -4.79400         2.27200         0.13900
| 76>    H       -4.80000        -2.16000        -1.99400
| 77>    H       -6.84100        -3.58200        -1.89300
| 78>    H       -8.42800        -4.53600         0.54600
| 79>    H       -7.95600        -5.33700        -0.98100
| 80>    H       -7.45600        -6.03700         0.58400
| 81>    H       -5.28700        -0.34400         0.10000
| 82>    H       -3.78000        -3.60100         1.94700
| 83>    H        3.58700        -6.86800        -1.84300
| 84>    H       -2.27600        -4.77400        -0.05000
| 85>    H        3.71400        -3.72400         1.92600
| 86>    H        5.09200        -5.79500         1.87100
| 87>    H        6.20500        -7.32900        -0.43900
| 88>    H        5.39300        -7.91700         1.04200
| 89>    H        4.75900        -8.37300        -0.56400
| 90>    H        0.32900        -5.29000        -0.00800
| 91>    H        2.14600        -4.84200        -1.94000
| 92>    H        5.80800         4.98600        -1.95600
| 93>    H        4.78800        -2.28100        -0.18500
| 94>    H        4.86000         2.11400         1.91200
| 95>    H        6.90100         3.53100         1.77200
| 96>    H        7.38300         6.10900         0.35600
| 97>    H        8.41400         4.65200         0.43500
| 98>    H        7.92100         5.31000        -1.15000
| 99>    H        5.28300         0.33600        -0.17900
|100>    H        3.72000         3.63200        -1.96700
|101> *
|102> 
|103>                          ****END OF INPUT****
================================================================================

                       ****************************
                       * Single Point Calculation *
                       ****************************

---------------------------------
CARTESIAN COORDINATES (ANGSTROEM)
---------------------------------
  C     -3.046000    6.490000   -0.086000
  C      1.474000    4.041000    0.057000
  C     -2.802000    4.093000    0.049000
  C     -4.188000    4.015000    0.254000
  C     -4.951000    5.165000    0.279000
  C     -5.229000    7.591000    0.109000
  C      0.132000    4.307000    0.061000
  C     -0.569000    3.056000    0.047000
  C      1.649000    2.618000    0.023000
  C     -2.241000    5.368000   -0.125000
  N     -4.379000    6.380000    0.114000
  N      0.388000    2.067000    0.025000
  N     -2.010000    0.395000   -0.075000
  N     -0.388000   -2.074000   -0.027000
  N      2.010000   -0.401000    0.065000
  C     -1.960000    2.861000    0.024000
  C     -2.623000    1.615000   -0.018000
  C     -5.573000   -4.329000    1.066000
  C     -4.073000    1.471000    0.056000
  C     -4.106000   -2.756000   -0.026000
  C     -4.995000   -2.757000   -1.111000
  C     -6.132000   -3.542000   -1.076000
  C     -7.651000   -5.113000    0.040000
  C     -4.324000    0.141000    0.037000
  C     -3.025000   -0.520000   -0.048000
  C     -4.422000   -3.566000    1.075000
  N     -6.407000   -4.313000    0.001000
  C     -2.867000   -1.922000   -0.040000
  C     -1.650000   -2.624000   -0.027000
  C      3.568000   -6.142000   -1.040000
  C     -1.476000   -4.049000   -0.034000
  C      2.803000   -4.099000   -0.008000
  C      3.657000   -4.384000    1.069000
  C      4.427000   -5.530000    1.059000
  C      5.245000   -7.588000    0.014000
  C     -0.134000   -4.315000   -0.022000
  C      0.568000   -3.064000   -0.027000
  C      2.775000   -5.012000   -1.074000
  N      4.376000   -6.391000    0.017000
  C      1.959000   -2.869000   -0.009000
  C      2.621000   -1.622000    0.009000
  C      5.543000    4.339000   -1.130000
  C      4.070000   -1.479000   -0.094000
  C      4.104000    2.751000   -0.021000
  C      5.027000    2.729000    1.036000
  C      6.166000    3.509000    0.978000
  C      7.619000    5.153000   -0.115000
  C      4.321000   -0.148000   -0.092000
  C      3.025000    0.514000    0.015000
  C      4.387000    3.582000   -1.115000
  C      2.866000    1.916000    0.013000
  N      6.413000    4.296000   -0.095000
  H     -2.655000    7.494000   -0.203000
  H      2.274000    4.766000    0.081000
  H     -4.681000    3.059000    0.385000
  H     -6.024000    5.154000    0.425000
  H     -5.614000    7.751000   -0.901000
  H     -6.054000    7.443000    0.805000
  H     -4.627000    8.444000    0.419000
  H     -0.332000    5.282000    0.069000
  H     -1.175000    5.495000   -0.273000
  H      0.182000    1.072000    0.005000
  H     -0.183000   -1.080000   -0.021000
  H     -5.864000   -4.962000    1.895000
  H     -4.794000    2.272000    0.139000
  H     -4.800000   -2.160000   -1.994000
  H     -6.841000   -3.582000   -1.893000
  H     -8.428000   -4.536000    0.546000
  H     -7.956000   -5.337000   -0.981000
  H     -7.456000   -6.037000    0.584000
  H     -5.287000   -0.344000    0.100000
  H     -3.780000   -3.601000    1.947000
  H      3.587000   -6.868000   -1.843000
  H     -2.276000   -4.774000   -0.050000
  H      3.714000   -3.724000    1.926000
  H      5.092000   -5.795000    1.871000
  H      6.205000   -7.329000   -0.439000
  H      5.393000   -7.917000    1.042000
  H      4.759000   -8.373000   -0.564000
  H      0.329000   -5.290000   -0.008000
  H      2.146000   -4.842000   -1.940000
  H      5.808000    4.986000   -1.956000
  H      4.788000   -2.281000   -0.185000
  H      4.860000    2.114000    1.912000
  H      6.901000    3.531000    1.772000
  H      7.383000    6.109000    0.356000
  H      8.414000    4.652000    0.435000
  H      7.921000    5.310000   -1.150000
  H      5.283000    0.336000   -0.179000
  H      3.720000    3.632000   -1.967000

----------------------------
CARTESIAN COORDINATES (A.U.)
----------------------------
  NO LB      ZA    FRAG     MASS         X           Y           Z
   0 C     6.0000    0    12.011   -5.756106   12.264323   -0.162516
   1 C     6.0000    0    12.011    2.785456    7.636383    0.107714
   2 C     6.0000    0    12.011   -5.295013    7.734649    0.092597
   3 C     6.0000    0    12.011   -7.914173    7.587250    0.479990
   4 C     6.0000    0    12.011   -9.356034    9.760435    0.527234
   5 C     6.0000    0    12.011   -9.881378   14.344911    0.205980
   6 C     6.0000    0    12.011    0.249444    8.139050    0.115273
   7 C     6.0000    0    12.011   -1.075254    5.775003    0.088817
   8 C     6.0000    0    12.011    3.116158    4.947303    0.043464
   9 C     6.0000    0    12.011   -4.234876   10.144050   -0.236216
  10 N     7.0000    0    14.007   -8.275111   12.056453    0.215429
  11 N     7.0000    0    14.007    0.733214    3.906064    0.047243
  12 N     7.0000    0    14.007   -3.798350    0.746442   -0.141729
  13 N     7.0000    0    14.007   -0.733214   -3.919292   -0.051023
  14 N     7.0000    0    14.007    3.798350   -0.757780    0.122832
  15 C     6.0000    0    12.011   -3.703863    5.406506    0.045353
  16 C     6.0000    0    12.011   -4.956752    3.051908   -0.034015
  17 C     6.0000    0    12.011  -10.531444   -8.180624    2.014448
  18 C     6.0000    0    12.011   -7.696855    2.779787    0.105825
  19 C     6.0000    0    12.011   -7.759216   -5.208085   -0.049133
  20 C     6.0000    0    12.011   -9.439182   -5.209975   -2.099486
  21 C     6.0000    0    12.011  -11.587801   -6.693410   -2.033345
  22 C     6.0000    0    12.011  -14.458295   -9.662170    0.075589
  23 C     6.0000    0    12.011   -8.171176    0.266451    0.069920
  24 C     6.0000    0    12.011   -5.716422   -0.982658   -0.090707
  25 C     6.0000    0    12.011   -8.356369   -6.738763    2.031456
  26 N     7.0000    0    14.007  -12.107475   -8.150389    0.001890
  27 C     6.0000    0    12.011   -5.417845   -3.632054   -0.075589
  28 C     6.0000    0    12.011   -3.118048   -4.958641   -0.051023
  29 C     6.0000    0    12.011    6.742543  -11.606698   -1.965315
  30 C     6.0000    0    12.011   -2.789236   -7.651501   -0.064251
  31 C     6.0000    0    12.011    5.296902   -7.745987   -0.015118
  32 C     6.0000    0    12.011    6.910728   -8.284559    2.020117
  33 C     6.0000    0    12.011    8.365818  -10.450186    2.001220
  34 C     6.0000    0    12.011    9.911614  -14.339242    0.026456
  35 C     6.0000    0    12.011   -0.253223   -8.154168   -0.041574
  36 C     6.0000    0    12.011    1.073364   -5.790121   -0.051023
  37 C     6.0000    0    12.011    5.243990   -9.471307   -2.029566
  38 N     7.0000    0    14.007    8.269442  -12.077240    0.032125
  39 C     6.0000    0    12.011    3.701973   -5.421624   -0.017008
  40 C     6.0000    0    12.011    4.952972   -3.065136    0.017008
  41 C     6.0000    0    12.011   10.474752    8.199522   -2.135391
  42 C     6.0000    0    12.011    7.691185   -2.794905   -0.177634
  43 C     6.0000    0    12.011    7.755436    5.198637   -0.039684
  44 C     6.0000    0    12.011    9.499653    5.157063    1.957756
  45 C     6.0000    0    12.011   11.652051    6.631049    1.848152
  46 C     6.0000    0    12.011   14.397823    9.737759   -0.217319
  47 C     6.0000    0    12.011    8.165507   -0.279679   -0.173855
  48 C     6.0000    0    12.011    5.716422    0.971319    0.028346
  49 C     6.0000    0    12.011    8.290229    6.768999   -2.107045
  50 C     6.0000    0    12.011    5.415955    3.620715    0.024566
  51 N     7.0000    0    14.007   12.118814    8.118263   -0.179524
  52 H     1.0000    0     1.008   -5.017223   14.161608   -0.383614
  53 H     1.0000    0     1.008    4.297237    9.006435    0.153068
  54 H     1.0000    0     1.008   -8.845808    5.780672    0.727545
  55 H     1.0000    0     1.008  -11.383710    9.739648    0.803134
  56 H     1.0000    0     1.008  -10.608923   14.647267   -1.702643
  57 H     1.0000    0     1.008  -11.440402   14.065232    1.521230
  58 H     1.0000    0     1.008   -8.743763   15.956847    0.791795
  59 H     1.0000    0     1.008   -0.627389    9.981533    0.130391
  60 H     1.0000    0     1.008   -2.220428   10.384045   -0.515895
  61 H     1.0000    0     1.008    0.343930    2.025786    0.009449
  62 H     1.0000    0     1.008   -0.345820   -2.040904   -0.039684
  63 H     1.0000    0     1.008  -11.081354   -9.376821    3.581031
  64 H     1.0000    0     1.008   -9.059347    4.293458    0.262672
  65 H     1.0000    0     1.008   -9.070685   -4.081808   -3.768114
  66 H     1.0000    0     1.008  -12.927616   -6.768999   -3.577252
  67 H     1.0000    0     1.008  -15.926612   -8.571798    1.031790
  68 H     1.0000    0     1.008  -15.034661  -10.085468   -1.853821
  69 H     1.0000    0     1.008  -14.089798  -11.408277    1.103600
  70 H     1.0000    0     1.008   -9.990982   -0.650066    0.188973
  71 H     1.0000    0     1.008   -7.143165   -6.804904    3.679297
  72 H     1.0000    0     1.008    6.778448  -12.978639   -3.482765
  73 H     1.0000    0     1.008   -4.301017   -9.021553   -0.094486
  74 H     1.0000    0     1.008    7.018443   -7.037340    3.639613
  75 H     1.0000    0     1.008    9.622485  -10.950963    3.535678
  76 H     1.0000    0     1.008   11.725751  -13.849803   -0.829590
  77 H     1.0000    0     1.008   10.191293  -14.960962    1.969095
  78 H     1.0000    0     1.008    8.993207  -15.822677   -1.065806
  79 H     1.0000    0     1.008    0.621720   -9.996651   -0.015118
  80 H     1.0000    0     1.008    4.055352   -9.150054   -3.666069
  81 H     1.0000    0     1.008   10.975529    9.422175   -3.696304
  82 H     1.0000    0     1.008    9.048009   -4.310465   -0.349599
  83 H     1.0000    0     1.008    9.184069    3.994881    3.613156
  84 H     1.0000    0     1.008   13.041000    6.672623    3.348595
  85 H     1.0000    0     1.008   13.951848   11.544337    0.672743
  86 H     1.0000    0     1.008   15.900156    8.791006    0.822031
  87 H     1.0000    0     1.008   14.968521   10.034446   -2.173185
  88 H     1.0000    0     1.008    9.983423    0.634948   -0.338261
  89 H     1.0000    0     1.008    7.029781    6.863485   -3.717091

--------------------------------
INTERNAL COORDINATES (ANGSTROEM)
--------------------------------
 C      0   0   0     0.000000000000     0.00000000     0.00000000
 C      1   0   0     5.142805654504     0.00000000     0.00000000
 C      1   2   0     2.413165970256    55.70653979     0.00000000
 C      3   1   2     1.403248017993    87.90918534   171.72019969
 C      4   3   1     1.380323875038   120.15295685     0.15123388
 C      5   4   3     2.447786755418   152.52889269     1.56830544
 C      2   1   3     1.368114030335    17.32577881   357.11447794
 C      7   2   1     1.434084376876   108.05010202   173.46000719
 C      2   1   3     1.434123425651   125.38688896     5.59544058
 C      1   2   3     1.381459373272    26.08725926   350.25262166
 N      1   2   3     1.352401197870   145.43111857    14.72874559
 N      9   2   1     1.376127174356   106.58526707   356.58728109
 N     12   9   2     2.925062050624   168.53581413   171.12065651
 N     13  12   9     2.954513327098    91.55032014    11.12112580
 N     14  13  12     2.925371258490    88.43092389   359.84326247
 C      8   7   2     1.404790019896   127.24786865   181.11170171
 C     13  12   9     1.366535034311    81.72106996   188.00453233
 C     14  13  12     5.758810554272    80.56209567   166.76250791
 C     17  13  12     1.459010623676   111.08861209   183.82872609
 C     18  14  13     2.412235892279    27.27532823    36.33507194
 C     20  18  14     1.402692767501    87.95206320   148.94598259
 C     21  20  18     1.382106725257   120.14573887   359.70382047
 C     18  14  13     2.446510985056   144.15733107    82.80075377
 C     19  17  13     1.353610726908   106.29293361   359.75308708
 C     13  12   9     1.366813447402   172.21332906    33.46711076
 C     18  14  13     1.380960173213    15.08449437   309.23336894
 N     22  21  20     1.352773077792   120.73759875     0.27865223
 C     25  13  17     1.410897586645   125.60330303   182.37774668
 C     14  13  12     1.376642291955    80.24689249   177.85461986
 C     14  13  12     5.764089607215   164.51507311   312.20821879
 C     29  14  13     1.435600919476   106.58649366   178.76395472
 C     30  14  13     2.413316804732    27.10625047    82.12560436
 C     32  30  14     1.403734305344    87.90059683   149.76154742
 C     33  32  30     1.380694028378   120.14881443   359.74174632
 C     34  33  32     2.448777858443   152.49203239     2.45173620
 C     31  29  14     1.368160809262   108.16950133     0.70383075
 C     14  13  12     1.376239804685   169.26375223   353.09862627
 C     30  14  13     1.380907310430    14.68948582   353.70041132
 N     34  33  32     1.352658863128   120.85575621     0.19603406
 C     37  14  29     1.404717053360   126.01551127   180.90772073
 C     15  14  13     1.366491126938    81.61824056   183.09049352
 C      2   1   3     4.249062720177   143.17668512   152.56822236
 C     41  15  14     1.459677704153   111.05201287   175.08990246
 C     42   2   1     2.412953791518    41.78584867   182.77866443
 C     44  42   2     1.403446472082    87.95153797   233.97558675
 C     45  44  42     1.381696421071   120.11137308     0.19721020
 C     42   2   1     2.450019795838   135.97209175    93.09351353
 C     43  41  15     1.354461516618   106.26758155     0.30894352
 C     15  14  13     1.367461151185   171.87382904   332.35056460
 C     42   2   1     1.381886391857    32.59078432   231.63394362
 C      9   2   1     1.404988612053   126.98745415   177.59161862
 N     42   2   1     1.352765315936   113.57249190   120.83010272
 H      1   2   3     1.083783188650    97.29988321   183.24995153
 H      2   1   3     1.079907866440   109.39086767   183.58492541
 H      4   3   1     1.083580177006   121.06989021   179.52476320
 H      5   4   3     1.082943211808   122.79757713   179.43654926
 H      6   5   4     1.092668751269   104.43846521   100.15931868
 H      6   5   4     1.089470054660    84.66364125   209.56692509
 H      6   5   4     1.089088150702   133.92425158   322.42869231
 H      7   2   1     1.079807853278   126.66122480   353.69842098
 H     60   7   2     0.934335057675   126.21601657   152.77620509
 H     12   9   2     1.016297692608   125.29023241   180.00180175
 H     14  13  12     1.014936943854    44.97226959   359.42596618
 H     18  14  13     1.082871645210   128.03556573   234.20482432
 H     55   4   3     0.832258373343   149.35282526   313.49294049
 H     21  20  18     1.083569563987   121.05669627   180.67006309
 H     22  21  20     1.082483256222   122.73097286   180.59748951
 H     23  18  14     1.092105306278   103.92715769   234.93429879
 H     23  18  14     1.088871893291   134.19244188    12.25587044
 H     23  18  14     1.089833473518    84.85857450   125.45241208
 H     24  19  17     1.080075460327   127.28078426   178.44613241
 H     26  18  14     1.083408048706   118.76995697   244.94906660
 H     30  14  13     1.082703098730   127.99711412   279.66882698
 H     31  29  14     1.079759695488   125.22293469   180.92530585
 H     33  32  30     1.083188810873   121.01964473   180.74284758
 H     34  33  32     1.082494341787   122.70821597   180.59516895
 H     35  34  33     1.092652735319   105.73575241    97.19771933
 H     35  34  33     1.089462711615    84.05943581   206.43036958
 H     35  34  33     1.089268102902   133.08365142   318.50306270
 H     36  31  29     1.079439669458   126.61599965   178.98859863
 H     38  30  73     1.083742127999   118.77264435   359.90091293
 H     42   2   1     1.082178358682   119.31790784   337.46163317
 H     43  41  15     1.080281907652   126.36969097   182.06329380
 H     45  44  42     1.083277434455   121.10105945   179.58025624
 H     46  45  44     1.082194529648   122.72144639   179.46906377
 H     47  42   2     1.091546151109   106.65128841   315.16475048
 H     47  42   2     1.088818625851   132.46019523    94.52397119
 H     47  42   2     1.089531091801    83.63838232   206.04504406
 H     48  43  41     1.080402239909   127.23657387   181.62955349
 H     50  42   2     1.083186502870   118.77001737    94.71359229

---------------------------
INTERNAL COORDINATES (A.U.)
---------------------------
 C      0   0   0     0.000000000000     0.00000000     0.00000000
 C      1   0   0     9.718494246995     0.00000000     0.00000000
 C      1   2   0     4.560222799482    55.70653979     0.00000000
 C      3   1   2     2.651754451974    87.90918534   171.72019969
 C      4   3   1     2.608434099935   120.15295685     0.15123388
 C      5   4   3     4.625646601980   152.52889269     1.56830544
 C      2   1   3     2.585360837309    17.32577881   357.11447794
 C      7   2   1     2.710026725231   108.05010202   173.46000719
 C      2   1   3     2.710100516721   125.38688896     5.59544058
 C      1   2   3     2.610579880622    26.08725926   350.25262166
 N      1   2   3     2.555667887161   145.43111857    14.72874559
 N      9   2   1     2.600503484979   106.58526707   356.58728109
 N     12   9   2     5.527566200405   168.53581413   171.12065651
 N     13  12   9     5.583221047236    91.55032014    11.12112580
 N     14  13  12     5.528150518591    88.43092389   359.84326247
 C      8   7   2     2.654668413270   127.24786865   181.11170171
 C     13  12   9     2.582376967257    81.72106996   188.00453233
 C     14  13  12    10.882574804710    80.56209567   166.76250791
 C     17  13  12     2.757130505230   111.08861209   183.82872609
 C     18  14  13     4.558465206823    27.27532823    36.33507194
 C     20  18  14     2.650705180609    87.95206320   148.94598259
 C     21  20  18     2.611803198586   120.14573887   359.70382047
 C     18  14  13     4.623235745386   144.15733107    82.80075377
 C     19  17  13     2.557953565794   106.29293361   359.75308708
 C     13  12   9     2.582903091751   172.21332906    33.46711076
 C     18  14  13     2.609636529225    15.08449437   309.23336894
 N     22  21  20     2.556370638369   120.73759875     0.27865223
 C     25  13  17     2.666210041769   125.60330303   182.37774668
 C     14  13  12     2.601476916169    80.24689249   177.85461986
 C     14  13  12    10.892550769017   164.51507311   312.20821879
 C     29  14  13     2.712892575415   106.58649366   178.76395472
 C     30  14  13     4.560507835333    27.10625047    82.12560436
 C     32  30  14     2.652673401891    87.90059683   149.76154742
 C     33  32  30     2.609133588376   120.14881443   359.74174632
 C     34  33  32     4.627519515267   152.49203239     2.45173620
 C     31  29  14     2.585449236669   108.16950133     0.70383075
 C     14  13  12     2.600716325456   169.26375223   353.09862627
 C     30  14  13     2.609536633043    14.68948582   353.70041132
 N     34  33  32     2.556154803934   120.85575621     0.19603406
 C     37  14  29     2.654530526499   126.01551127   180.90772073
 C     15  14  13     2.582293994346    81.61824056   183.09049352
 C      2   1   3     8.029564866989   143.17668512   152.56822236
 C     41  15  14     2.758391104639   111.05201287   175.08990246
 C     42   2   1     4.559821839776    41.78584867   182.77866443
 C     44  42   2     2.652129475853    87.95153797   233.97558675
 C     45  44  42     2.611027836043   120.11137308     0.19721020
 C     42   2   1     4.629866436820   135.97209175    93.09351353
 C     43  41  15     2.559561325344   106.26758155     0.30894352
 C     15  14  13     2.584127074516   171.87382904   332.35056460
 C     42   2   1     2.611386828803    32.59078432   231.63394362
 C      9   2   1     2.655043698059   126.98745415   177.59161862
 N     42   2   1     2.556355970587   113.57249190   120.83010272
 H      1   2   3     2.048053415096    97.29988321   183.24995153
 H      2   1   3     2.040730117440   109.39086767   183.58492541
 H      4   3   1     2.047669778687   121.06989021   179.52476320
 H      5   4   3     2.046466088905   122.79757713   179.43654926
 H      6   5   4     2.064844694992   104.43846521   100.15931868
 H      6   5   4     2.058800034415    84.66364125   209.56692509
 H      6   5   4     2.058078340526   133.92425158   322.42869231
 H      7   2   1     2.040541119952   126.66122480   353.69842098
 H     60   7   2     1.765637376327   126.21601657   152.77620509
 H     12   9   2     1.920524309565   125.29023241   180.00180175
 H     14  13  12     1.917952867083    44.97226959   359.42596618
 H     18  14  13     2.046330847636   128.03556573   234.20482432
 H     55   4   3     1.572740398282   149.35282526   313.49294049
 H     21  20  18     2.047649722989   121.05669627   180.67006309
 H     22  21  20     2.045596898814   122.73097286   180.59748951
 H     23  18  14     2.063779938267   103.92715769   234.93429879
 H     23  18  14     2.057669673245   134.19244188    12.25587044
 H     23  18  14     2.059486796529    84.85857450   125.45241208
 H     24  19  17     2.041046823986   127.28078426   178.44613241
 H     26  18  14     2.047344503340   118.76995697   244.94906660
 H     30  14  13     2.046012340948   127.99711412   279.66882698
 H     31  29  14     2.040450114918   125.22293469   180.92530585
 H     33  32  30     2.046930203877   121.01964473   180.74284758
 H     34  33  32     2.045617847496   122.70821597   180.59516895
 H     35  34  33     2.064814429233   105.73575241    97.19771933
 H     35  34  33     2.058786158072    84.05943581   206.43036958
 H     35  34  33     2.058418400901   133.08365142   318.50306270
 H     36  31  29     2.039845353366   126.61599965   178.98859863
 H     38  30  73     2.047975821711   118.77264435   359.90091293
 H     42   2   1     2.045020725966   119.31790784   337.46163317
 H     43  41  15     2.041436952892   126.36969097   182.06329380
 H     45  44  42     2.047097678177   121.10105945   179.58025624
 H     46  45  44     2.045051284662   122.72144639   179.46906377
 H     47  42   2     2.062723288131   106.65128841   315.16475048
 H     47  42   2     2.057569012371   132.46019523    94.52397119
 H     47  42   2     2.058915377895    83.63838232   206.04504406
 H     48  43  41     2.041664347903   127.23657387   181.62955349
 H     50  42   2     2.046925842384   118.77001737    94.71359229

---------------------
BASIS SET INFORMATION
---------------------
There are 3 groups of distinct atoms

 Group   1 Type C   : 17s4p1d contracted to 3s2p1d pattern {881/31/1}
 Group   2 Type N   : 17s4p1d contracted to 3s2p1d pattern {881/31/1}
 Group   3 Type H   : 4s1p contracted to 2s1p pattern {31/1}

Atom   0C    basis set group =>   1
Atom   1N    basis set group =>   2
Atom   2C    basis set group =>   1
Atom   3N    basis set group =>   2
Atom   4C    basis set group =>   1
Atom   5N    basis set group =>   2
Atom   6C    basis set group =>   1
Atom   7N    basis set group =>   2
Atom   8C    basis set group =>   1
Atom   9N    basis set group =>   2
Atom  10C    basis set group =>   1
Atom  11N    basis set group =>   2
Atom  12C    basis set group =>   1
Atom  13N    basis set group =>   2
Atom  14C    basis set group =>   1
Atom  15N    basis set group =>   2
Atom  16C    basis set group =>   1
Atom  17C    basis set group =>   1
Atom  18C    basis set group =>   1
Atom  19C    basis set group =>   1
Atom  20C    basis set group =>   1
Atom  21C    basis set group =>   1
Atom  22C    basis set group =>   1
Atom  23C    basis set group =>   1
Atom  24C    basis set group =>   1
Atom  25C    basis set group =>   1
Atom  26C    basis set group =>   1
Atom  27C    basis set group =>   1
Atom  28C    basis set group =>   1
Atom  29C    basis set group =>   1
Atom  30C    basis set group =>   1
Atom  31C    basis set group =>   1
Atom  32C    basis set group =>   1
Atom  33C    basis set group =>   1
Atom  34C    basis set group =>   1
Atom  35C    basis set group =>   1
Atom  36C    basis set group =>   1
Atom  37C    basis set group =>   1
Atom  38C    basis set group =>   1
Atom  39C    basis set group =>   1
Atom  40C    basis set group =>   1
Atom  41C    basis set group =>   1
Atom  42C    basis set group =>   1
Atom  43C    basis set group =>   1
Atom  44C    basis set group =>   1
Atom  45C    basis set group =>   1
Atom  46C    basis set group =>   1
Atom  47C    basis set group =>   1
Atom  48C    basis set group =>   1
Atom  49C    basis set group =>   1
Atom  50C    basis set group =>   1
Atom  51C    basis set group =>   1
Atom  52H    basis set group =>   3
Atom  53H    basis set group =>   3
Atom  54H    basis set group =>   3
Atom  55H    basis set group =>   3
Atom  56H    basis set group =>   3
Atom  57H    basis set group =>   3
Atom  58H    basis set group =>   3
Atom  59H    basis set group =>   3
Atom  60H    basis set group =>   3
Atom  61H    basis set group =>   3
Atom  62H    basis set group =>   3
Atom  63H    basis set group =>   3
Atom  64H    basis set group =>   3
Atom  65H    basis set group =>   3
Atom  66H    basis set group =>   3
Atom  67H    basis set group =>   3
Atom  68H    basis set group =>   3
Atom  69H    basis set group =>   3
Atom  70H    basis set group =>   3
Atom  71H    basis set group =>   3
Atom  72H    basis set group =>   3
Atom  73H    basis set group =>   3
Atom  74H    basis set group =>   3
Atom  75H    basis set group =>   3
Atom  76H    basis set group =>   3
Atom  77H    basis set group =>   3
Atom  78H    basis set group =>   3
Atom  79H    basis set group =>   3
Atom  80H    basis set group =>   3
Atom  81H    basis set group =>   3
Atom  82H    basis set group =>   3
Atom  83H    basis set group =>   3
Atom  84H    basis set group =>   3
Atom  85H    basis set group =>   3
Atom  86H    basis set group =>   3
Atom  87H    basis set group =>   3
Atom  88H    basis set group =>   3
Atom  89H    basis set group =>   3


           ************************************************************
           *        Program running with 16 parallel MPI-processes    *
           *              working on a common directory               *
           ************************************************************
------------------------------------------------------------------------------
                           ORCA GTO INTEGRAL CALCULATION
------------------------------------------------------------------------------
------------------------------------------------------------------------------
                   ___                                                        
                  /   \      - P O W E R E D   B Y -                         
                 /     \                                                     
                 |  |  |   _    _      __       _____    __    __             
                 |  |  |  | |  | |    /  \     |  _  \  |  |  /  |          
                  \  \/   | |  | |   /    \    | | | |  |  | /  /          
                 / \  \   | |__| |  /  /\  \   | |_| |  |  |/  /          
                |  |  |   |  __  | /  /__\  \  |    /   |      \           
                |  |  |   | |  | | |   __   |  |    \   |  |\   \          
                \     /   | |  | | |  |  |  |  | |\  \  |  | \   \       
                 \___/    |_|  |_| |__|  |__|  |_| \__\ |__|  \__/        
                                                                              
                      - O R C A' S   B I G   F R I E N D -                    
                                      &                                       
                       - I N T E G R A L  F E E D E R -                       
                                                                              
 v1 FN, 2020, v2 2021                                                         
------------------------------------------------------------------------------


Reading SHARK input file /scratch/allen/tmpyp4_amber_gaff2/conf1/conf1/Conf11.orca.SHARKINP.tmp ... ok
----------------------
SHARK INTEGRAL PACKAGE
----------------------

Number of atoms                             ...     90
Number of basis functions                   ...   1230
Number of shells                            ...    738
Maximum angular momentum                    ...      2
Integral batch strategy                     ... SHARK/LIBINT Hybrid
RI-J (if used) integral strategy            ... SPLIT-RIJ (Revised 2003 algorithm where possible)
Printlevel                                  ...      1
Contraction scheme used                     ... PARTIAL GENERAL contraction
Coulomb Range Separation                    ... NOT USED
Exchange Range Separation                   ... NOT USED
Finite Nucleus Model                        ... NOT USED
Auxiliary Coulomb fitting basis             ... NOT available
Auxiliary J/K fitting basis                 ... NOT available
Auxiliary Correlation fitting basis         ... NOT available
Auxiliary 'external' fitting basis          ... NOT available
Integral threshold                          ...     2.500000e-11
Primitive cut-off                           ...     2.500000e-12
Primitive pair pre-selection threshold      ...     2.500000e-12

Calculating pre-screening integrals         ... done (  0.1 sec) Dimension = 738
Calculating pre-screening integrals (ORCA)  ... done (  0.3 sec) Dimension = 426
Organizing shell pair data                  ... done (  0.5 sec)
Shell pair information
Total number of shell pairs                 ...    272691
Shell pairs after pre-screening             ...     71732
Total number of primitive shell pairs       ...    422091
Primitive shell pairs kept                  ...     92637
          la=0 lb=0:  29445 shell pairs
          la=1 lb=0:  26033 shell pairs
          la=1 lb=1:   4700 shell pairs
          la=2 lb=0:   7895 shell pairs
          la=2 lb=1:   3130 shell pairs
          la=2 lb=2:    529 shell pairs

Calculating one electron integrals          ... done (  0.2 sec)
Calculating Nuclear repulsion               ... done (  0.0 sec) ENN=   6235.415356684509 Eh

SHARK setup successfully completed in   1.8 seconds

Maximum memory used throughout the entire GTOINT-calculation: 99.1 MB


           ************************************************************
           *        Program running with 16 parallel MPI-processes    *
           *              working on a common directory               *
           ************************************************************
-------------------------------------------------------------------------------
                                 ORCA SCF
-------------------------------------------------------------------------------

------------
SCF SETTINGS
------------
Hamiltonian:
 Ab initio Hamiltonian  Method          .... Hartree-Fock(GTOs)


General Settings:
 Integral files         IntName         .... /scratch/allen/tmpyp4_amber_gaff2/conf1/conf1/Conf11.orca
 Hartree-Fock type      HFTyp           .... RHF
 Total Charge           Charge          ....    0
 Multiplicity           Mult            ....    1
 Number of Electrons    NEL             ....  358
 Basis Dimension        Dim             ....  918
 Nuclear Repulsion      ENuc            ....   6235.4153566845 Eh

Convergence Acceleration:
 DIIS                   CNVDIIS         .... on
   Start iteration      DIISMaxIt       ....    12
   Startup error        DIISStart       ....  0.200000
   # of expansion vecs  DIISMaxEq       ....     5
   Bias factor          DIISBfac        ....   1.050
   Max. coefficient     DIISMaxC        ....  10.000
 Trust-Rad. Augm. Hess. CNVTRAH         .... auto
   Auto Start mean grad. ratio tolernc. ....  1.125000
   Auto Start start iteration           ....    20
   Auto Start num. interpolation iter.  ....    10
   Max. Number of Micro iterations      ....    16
   Max. Number of Macro iterations      .... Maxiter - #DIIS iter
   Number of Davidson start vectors     ....     2
   Converg. threshold I  (grad. norm)   ....   1.000e-05
   Converg. threshold II (energy diff.) ....   1.000e-08
   Grad. Scal. Fac. for Micro threshold ....   0.100
   Minimum threshold for Micro iter.    ....   0.010
   NR start threshold (gradient norm)   ....   0.001
   Initial trust radius                 ....   0.400
   Minimum AH scaling param. (alpha)    ....   1.000
   Maximum AH scaling param. (alpha)    .... 1000.000
   Orbital update algorithm             .... Taylor
   White noise on init. David. guess    .... on
   Maximum white noise                  ....   0.010
   Quad. conv. algorithm                .... NR
 SOSCF                  CNVSOSCF        .... on
   Start iteration      SOSCFMaxIt      ....   150
   Startup grad/error   SOSCFStart      ....  0.003300
 Level Shifting         CNVShift        .... on
   Level shift para.    LevelShift      ....    0.2500
   Turn off err/grad.   ShiftErr        ....    0.0010
 Zerner damping         CNVZerner       .... off
 Static damping         CNVDamp         .... on
   Fraction old density DampFac         ....    0.7000
   Max. Damping (<1)    DampMax         ....    0.9800
   Min. Damping (>=0)   DampMin         ....    0.0000
   Turn off err/grad.   DampErr         ....    0.1000
 Fernandez-Rico         CNVRico         .... off

SCF Procedure:
 Maximum # iterations   MaxIter         ....   125
 SCF integral mode      SCFMode         .... Direct
   Integral package                     .... SHARK and LIBINT hybrid scheme
 Reset frequency        DirectResetFreq ....    20
 Integral Threshold     Thresh          ....  2.500e-11 Eh
 Primitive CutOff       TCut            ....  2.500e-12 Eh

Convergence Tolerance:
 Convergence Check Mode ConvCheckMode   .... Total+1el-Energy
 Convergence forced     ConvForced      .... 1
 Energy Change          TolE            ....  1.000e-08 Eh
 1-El. energy change                    ....  1.000e-05 Eh
 Orbital Gradient       TolG            ....  1.000e-05
 Orbital Rotation angle TolX            ....  1.000e-05
 DIIS Error             TolErr          ....  5.000e-07


Diagonalization of the overlap matrix:
Smallest eigenvalue                        ... 1.745e-04
Time for diagonalization                   ...    0.470 sec
Threshold for overlap eigenvalues          ... 1.000e-08
Number of eigenvalues below threshold      ... 0
Time for construction of square roots      ...    0.190 sec
Total time needed                          ...    0.666 sec

Time for model grid setup =    1.015 sec

------------------------------
INITIAL GUESS: MODEL POTENTIAL
------------------------------
Loading Hartree-Fock densities                     ... done
Calculating cut-offs                               ... done
Initializing the effective Hamiltonian             ... done
Setting up the integral package (SHARK)            ... done
Starting the Coulomb interaction                   ... done (   1.1 sec)
Reading the grid                                   ... done
Mapping shells                                     ... done
Starting the XC term evaluation                    ... done (   0.2 sec)
Transforming the Hamiltonian                       ... done (   0.2 sec)
Diagonalizing the Hamiltonian                      ... done (   0.3 sec)
Back transforming the eigenvectors                 ... done (   0.1 sec)
Now organizing SCF variables                       ... done
                      ------------------
                      INITIAL GUESS DONE (   2.9 sec)
                      ------------------
--------------
SCF ITERATIONS
--------------
ITER       Energy         Delta-E        Max-DP      RMS-DP      [F,P]     Damp
               ***  Starting incremental Fock matrix formation  ***
  0  -2121.5769360823   0.000000000000 0.07446505  0.00130079  0.2311465 0.7000
  1  -2122.2169678649  -0.640031782586 0.07725867  0.00106403  0.1434619 0.7000
                               ***Turning on DIIS***
  2  -2122.6166710882  -0.399703223276 0.13338653  0.00240032  0.0803169 0.0000
  3  -2118.0375460843   4.579125003842 0.10926091  0.00074912  0.0434220 0.0000
  4  -2123.3192066560  -5.281660571658 0.03108036  0.00024233  0.0093275 0.0000
  5  -2123.4444395001  -0.125232844157 0.01400848  0.00013766  0.0048188 0.0000
  6  -2123.4282996475   0.016139852663 0.00833037  0.00008754  0.0022586 0.0000
  7  -2123.5199608319  -0.091661184437 0.00491326  0.00006821  0.0016250 0.0000
  8  -2123.5258758772  -0.005915045283 0.00379203  0.00006492  0.0015233 0.0000
  9  -2123.4997905585   0.026085318683 0.00266719  0.00004633  0.0012260 0.0000
 10  -2123.5071066708  -0.007316112258 0.00536108  0.00009692  0.0009616 0.0000
                      *** Initiating the SOSCF procedure ***
                           *** Shutting down DIIS ***
                      *** Re-Reading the Fockian *** 
                      *** Removing any level shift *** 
ITER      Energy       Delta-E        Grad      Rot      Max-DP    RMS-DP
 11  -2123.40190354   0.1052031289  0.000182  0.000182  0.000248  0.000005
               *** Restarting incremental Fock matrix formation ***
 12  -2123.46752216  -0.0656186161  0.000934  0.006253  0.001490  0.000035
 13  -2123.46763439  -0.0001122314  0.001145  0.031022  0.006758  0.000138
 14  -2123.46782025  -0.0001858572  0.000391  0.001879  0.000610  0.000013
 15  -2123.46783553  -0.0000152855  0.000195  0.002405  0.000504  0.000013
 16  -2123.46784246  -0.0000069277  0.000132  0.002083  0.000486  0.000009
 17  -2123.46784523  -0.0000027712  0.000134  0.002165  0.000306  0.000008
 18  -2123.46784658  -0.0000013512  0.000061  0.001302  0.000222  0.000005
 19  -2123.46784743  -0.0000008445  0.000048  0.001897  0.000279  0.000006
 20  -2123.46784800  -0.0000005706  0.000029  0.001100  0.000181  0.000004
 21  -2123.46784826  -0.0000002646  0.000028  0.001308  0.000212  0.000004
 22  -2123.46784852  -0.0000002584  0.000026  0.001070  0.000163  0.000003
 23  -2123.46784867  -0.0000001517  0.000016  0.000390  0.000069  0.000001
 24  -2123.46784873  -0.0000000551  0.000009  0.000252  0.000056  0.000001
 25  -2123.46784876  -0.0000000299  0.000008  0.000134  0.000043  0.000001
 26  -2123.46784877  -0.0000000116  0.000006  0.000080  0.000029  0.000000
 27  -2123.46784877   0.0000000022  0.000003  0.000062  0.000020  0.000000
                  ***Gradient check signals convergence***
              ***Rediagonalizing the Fockian in SOSCF/NRSCF***

               *****************************************************
               *                     SUCCESS                       *
               *           SCF CONVERGED AFTER  28 CYCLES          *
               *****************************************************


----------------
TOTAL SCF ENERGY
----------------

Total Energy       :        -2123.46784876 Eh          -57782.49777 eV

Components:
Nuclear Repulsion  :         6235.41535668 Eh          169674.27793 eV
Electronic Energy  :        -8358.88320545 Eh         -227456.77570 eV
One Electron Energy:       -15311.26498431 Eh         -416640.70183 eV
Two Electron Energy:         6952.38177886 Eh          189183.92613 eV

Virial components:
Potential Energy   :        -4246.06527856 Eh         -115541.31024 eV
Kinetic Energy     :         2122.59742980 Eh           57758.81247 eV
Virial Ratio       :            2.00041007


---------------
SCF CONVERGENCE
---------------

  Last Energy change         ...    1.3260e-09  Tolerance :   1.0000e-08
  Last MAX-Density change    ...    9.6468e-06  Tolerance :   1.0000e-07
  Last RMS-Density change    ...    1.7148e-07  Tolerance :   5.0000e-09
  Last Orbital Gradient      ...    1.8723e-06  Tolerance :   1.0000e-05
  Last Orbital Rotation      ...    3.3045e-05  Tolerance :   1.0000e-05

             **** THE GBW FILE WAS UPDATED (/scratch/allen/tmpyp4_amber_gaff2/conf1/conf1/Conf11.orca.gbw) ****
             **** DENSITY /scratch/allen/tmpyp4_amber_gaff2/conf1/conf1/Conf11.orca.scfp WAS UPDATED ****
             **** ENERGY FILE WAS UPDATED (/scratch/allen/tmpyp4_amber_gaff2/conf1/conf1/Conf11.orca.en.tmp) ****
             **** THE GBW FILE WAS UPDATED (/scratch/allen/tmpyp4_amber_gaff2/conf1/conf1/Conf11.orca.gbw) ****
             **** DENSITY /scratch/allen/tmpyp4_amber_gaff2/conf1/conf1/Conf11.orca.scfp WAS UPDATED ****
----------------
ORBITAL ENERGIES
----------------

  NO   OCC          E(Eh)            E(eV) 
   0   2.0000     -15.679982      -426.6740 
   1   2.0000     -15.633007      -425.3957 
   2   2.0000     -15.632766      -425.3892 
   3   2.0000     -15.588216      -424.1769 
   4   2.0000     -15.524835      -422.4522 
   5   2.0000     -15.515525      -422.1989 
   6   2.0000     -15.454094      -420.5273 
   7   2.0000     -15.439340      -420.1258 
   8   2.0000     -11.329434      -308.2896 
   9   2.0000     -11.328672      -308.2688 
  10   2.0000     -11.328047      -308.2518 
  11   2.0000     -11.299096      -307.4640 
  12   2.0000     -11.298584      -307.4501 
  13   2.0000     -11.292233      -307.2773 
  14   2.0000     -11.292026      -307.2716 
  15   2.0000     -11.287495      -307.1483 
  16   2.0000     -11.285481      -307.0935 
  17   2.0000     -11.282207      -307.0045 
  18   2.0000     -11.269632      -306.6623 
  19   2.0000     -11.263476      -306.4948 
  20   2.0000     -11.262472      -306.4674 
  21   2.0000     -11.251754      -306.1758 
  22   2.0000     -11.248007      -306.0738 
  23   2.0000     -11.237722      -305.7940 
  24   2.0000     -11.236592      -305.7632 
  25   2.0000     -11.230601      -305.6002 
  26   2.0000     -11.230439      -305.5958 
  27   2.0000     -11.230235      -305.5902 
  28   2.0000     -11.229492      -305.5700 
  29   2.0000     -11.210663      -305.0577 
  30   2.0000     -11.209310      -305.0208 
  31   2.0000     -11.194056      -304.6057 
  32   2.0000     -11.191920      -304.5476 
  33   2.0000     -11.191473      -304.5355 
  34   2.0000     -11.188931      -304.4663 
  35   2.0000     -11.188274      -304.4484 
  36   2.0000     -11.187471      -304.4266 
  37   2.0000     -11.174435      -304.0718 
  38   2.0000     -11.174176      -304.0648 
  39   2.0000     -11.171477      -303.9913 
  40   2.0000     -11.171452      -303.9907 
  41   2.0000     -11.168196      -303.9021 
  42   2.0000     -11.167874      -303.8933 
  43   2.0000     -11.162332      -303.7425 
  44   2.0000     -11.160698      -303.6980 
  45   2.0000     -11.157262      -303.6045 
  46   2.0000     -11.156150      -303.5743 
  47   2.0000     -11.151365      -303.4441 
  48   2.0000     -11.147283      -303.3330 
  49   2.0000     -11.135392      -303.0094 
  50   2.0000     -11.129200      -302.8409 
  51   2.0000     -11.117315      -302.5175 
  52   2.0000      -1.360540       -37.0222 
  53   2.0000      -1.320621       -35.9359 
  54   2.0000      -1.320187       -35.9241 
  55   2.0000      -1.280482       -34.8437 
  56   2.0000      -1.225895       -33.3583 
  57   2.0000      -1.210424       -32.9373 
  58   2.0000      -1.173831       -31.9416 
  59   2.0000      -1.150534       -31.3076 
  60   2.0000      -1.143790       -31.1241 
  61   2.0000      -1.110428       -30.2163 
  62   2.0000      -1.108780       -30.1714 
  63   2.0000      -1.082214       -29.4485 
  64   2.0000      -1.077333       -29.3157 
  65   2.0000      -1.045214       -28.4417 
  66   2.0000      -1.044426       -28.4203 
  67   2.0000      -1.041191       -28.3323 
  68   2.0000      -1.014943       -27.6180 
  69   2.0000      -1.014266       -27.5996 
  70   2.0000      -1.009084       -27.4586 
  71   2.0000      -0.993288       -27.0287 
  72   2.0000      -0.985682       -26.8218 
  73   2.0000      -0.981733       -26.7143 
  74   2.0000      -0.973580       -26.4925 
  75   2.0000      -0.962519       -26.1915 
  76   2.0000      -0.955051       -25.9883 
  77   2.0000      -0.946425       -25.7535 
  78   2.0000      -0.939210       -25.5572 
  79   2.0000      -0.916862       -24.9491 
  80   2.0000      -0.910686       -24.7810 
  81   2.0000      -0.897779       -24.4298 
  82   2.0000      -0.877067       -23.8662 
  83   2.0000      -0.871722       -23.7207 
  84   2.0000      -0.871164       -23.7056 
  85   2.0000      -0.861048       -23.4303 
  86   2.0000      -0.845383       -23.0040 
  87   2.0000      -0.836749       -22.7691 
  88   2.0000      -0.828877       -22.5549 
  89   2.0000      -0.796458       -21.6727 
  90   2.0000      -0.789132       -21.4734 
  91   2.0000      -0.771133       -20.9836 
  92   2.0000      -0.753109       -20.4931 
  93   2.0000      -0.733730       -19.9658 
  94   2.0000      -0.727630       -19.7998 
  95   2.0000      -0.725998       -19.7554 
  96   2.0000      -0.720080       -19.5944 
  97   2.0000      -0.717762       -19.5313 
  98   2.0000      -0.714121       -19.4322 
  99   2.0000      -0.699370       -19.0308 
 100   2.0000      -0.698224       -18.9996 
 101   2.0000      -0.694487       -18.8979 
 102   2.0000      -0.685410       -18.6510 
 103   2.0000      -0.684471       -18.6254 
 104   2.0000      -0.678756       -18.4699 
 105   2.0000      -0.674608       -18.3570 
 106   2.0000      -0.672876       -18.3099 
 107   2.0000      -0.660848       -17.9826 
 108   2.0000      -0.658137       -17.9088 
 109   2.0000      -0.652896       -17.7662 
 110   2.0000      -0.652006       -17.7420 
 111   2.0000      -0.646300       -17.5867 
 112   2.0000      -0.645711       -17.5707 
 113   2.0000      -0.637796       -17.3553 
 114   2.0000      -0.635777       -17.3004 
 115   2.0000      -0.628750       -17.1092 
 116   2.0000      -0.623315       -16.9613 
 117   2.0000      -0.620737       -16.8911 
 118   2.0000      -0.612928       -16.6786 
 119   2.0000      -0.612358       -16.6631 
 120   2.0000      -0.611538       -16.6408 
 121   2.0000      -0.611432       -16.6379 
 122   2.0000      -0.601627       -16.3711 
 123   2.0000      -0.588881       -16.0243 
 124   2.0000      -0.581475       -15.8227 
 125   2.0000      -0.580837       -15.8054 
 126   2.0000      -0.580163       -15.7870 
 127   2.0000      -0.571239       -15.5442 
 128   2.0000      -0.567125       -15.4323 
 129   2.0000      -0.560092       -15.2409 
 130   2.0000      -0.555029       -15.1031 
 131   2.0000      -0.547927       -14.9099 
 132   2.0000      -0.542728       -14.7684 
 133   2.0000      -0.540357       -14.7039 
 134   2.0000      -0.538314       -14.6483 
 135   2.0000      -0.536504       -14.5990 
 136   2.0000      -0.531589       -14.4653 
 137   2.0000      -0.518555       -14.1106 
 138   2.0000      -0.516438       -14.0530 
 139   2.0000      -0.514800       -14.0084 
 140   2.0000      -0.512288       -13.9401 
 141   2.0000      -0.509985       -13.8774 
 142   2.0000      -0.507474       -13.8091 
 143   2.0000      -0.505457       -13.7542 
 144   2.0000      -0.502617       -13.6769 
 145   2.0000      -0.495666       -13.4878 
 146   2.0000      -0.488314       -13.2877 
 147   2.0000      -0.481197       -13.0940 
 148   2.0000      -0.477151       -12.9839 
 149   2.0000      -0.467834       -12.7304 
 150   2.0000      -0.466349       -12.6900 
 151   2.0000      -0.456699       -12.4274 
 152   2.0000      -0.451820       -12.2946 
 153   2.0000      -0.444931       -12.1072 
 154   2.0000      -0.438098       -11.9212 
 155   2.0000      -0.427567       -11.6347 
 156   2.0000      -0.409520       -11.1436 
 157   2.0000      -0.393723       -10.7138 
 158   2.0000      -0.390098       -10.6151 
 159   2.0000      -0.387737       -10.5509 
 160   2.0000      -0.378642       -10.3034 
 161   2.0000      -0.372990       -10.1496 
 162   2.0000      -0.362390        -9.8611 
 163   2.0000      -0.356770        -9.7082 
 164   2.0000      -0.355729        -9.6799 
 165   2.0000      -0.342147        -9.3103 
 166   2.0000      -0.337612        -9.1869 
 167   2.0000      -0.324445        -8.8286 
 168   2.0000      -0.321442        -8.7469 
 169   2.0000      -0.305074        -8.3015 
 170   2.0000      -0.299459        -8.1487 
 171   2.0000      -0.285763        -7.7760 
 172   2.0000      -0.278497        -7.5783 
 173   2.0000      -0.263849        -7.1797 
 174   2.0000      -0.241847        -6.5810 
 175   2.0000      -0.189963        -5.1692 
 176   2.0000      -0.181233        -4.9316 
 177   2.0000      -0.079790        -2.1712 
 178   2.0000      -0.059784        -1.6268 
 179   0.0000       0.028391         0.7725 
 180   0.0000       0.065334         1.7778 
 181   0.0000       0.090149         2.4531 
 182   0.0000       0.106143         2.8883 
 183   0.0000       0.116247         3.1632 
 184   0.0000       0.137162         3.7324 
 185   0.0000       0.139303         3.7906 
 186   0.0000       0.140851         3.8328 
 187   0.0000       0.164184         4.4677 
 188   0.0000       0.165085         4.4922 
 189   0.0000       0.165707         4.5091 
 190   0.0000       0.174101         4.7375 
 191   0.0000       0.180277         4.9056 
 192   0.0000       0.183681         4.9982 
 193   0.0000       0.189297         5.1510 
 194   0.0000       0.204798         5.5728 
 195   0.0000       0.205628         5.5954 
 196   0.0000       0.208018         5.6605 
 197   0.0000       0.208887         5.6841 
 198   0.0000       0.216458         5.8901 
 199   0.0000       0.228512         6.2181 
 200   0.0000       0.233678         6.3587 
 201   0.0000       0.233840         6.3631 
 202   0.0000       0.238927         6.5015 
 203   0.0000       0.239768         6.5244 
 204   0.0000       0.246203         6.6995 
 205   0.0000       0.255005         6.9390 
 206   0.0000       0.256232         6.9724 
 207   0.0000       0.257765         7.0141 
 208   0.0000       0.258951         7.0464 
 209   0.0000       0.260487         7.0882 
 210   0.0000       0.263570         7.1721 
 211   0.0000       0.265595         7.2272 
 212   0.0000       0.268596         7.3089 
 213   0.0000       0.271225         7.3804 
 214   0.0000       0.272954         7.4274 
 215   0.0000       0.275778         7.5043 
 216   0.0000       0.277955         7.5635 
 217   0.0000       0.283069         7.7027 
 218   0.0000       0.286702         7.8016 
 219   0.0000       0.287438         7.8216 
 220   0.0000       0.289988         7.8910 
 221   0.0000       0.292246         7.9524 
 222   0.0000       0.294851         8.0233 
 223   0.0000       0.296636         8.0719 
 224   0.0000       0.297257         8.0888 
 225   0.0000       0.301352         8.2002 
 226   0.0000       0.305378         8.3097 
 227   0.0000       0.308242         8.3877 
 228   0.0000       0.315747         8.5919 
 229   0.0000       0.324485         8.8297 
 230   0.0000       0.328183         8.9303 
 231   0.0000       0.335189         9.1209 
 232   0.0000       0.343265         9.3407 
 233   0.0000       0.356669         9.7055 
 234   0.0000       0.369736        10.0610 
 235   0.0000       0.372063        10.1243 
 236   0.0000       0.380381        10.3507 
 237   0.0000       0.390304        10.6207 
 238   0.0000       0.396402        10.7867 
 239   0.0000       0.401374        10.9219 
 240   0.0000       0.406679        11.0663 
 241   0.0000       0.411071        11.1858 
 242   0.0000       0.415082        11.2950 
 243   0.0000       0.417865        11.3707 
 244   0.0000       0.429766        11.6945 
 245   0.0000       0.434161        11.8141 
 246   0.0000       0.439742        11.9660 
 247   0.0000       0.441359        12.0100 
 248   0.0000       0.442367        12.0374 
 249   0.0000       0.449514        12.2319 
 250   0.0000       0.452934        12.3250 
 251   0.0000       0.464161        12.6305 
 252   0.0000       0.466594        12.6967 
 253   0.0000       0.467068        12.7096 
 254   0.0000       0.471426        12.8282 
 255   0.0000       0.474749        12.9186 
 256   0.0000       0.474948        12.9240 
 257   0.0000       0.481037        13.0897 
 258   0.0000       0.489313        13.3149 
 259   0.0000       0.495427        13.4812 
 260   0.0000       0.503656        13.7052 
 261   0.0000       0.504674        13.7329 
 262   0.0000       0.506547        13.7838 
 263   0.0000       0.512252        13.9391 
 264   0.0000       0.516122        14.0444 
 265   0.0000       0.521263        14.1843 
 266   0.0000       0.523728        14.2514 
 267   0.0000       0.528040        14.3687 
 268   0.0000       0.535460        14.5706 
 269   0.0000       0.538042        14.6409 
 270   0.0000       0.546408        14.8685 
 271   0.0000       0.552530        15.0351 
 272   0.0000       0.558423        15.1955 
 273   0.0000       0.559886        15.2353 
 274   0.0000       0.566236        15.4081 
 275   0.0000       0.567305        15.4372 
 276   0.0000       0.573113        15.5952 
 277   0.0000       0.574486        15.6325 
 278   0.0000       0.580790        15.8041 
 279   0.0000       0.586516        15.9599 
 280   0.0000       0.592897        16.1335 
 281   0.0000       0.593405        16.1474 
 282   0.0000       0.595371        16.2009 
 283   0.0000       0.595873        16.2145 
 284   0.0000       0.598408        16.2835 
 285   0.0000       0.600623        16.3438 
 286   0.0000       0.604310        16.4441 
 287   0.0000       0.611293        16.6341 
 288   0.0000       0.617104        16.7922 
 289   0.0000       0.623863        16.9762 
 290   0.0000       0.624847        17.0030 
 291   0.0000       0.629648        17.1336 
 292   0.0000       0.632585        17.2135 
 293   0.0000       0.635913        17.3041 
 294   0.0000       0.645936        17.5768 
 295   0.0000       0.649093        17.6627 
 296   0.0000       0.652945        17.7675 
 297   0.0000       0.655468        17.8362 
 298   0.0000       0.661659        18.0047 
 299   0.0000       0.665994        18.1226 
 300   0.0000       0.670798        18.2533 
 301   0.0000       0.675432        18.3794 
 302   0.0000       0.677671        18.4404 
 303   0.0000       0.680686        18.5224 
 304   0.0000       0.682014        18.5585 
 305   0.0000       0.685824        18.6622 
 306   0.0000       0.688850        18.7446 
 307   0.0000       0.692673        18.8486 
 308   0.0000       0.695122        18.9152 
 309   0.0000       0.700564        19.0633 
 310   0.0000       0.702602        19.1188 
 311   0.0000       0.704534        19.1713 
 312   0.0000       0.706492        19.2246 
 313   0.0000       0.711237        19.3537 
 314   0.0000       0.711945        19.3730 
 315   0.0000       0.716174        19.4881 
 316   0.0000       0.717009        19.5108 
 317   0.0000       0.718319        19.5465 
 318   0.0000       0.724834        19.7237 
 319   0.0000       0.727668        19.8009 
 320   0.0000       0.727983        19.8094 
 321   0.0000       0.730004        19.8644 
 322   0.0000       0.731785        19.9129 
 323   0.0000       0.733078        19.9481 
 324   0.0000       0.736280        20.0352 
 325   0.0000       0.741119        20.1669 
 326   0.0000       0.743348        20.2275 
 327   0.0000       0.747955        20.3529 
 328   0.0000       0.752501        20.4766 
 329   0.0000       0.755930        20.5699 
 330   0.0000       0.757916        20.6239 
 331   0.0000       0.764665        20.8076 
 332   0.0000       0.767102        20.8739 
 333   0.0000       0.768013        20.8987 
 334   0.0000       0.769556        20.9407 
 335   0.0000       0.774136        21.0653 
 336   0.0000       0.779788        21.2191 
 337   0.0000       0.781119        21.2553 
 338   0.0000       0.785478        21.3739 
 339   0.0000       0.790200        21.5024 
 340   0.0000       0.792509        21.5653 
 341   0.0000       0.795421        21.6445 
 342   0.0000       0.800568        21.7846 
 343   0.0000       0.802248        21.8303 
 344   0.0000       0.806039        21.9334 
 345   0.0000       0.808450        21.9991 
 346   0.0000       0.812648        22.1133 
 347   0.0000       0.814245        22.1567 
 348   0.0000       0.815792        22.1988 
 349   0.0000       0.817328        22.2406 
 350   0.0000       0.819961        22.3123 
 351   0.0000       0.823514        22.4090 
 352   0.0000       0.826026        22.4773 
 353   0.0000       0.827218        22.5097 
 354   0.0000       0.831596        22.6289 
 355   0.0000       0.832299        22.6480 
 356   0.0000       0.834478        22.7073 
 357   0.0000       0.837439        22.7879 
 358   0.0000       0.838560        22.8184 
 359   0.0000       0.839728        22.8502 
 360   0.0000       0.842525        22.9263 
 361   0.0000       0.843517        22.9533 
 362   0.0000       0.845902        23.0182 
 363   0.0000       0.849144        23.1064 
 364   0.0000       0.852503        23.1978 
 365   0.0000       0.855789        23.2872 
 366   0.0000       0.859842        23.3975 
 367   0.0000       0.862330        23.4652 
 368   0.0000       0.867788        23.6137 
 369   0.0000       0.870159        23.6782 
 370   0.0000       0.872582        23.7442 
 371   0.0000       0.873824        23.7780 
 372   0.0000       0.876446        23.8493 
 373   0.0000       0.878012        23.8919 
 374   0.0000       0.879920        23.9438 
 375   0.0000       0.882491        24.0138 
 376   0.0000       0.889576        24.2066 
 377   0.0000       0.891237        24.2518 
 378   0.0000       0.893268        24.3071 
 379   0.0000       0.894900        24.3515 
 380   0.0000       0.897280        24.4162 
 381   0.0000       0.899245        24.4697 
 382   0.0000       0.900877        24.5141 
 383   0.0000       0.902054        24.5461 
 384   0.0000       0.906473        24.6664 
 385   0.0000       0.907711        24.7001 
 386   0.0000       0.908460        24.7205 
 387   0.0000       0.912148        24.8208 
 388   0.0000       0.915609        24.9150 
 389   0.0000       0.918971        25.0065 
 390   0.0000       0.921521        25.0759 
 391   0.0000       0.926132        25.2013 
 392   0.0000       0.927205        25.2305 
 393   0.0000       0.928983        25.2789 
 394   0.0000       0.930160        25.3109 
 395   0.0000       0.933577        25.4039 
 396   0.0000       0.935686        25.4613 
 397   0.0000       0.941363        25.6158 
 398   0.0000       0.944587        25.7035 
 399   0.0000       0.945666        25.7329 
 400   0.0000       0.948890        25.8206 
 401   0.0000       0.954016        25.9601 
 402   0.0000       0.955025        25.9876 
 403   0.0000       0.958884        26.0926 
 404   0.0000       0.961076        26.1522 
 405   0.0000       0.962471        26.1902 
 406   0.0000       0.971803        26.4441 
 407   0.0000       0.978945        26.6384 
 408   0.0000       0.982558        26.7368 
 409   0.0000       0.987312        26.8661 
 410   0.0000       0.989229        26.9183 
 411   0.0000       0.993692        27.0397 
 412   0.0000       0.999605        27.2006 
 413   0.0000       1.005575        27.3631 
 414   0.0000       1.010251        27.4903 
 415   0.0000       1.012318        27.5466 
 416   0.0000       1.018825        27.7236 
 417   0.0000       1.021408        27.7939 
 418   0.0000       1.030456        28.0401 
 419   0.0000       1.032838        28.1049 
 420   0.0000       1.035943        28.1894 
 421   0.0000       1.038842        28.2683 
 422   0.0000       1.044349        28.4182 
 423   0.0000       1.053317        28.6622 
 424   0.0000       1.063430        28.9374 
 425   0.0000       1.068929        29.0870 
 426   0.0000       1.073546        29.2127 
 427   0.0000       1.077152        29.3108 
 428   0.0000       1.079592        29.3772 
 429   0.0000       1.088216        29.6119 
 430   0.0000       1.089563        29.6485 
 431   0.0000       1.093633        29.7593 
 432   0.0000       1.099053        29.9068 
 433   0.0000       1.103083        30.0164 
 434   0.0000       1.107814        30.1452 
 435   0.0000       1.112066        30.2608 
 436   0.0000       1.115895        30.3651 
 437   0.0000       1.117041        30.3962 
 438   0.0000       1.121447        30.5161 
 439   0.0000       1.123711        30.5777 
 440   0.0000       1.125021        30.6134 
 441   0.0000       1.129783        30.7430 
 442   0.0000       1.134052        30.8591 
 443   0.0000       1.135418        30.8963 
 444   0.0000       1.138193        30.9718 
 445   0.0000       1.142368        31.0854 
 446   0.0000       1.148431        31.2504 
 447   0.0000       1.150002        31.2931 
 448   0.0000       1.154376        31.4122 
 449   0.0000       1.159259        31.5450 
 450   0.0000       1.160631        31.5824 
 451   0.0000       1.165302        31.7095 
 452   0.0000       1.167132        31.7593 
 453   0.0000       1.168945        31.8086 
 454   0.0000       1.172684        31.9103 
 455   0.0000       1.173165        31.9235 
 456   0.0000       1.183207        32.1967 
 457   0.0000       1.187836        32.3227 
 458   0.0000       1.195838        32.5404 
 459   0.0000       1.197340        32.5813 
 460   0.0000       1.202955        32.7341 
 461   0.0000       1.204105        32.7654 
 462   0.0000       1.208195        32.8767 
 463   0.0000       1.209523        32.9128 
 464   0.0000       1.212921        33.0053 
 465   0.0000       1.217447        33.1284 
 466   0.0000       1.222599        33.2686 
 467   0.0000       1.228931        33.4409 
 468   0.0000       1.229026        33.4435 
 469   0.0000       1.230893        33.4943 
 470   0.0000       1.234948        33.6046 
 471   0.0000       1.238087        33.6901 
 472   0.0000       1.241747        33.7896 
 473   0.0000       1.244200        33.8564 
 474   0.0000       1.246720        33.9250 
 475   0.0000       1.248970        33.9862 
 476   0.0000       1.251415        34.0527 
 477   0.0000       1.251847        34.0645 
 478   0.0000       1.259785        34.2805 
 479   0.0000       1.261925        34.3387 
 480   0.0000       1.264253        34.4021 
 481   0.0000       1.264594        34.4114 
 482   0.0000       1.270387        34.5690 
 483   0.0000       1.273041        34.6412 
 484   0.0000       1.278963        34.8023 
 485   0.0000       1.282290        34.8929 
 486   0.0000       1.285655        34.9845 
 487   0.0000       1.289680        35.0940 
 488   0.0000       1.291871        35.1536 
 489   0.0000       1.294423        35.2231 
 490   0.0000       1.300217        35.3807 
 491   0.0000       1.302375        35.4394 
 492   0.0000       1.307131        35.5688 
 493   0.0000       1.311460        35.6866 
 494   0.0000       1.315332        35.7920 
 495   0.0000       1.319301        35.9000 
 496   0.0000       1.322104        35.9763 
 497   0.0000       1.325749        36.0755 
 498   0.0000       1.328717        36.1562 
 499   0.0000       1.332547        36.2604 
 500   0.0000       1.337769        36.4026 
 501   0.0000       1.341553        36.5055 
 502   0.0000       1.342424        36.5292 
 503   0.0000       1.344398        36.5829 
 504   0.0000       1.348015        36.6814 
 505   0.0000       1.350157        36.7397 
 506   0.0000       1.352050        36.7911 
 507   0.0000       1.359362        36.9901 
 508   0.0000       1.361160        37.0390 
 509   0.0000       1.364163        37.1208 
[...]
      px      :     0.043612
      py      :     0.014045
 77 H s       :     0.884446  s :     0.884446
      pz      :     0.047980  p :     0.079297
      px      :     0.015024
      py      :     0.016293
 78 H s       :     0.884766  s :     0.884766
      pz      :     0.025887  p :     0.079272
      px      :     0.020454
      py      :     0.032931
 79 H s       :     0.910887  s :     0.910887
      pz      :     0.021790  p :     0.086284
      px      :     0.021656
      py      :     0.042837
 80 H s       :     0.864271  s :     0.864271
      pz      :     0.039398  p :     0.084834
      px      :     0.030285
      py      :     0.015151
 81 H s       :     0.886586  s :     0.886586
      pz      :     0.037841  p :     0.084135
      px      :     0.016168
      py      :     0.030125
 82 H s       :     0.915959  s :     0.915959
      pz      :     0.021947  p :     0.086732
      px      :     0.031661
      py      :     0.033124
 83 H s       :     0.873182  s :     0.873182
      pz      :     0.039297  p :     0.084129
      px      :     0.015270
      py      :     0.029562
 84 H s       :     0.886440  s :     0.886440
      pz      :     0.035783  p :     0.083421
      px      :     0.031706
      py      :     0.015933
 85 H s       :     0.892593  s :     0.892593
      pz      :     0.022495  p :     0.079796
      px      :     0.014060
      py      :     0.043241
 86 H s       :     0.890837  s :     0.890837
      pz      :     0.024736  p :     0.078841
      px      :     0.032991
      py      :     0.021114
 87 H s       :     0.889689  s :     0.889689
      pz      :     0.048031  p :     0.078755
      px      :     0.015586
      py      :     0.015139
 88 H s       :     0.910540  s :     0.910540
      pz      :     0.021601  p :     0.087007
      px      :     0.042952
      py      :     0.022455
 89 H s       :     0.870926  s :     0.870926
      pz      :     0.037973  p :     0.083874
      px      :     0.030517
      py      :     0.015385


                      *****************************
                      * MAYER POPULATION ANALYSIS *
                      *****************************

  NA   - Mulliken gross atomic population
  ZA   - Total nuclear charge
  QA   - Mulliken gross atomic charge
  VA   - Mayer's total valence
  BVA  - Mayer's bonded valence
  FA   - Mayer's free valence

  ATOM       NA         ZA         QA         VA         BVA        FA
  0 C      5.7788     6.0000     0.2212     3.8498     3.8498     0.0000
  1 N      7.4551     7.0000    -0.4551     3.3476     3.3476    -0.0000
  2 C      6.0715     6.0000    -0.0715     3.9232     3.9232    -0.0000
  3 N      7.3416     7.0000    -0.3416     3.4542     3.4542     0.0000
  4 C      6.0858     6.0000    -0.0858     4.1400     4.1400     0.0000
  5 N      7.5686     7.0000    -0.5686     3.0955     3.0955     0.0000
  6 C      6.0978     6.0000    -0.0978     3.9261     3.9261    -0.0000
  7 N      7.3410     7.0000    -0.3410     3.4323     3.4323    -0.0000
  8 C      5.7861     6.0000     0.2139     3.8521     3.8521    -0.0000
  9 N      7.5622     7.0000    -0.5622     3.0767     3.0767    -0.0000
 10 C      5.8802     6.0000     0.1198     3.9091     3.9091     0.0000
 11 N      7.4387     7.0000    -0.4387     3.3768     3.3768    -0.0000
 12 C      6.0524     6.0000    -0.0524     3.8369     3.8369    -0.0000
 13 N      7.4293     7.0000    -0.4293     3.4287     3.4287    -0.0000
 14 C      5.7819     6.0000     0.2181     3.8023     3.8023    -0.0000
 15 N      7.4407     7.0000    -0.4407     3.3739     3.3739    -0.0000
 16 C      5.7677     6.0000     0.2323     3.7759     3.7759    -0.0000
 17 C      6.1139     6.0000    -0.1139     3.9437     3.9437    -0.0000
 18 C      6.1804     6.0000    -0.1804     3.7528     3.7528     0.0000
 19 C      5.7861     6.0000     0.2139     3.8802     3.8802     0.0000
 20 C      5.7867     6.0000     0.2133     3.8293     3.8293    -0.0000
 21 C      6.0520     6.0000    -0.0520     3.7952     3.7952     0.0000
 22 C      6.0912     6.0000    -0.0912     3.9829     3.9829    -0.0000
 23 C      6.0395     6.0000    -0.0395     3.9928     3.9928     0.0000
 24 C      5.8070     6.0000     0.1930     3.8211     3.8211     0.0000
 25 C      5.8852     6.0000     0.1148     3.8920     3.8920     0.0000
 26 C      6.0882     6.0000    -0.0882     3.9079     3.9079     0.0000
 27 C      5.7823     6.0000     0.2177     3.8624     3.8624     0.0000
 28 C      6.0619     6.0000    -0.0619     3.9888     3.9888    -0.0000
 29 C      6.1825     6.0000    -0.1825     3.7466     3.7466    -0.0000
 30 C      5.7541     6.0000     0.2459     3.8013     3.8013    -0.0000
 31 C      5.7700     6.0000     0.2300     3.8169     3.8169    -0.0000
 32 C      6.0617     6.0000    -0.0617     3.9230     3.9230    -0.0000
 33 C      6.0599     6.0000    -0.0599     3.9711     3.9711    -0.0000
 34 C      6.0517     6.0000    -0.0517     3.9833     3.9833     0.0000
 35 C      5.7708     6.0000     0.2292     3.8165     3.8165    -0.0000
 36 C      5.8918     6.0000     0.1082     3.8746     3.8746     0.0000
 37 C      6.0644     6.0000    -0.0644     3.9178     3.9178    -0.0000
 38 C      5.7694     6.0000     0.2306     3.8007     3.8007     0.0000
 39 C      6.0572     6.0000    -0.0572     3.9830     3.9830    -0.0000
 40 C      6.1817     6.0000    -0.1817     3.7263     3.7263    -0.0000
 41 C      5.7735     6.0000     0.2265     3.8881     3.8881    -0.0000
 42 C      5.8024     6.0000     0.1976     3.8254     3.8254    -0.0000
 43 C      6.0724     6.0000    -0.0724     3.9000     3.9000    -0.0000
 44 C      6.0890     6.0000    -0.0890     3.9849     3.9849     0.0000
 45 C      6.0617     6.0000    -0.0617     3.9918     3.9918    -0.0000
 46 C      5.7875     6.0000     0.2125     3.8283     3.8283    -0.0000
 47 C      5.8848     6.0000     0.1152     3.8924     3.8924     0.0000
 48 C      6.0664     6.0000    -0.0664     3.9096     3.9096    -0.0000
 49 C      5.7613     6.0000     0.2387     3.8945     3.8945     0.0000
 50 C      6.0460     6.0000    -0.0460     3.9903     3.9903     0.0000
 51 C      6.1927     6.0000    -0.1927     3.7372     3.7372     0.0000
 52 H      0.9650     1.0000     0.0350     0.9855     0.9855    -0.0000
 53 H      1.0183     1.0000    -0.0183     0.9989     0.9989    -0.0000
 54 H      0.9503     1.0000     0.0497     0.9942     0.9942    -0.0000
 55 H      0.9670     1.0000     0.0330     0.9861     0.9861     0.0000
 56 H      0.9507     1.0000     0.0493     0.9695     0.9695    -0.0000
 57 H      0.9525     1.0000     0.0475     0.9825     0.9825     0.0000
 58 H      0.9535     1.0000     0.0465     0.9847     0.9847    -0.0000
 59 H      1.0157     1.0000    -0.0157     0.9921     0.9921    -0.0000
 60 H      0.9570     1.0000     0.0430     1.0034     1.0034    -0.0000
 61 H      0.8288     1.0000     0.1712     1.0422     1.0422     0.0000
 62 H      0.8246     1.0000     0.1754     1.0436     1.0436     0.0000
 63 H      0.9452     1.0000     0.0548     0.9853     0.9853    -0.0000
 64 H      1.0407     1.0000    -0.0407     0.9844     0.9844    -0.0000
 65 H      0.9532     1.0000     0.0468     1.0099     1.0099    -0.0000
 66 H      0.9449     1.0000     0.0551     0.9855     0.9855     0.0000
 67 H      0.9380     1.0000     0.0620     0.9719     0.9719     0.0000
 68 H      0.9430     1.0000     0.0570     0.9868     0.9868    -0.0000
 69 H      0.9440     1.0000     0.0560     0.9828     0.9828    -0.0000
 70 H      1.0307     1.0000    -0.0307     0.9944     0.9944    -0.0000
 71 H      0.9557     1.0000     0.0443     1.0059     1.0059     0.0000
 72 H      0.9285     1.0000     0.0715     0.9835     0.9835     0.0000
 73 H      1.0079     1.0000    -0.0079     1.0010     1.0010    -0.0000
 74 H      0.9394     1.0000     0.0606     1.0100     1.0100     0.0000
 75 H      0.9290     1.0000     0.0710     0.9838     0.9838    -0.0000
 76 H      0.9249     1.0000     0.0751     0.9721     0.9721    -0.0000
 77 H      0.9319     1.0000     0.0681     0.9855     0.9855     0.0000
 78 H      0.9325     1.0000     0.0675     0.9854     0.9854     0.0000
 79 H      1.0169     1.0000    -0.0169     0.9974     0.9974    -0.0000
 80 H      0.9384     1.0000     0.0616     1.0072     1.0072    -0.0000
 81 H      0.9452     1.0000     0.0548     0.9856     0.9856     0.0000
 82 H      1.0248     1.0000    -0.0248     0.9935     0.9935     0.0000
 83 H      0.9576     1.0000     0.0424     1.0082     1.0082    -0.0000
 84 H      0.9453     1.0000     0.0547     0.9852     0.9852    -0.0000
 85 H      0.9387     1.0000     0.0613     0.9716     0.9716     0.0000
 86 H      0.9442     1.0000     0.0558     0.9839     0.9839    -0.0000
 87 H      0.9425     1.0000     0.0575     0.9857     0.9857     0.0000
 88 H      1.0144     1.0000    -0.0144     0.9968     0.9968     0.0000
 89 H      0.9527     1.0000     0.0473     1.0077     1.0077     0.0000

  Mayer bond orders larger than 0.100000
B(  0-C ,  1-N ) :   1.1024 B(  0-C , 17-C ) :   1.7154 B(  0-C , 52-H ) :   0.9615 
B(  1-N ,  8-C ) :   1.0903 B(  1-N , 10-C ) :   0.9772 B(  2-C , 12-C ) :   1.4882 
B(  2-C , 16-C ) :   1.3734 B(  2-C , 53-H ) :   0.9718 B(  3-N , 14-C ) :   1.2231 
B(  3-N , 16-C ) :   1.1788 B(  3-N , 61-H ) :   0.8984 B(  4-C ,  6-C ) :   1.2208 
B(  4-C , 17-C ) :   1.2221 B(  4-C , 18-C ) :   1.4788 B(  5-N , 19-C ) :   1.4618 
B(  5-N , 27-C ) :   1.3694 B(  6-C ,  8-C ) :   1.7299 B(  6-C , 54-H ) :   0.8559 
B(  7-N , 30-C ) :   1.1957 B(  7-N , 38-C ) :   1.1890 B(  7-N , 62-H ) :   0.8968 
B(  8-C , 55-H ) :   0.9610 B(  9-N , 41-C ) :   1.3953 B(  9-N , 49-C ) :   1.4240 
B( 10-C , 56-H ) :   0.9777 B( 10-C , 57-H ) :   0.9823 B( 10-C , 58-H ) :   0.9839 
B( 11-N , 20-C ) :   1.1304 B( 11-N , 24-C ) :   1.1057 B( 11-N , 25-C ) :   0.9607 
B( 12-C , 14-C ) :   1.3581 B( 12-C , 59-H ) :   0.9241 B( 13-N , 31-C ) :   1.1613 
B( 13-N , 35-C ) :   1.1614 B( 13-N , 36-C ) :   0.9411 B( 14-C , 18-C ) :   1.1183 
B( 15-N , 42-C ) :   1.1085 B( 15-N , 46-C ) :   1.1258 B( 15-N , 47-C ) :   0.9607 
B( 16-C , 51-C ) :   1.1682 B( 17-C , 60-H ) :   0.8877 B( 18-C , 19-C ) :   1.1159 
B( 19-C , 21-C ) :   1.2552 B( 20-C , 28-C ) :   1.6299 B( 20-C , 63-H ) :   0.9703 
B( 21-C , 26-C ) :   1.5753 B( 21-C , 64-H ) :   0.8934 B( 22-C , 23-C ) :   1.2884 
B( 22-C , 28-C ) :   1.2626 B( 22-C , 29-C ) :   1.2282 B( 23-C , 24-C ) :   1.6215 
B( 23-C , 65-H ) :   0.9703 B( 24-C , 66-H ) :   0.9696 B( 25-C , 67-H ) :   0.9761 
B( 25-C , 68-H ) :   0.9828 B( 25-C , 69-H ) :   0.9824 B( 26-C , 27-C ) :   1.2668 
B( 26-C , 70-H ) :   0.9664 B( 27-C , 29-C ) :   1.2044 B( 28-C , 71-H ) :   0.9720 
B( 29-C , 30-C ) :   1.2470 B( 30-C , 32-C ) :   1.2790 B( 31-C , 39-C ) :   1.5872 
B( 31-C , 72-H ) :   0.9681 B( 32-C , 37-C ) :   1.5795 B( 32-C , 73-H ) :   0.9787 
B( 33-C , 34-C ) :   1.3067 B( 33-C , 39-C ) :   1.3049 B( 33-C , 40-C ) :   1.1758 
B( 34-C , 35-C ) :   1.5852 B( 34-C , 74-H ) :   0.9696 B( 35-C , 75-H ) :   0.9681 
B( 36-C , 76-H ) :   0.9768 B( 36-C , 77-H ) :   0.9816 B( 36-C , 78-H ) :   0.9823 
B( 37-C , 38-C ) :   1.2854 B( 37-C , 79-H ) :   0.9764 B( 38-C , 40-C ) :   1.2338 
B( 39-C , 80-H ) :   0.9705 B( 40-C , 41-C ) :   1.2509 B( 41-C , 43-C ) :   1.1833 
B( 42-C , 50-C ) :   1.6316 B( 42-C , 81-H ) :   0.9696 B( 43-C , 48-C ) :   1.6698 
B( 43-C , 82-H ) :   0.9721 B( 44-C , 45-C ) :   1.2644 B( 44-C , 50-C ) :   1.2738 
B( 44-C , 51-C ) :   1.2582 B( 45-C , 46-C ) :   1.6333 B( 45-C , 83-H ) :   0.9718 
B( 46-C , 84-H ) :   0.9699 B( 47-C , 85-H ) :   0.9762 B( 47-C , 86-H ) :   0.9829 
B( 47-C , 87-H ) :   0.9824 B( 48-C , 49-C ) :   1.1867 B( 48-C , 88-H ) :   0.9748 
B( 49-C , 51-C ) :   1.2466 B( 50-C , 89-H ) :   0.9708 B( 54-H , 64-H ) :   0.1284 


-------
TIMINGS
-------

Total SCF time: 0 days 0 hours 22 min 52 sec 

Total time                  ....    1372.848 sec
Sum of individual times     ....    1369.011 sec  ( 99.7%)

Fock matrix formation       ....    1348.494 sec  ( 98.2%)
Diagonalization             ....       6.634 sec  (  0.5%)
Density matrix formation    ....       0.388 sec  (  0.0%)
Population analysis         ....       0.428 sec  (  0.0%)
Initial guess               ....       1.907 sec  (  0.1%)
Orbital Transformation      ....       0.000 sec  (  0.0%)
Orbital Orthonormalization  ....       0.000 sec  (  0.0%)
DIIS solution               ....       2.897 sec  (  0.2%)
SOSCF solution              ....       7.247 sec  (  0.5%)

Maximum memory used throughout the entire SCF-calculation: 302.7 MB


           ************************************************************
           *        Program running with 16 parallel MPI-processes    *
           *              working on a common directory               *
           ************************************************************

------------------------------------------------------------------------------
                                ORCA  MP2 
------------------------------------------------------------------------------

Freezing NCore=104 chemical core electrons

----------
MP2 ENERGY (disk based algorithm)
----------

Dimension of the basis                    ...  918
Memory devoted to MP2                     ... 2000 MB   
Data format for buffers                   ... DOUBLE
Compression type for matrix containers    ... UNCOMPRESSED

-------------------------------
PARTIAL EXCHANGE TRANSFORMATION
-------------------------------

Transformation type                        ... one-operator
Generation of integrals (i,mue|j,nue)      ... ON
Generation of integrals (mue,kappa|nue,tau)... OFF
Generation of integrals (i,mue|a,nue)      ... OFF
Dimension of the basis                     ...  918
Number of internal MOs                     ...  127 (  52- 178)
Pair cutoff                                ... 2.500e-12 Eh
Number of AO pairs in the trafo            ... 421821
Total Number of distinct AO pairs          ... 421821
Memory devoted for trafo                   ... 2000.0 MB 
Max. Number of MO pairs treated together   ...  311      
Number Format for Storage                  ... Double (8 Byte)
Integral package used                      ... LIBINT

Starting integral evaluation:
    ... done with AO integral generation
Closing buffer AOK     (38.26 GB; CompressionRatio= 1.32)
Collecting buffer AOK 
Number of MO pairs included in the trafo   ... 8128
------------------------
SORTING OF (i,mue|j,nue)
------------------------

IBATCH = 1 of  2
IBATCH = 2 of  2
Closing buffer KAO     (51.03 GB; CompressionRatio= 1.00)
Collecting buffer KAO 
N(AO-Batches) Done                         ...  86199286 
N(AO-Batches) Skipped                      ...  82269075 
N(IJ)-pairs Skipped                        ...         0 
TOTAL TIME for half transformation         ...  2678.615 sec
AO-integral generation                     ...   179.129 sec
Half transformation                        ...   316.544 sec
K-integral sorting                         ...  2042.274 sec
Process 13:   Internal MO 156
Process 10:   Internal MO 132
Process  4:   Internal MO  84

Finished integral transformation - now doing MP2 part

OPERATOR COMBINATION   0   0: ij=( 52..178, 52..178)
Process  1:   Internal MO  60
Process  7:   Internal MO 108
Process  0:   Internal MO  54
Process  2:   Internal MO  69
Process  0:   Internal MO  57
Process  1:   Internal MO  63
Process  5:   Internal MO  93
Process  2:   Internal MO  72
Process  8:   Internal MO 117
Process  3:   Internal MO  78
Process 14:   Internal MO 165
Process  1:   Internal MO  66
Process  4:   Internal MO  87
Process  2:   Internal MO  75
Process 11:   Internal MO 141
Process  3:   Internal MO  81
Process  9:   Internal MO 126
Process 12:   Internal MO 150
Process  5:   Internal MO  96
Process 10:   Internal MO 135
Process  4:   Internal MO  90
Process  6:   Internal MO 102
Process  8:   Internal MO 120
Process 15:   Internal MO 174
Process  7:   Internal MO 111
Process  9:   Internal MO 129
Process  5:   Internal MO  99
Process 13:   Internal MO 159
Process  6:   Internal MO 105
Process 11:   Internal MO 144
Process 14:   Internal MO 168
Process  8:   Internal MO 123
Process  7:   Internal MO 114
Process 12:   Internal MO 153
Process 10:   Internal MO 138
Process 15:   Internal MO 177
Process 11:   Internal MO 147
Process 13:   Internal MO 162
Process 14:   Internal MO 171
-----------------------------------------------
 MP2 CORRELATION ENERGY   :     -7.292027996 Eh
-----------------------------------------------


-------
TIMINGS
-------
Total time                : 2963.962 sec
Integral trafo            : 2680.450 sec ( 90.4%)
K(i,j)                    :    5.437 sec (  0.2%)
T(i,j)                    :    0.080 sec (  0.0%)

---------------------------------------
MP2 TOTAL ENERGY:    -2130.759876761 Eh
---------------------------------------

Maximum memory used throughout the entire MP2-calculation: 2275.3 MB

-------------------------   --------------------
FINAL SINGLE POINT ENERGY     -2130.759876760916
-------------------------   --------------------


                            ***************************************
                            *     ORCA property calculations      *
                            ***************************************


  WARNING: The energy has been calculated at the MP2 level but the densities
           used in the property calculations are still SCF densities
           MP2 response densities have not been calculated 
           use %mp2 Density relaxed end
           or  %mp2 Density unrelaxed end

                                    ---------------------
                                    Active property flags
                                    ---------------------
   (+) Dipole Moment


------------------------------------------------------------------------------
                       ORCA ELECTRIC PROPERTIES CALCULATION
------------------------------------------------------------------------------

Dipole Moment Calculation                       ... on
Quadrupole Moment Calculation                   ... off
Polarizability Calculation                      ... off
GBWName                                         ... /scratch/allen/tmpyp4_amber_gaff2/conf1/conf1/Conf11.orca.gbw
Electron density                                ... /scratch/allen/tmpyp4_amber_gaff2/conf1/conf1/Conf11.orca.scfp
The origin for moment calculation is the CENTER OF MASS  = (-0.001110, -0.004913  0.002513)

-------------
DIPOLE MOMENT
-------------
                                X             Y             Z
Electronic contribution:      2.96881      -4.24007      -0.09277
Nuclear contribution   :     -0.04281       0.15825       0.10934
                        -----------------------------------------
Total Dipole Moment    :      2.92601      -4.08183       0.01657
                        -----------------------------------------
Magnitude (a.u.)       :      5.02226
Magnitude (Debye)      :     12.76557



--------------------
Rotational spectrum 
--------------------
 
Rotational constants in cm-1:     0.001503     0.001478     0.000760 
Rotational constants in MHz :    45.069106    44.299506    22.782513 

 Dipole components along the rotational axes: 
x,y,z [a.u.] :     3.596388     3.505520     0.020599 
x,y,z [Debye]:     9.141292     8.910325     0.052359 

 

Timings for individual modules:

Sum of individual times         ...     4366.273 sec (=  72.771 min)
GTO integral calculation        ...        7.329 sec (=   0.122 min)   0.2 %
SCF iterations                  ...     1375.951 sec (=  22.933 min)  31.5 %
MP2 module                      ...     2982.993 sec (=  49.717 min)  68.3 %
                             ****ORCA TERMINATED NORMALLY****
TOTAL RUN TIME: 0 days 1 hours 12 minutes 49 seconds 596 msec
# of primitive gaussian functions

