
                                 *****************
                                 * O   R   C   A *
                                 *****************

                                            #,                                       
                                            ###                                      
                                            ####                                     
                                            #####                                    
                                            ######                                   
                                           ########,                                 
                                     ,,################,,,,,                         
                               ,,#################################,,                 
                          ,,##########################################,,             
                       ,#########################################, ''#####,          
                    ,#############################################,,   '####,        
                  ,##################################################,,,,####,       
                ,###########''''           ''''###############################       
              ,#####''   ,,,,##########,,,,          '''####'''          '####       
            ,##' ,,,,###########################,,,                        '##       
           ' ,,###''''                  '''############,,,                           
         ,,##''                                '''############,,,,        ,,,,,,###''
      ,#''                                            '''#######################'''  
     '                                                          ''''####''''         
             ,#######,   #######,   ,#######,      ##                                
            ,#'     '#,  ##    ##  ,#'     '#,    #''#        ######   ,####,        
            ##       ##  ##   ,#'  ##            #'  '#       #        #'  '#        
            ##       ##  #######   ##           ,######,      #####,   #    #        
            '#,     ,#'  ##    ##  '#,     ,#' ,#      #,         ##   #,  ,#        
             '#######'   ##     ##  '#######'  #'      '#     #####' # '####'        



                  #######################################################
                  #                        -***-                        #
                  #          Department of theory and spectroscopy      #
                  #    Directorship and core code : Frank Neese         #
                  #        Max Planck Institute fuer Kohlenforschung    #
                  #                Kaiser Wilhelm Platz 1               #
                  #                 D-45470 Muelheim/Ruhr               #
                  #                      Germany                        #
                  #                                                     #
                  #                  All rights reserved                #
                  #                        -***-                        #
                  #######################################################


                         Program Version 5.0.4 -  RELEASE  -


 With contributions from (in alphabetic order):
   Daniel Aravena         : Magnetic Suceptibility
   Michael Atanasov       : Ab Initio Ligand Field Theory (pilot matlab implementation)
   Alexander A. Auer      : GIAO ZORA, VPT2 properties, NMR spectrum
   Ute Becker             : Parallelization
   Giovanni Bistoni       : ED, misc. LED, open-shell LED, HFLD
   Martin Brehm           : Molecular dynamics
   Dmytro Bykov           : SCF Hessian
   Vijay G. Chilkuri      : MRCI spin determinant printing, contributions to CSF-ICE
   Dipayan Datta          : RHF DLPNO-CCSD density
   Achintya Kumar Dutta   : EOM-CC, STEOM-CC
   Dmitry Ganyushin       : Spin-Orbit,Spin-Spin,Magnetic field MRCI
   Miquel Garcia          : C-PCM and meta-GGA Hessian, CC/C-PCM, Gaussian charge scheme
   Yang Guo               : DLPNO-NEVPT2, F12-NEVPT2, CIM, IAO-localization
   Andreas Hansen         : Spin unrestricted coupled pair/coupled cluster methods
   Benjamin Helmich-Paris : MC-RPA, TRAH-SCF, COSX integrals
   Lee Huntington         : MR-EOM, pCC
   Robert Izsak           : Overlap fitted RIJCOSX, COSX-SCS-MP3, EOM
   Marcus Kettner         : VPT2
   Christian Kollmar      : KDIIS, OOCD, Brueckner-CCSD(T), CCSD density, CASPT2, CASPT2-K
   Simone Kossmann        : Meta GGA functionals, TD-DFT gradient, OOMP2, MP2 Hessian
   Martin Krupicka        : Initial AUTO-CI
   Lucas Lang             : DCDCAS
   Marvin Lechner         : AUTO-CI (C++ implementation), FIC-MRCC
   Dagmar Lenk            : GEPOL surface, SMD
   Dimitrios Liakos       : Extrapolation schemes; Compound Job, initial MDCI parallelization
   Dimitrios Manganas     : Further ROCIS development; embedding schemes
   Dimitrios Pantazis     : SARC Basis sets
   Anastasios Papadopoulos: AUTO-CI, single reference methods and gradients
   Taras Petrenko         : DFT Hessian,TD-DFT gradient, ASA, ECA, R-Raman, ABS, FL, XAS/XES, NRVS
   Peter Pinski           : DLPNO-MP2, DLPNO-MP2 Gradient
   Christoph Reimann      : Effective Core Potentials
   Marius Retegan         : Local ZFS, SOC
   Christoph Riplinger    : Optimizer, TS searches, QM/MM, DLPNO-CCSD(T), (RO)-DLPNO pert. Triples
   Tobias Risthaus        : Range-separated hybrids, TD-DFT gradient, RPA, STAB
   Michael Roemelt        : Original ROCIS implementation
   Masaaki Saitow         : Open-shell DLPNO-CCSD energy and density
   Barbara Sandhoefer     : DKH picture change effects
   Avijit Sen             : IP-ROCIS
   Kantharuban Sivalingam : CASSCF convergence, NEVPT2, FIC-MRCI
   Bernardo de Souza      : ESD, SOC TD-DFT
   Georgi Stoychev        : AutoAux, RI-MP2 NMR, DLPNO-MP2 response
   Willem Van den Heuvel  : Paramagnetic NMR
   Boris Wezisla          : Elementary symmetry handling
   Frank Wennmohs         : Technical directorship


 We gratefully acknowledge several colleagues who have allowed us to
 interface, adapt or use parts of their codes:
   Stefan Grimme, W. Hujo, H. Kruse, P. Pracht,  : VdW corrections, initial TS optimization,
                  C. Bannwarth, S. Ehlert          DFT functionals, gCP, sTDA/sTD-DF
   Ed Valeev, F. Pavosevic, A. Kumar             : LibInt (2-el integral package), F12 methods
   Garnet Chan, S. Sharma, J. Yang, R. Olivares  : DMRG
   Ulf Ekstrom                                   : XCFun DFT Library
   Mihaly Kallay                                 : mrcc  (arbitrary order and MRCC methods)
   Jiri Pittner, Ondrej Demel                    : Mk-CCSD
   Frank Weinhold                                : gennbo (NPA and NBO analysis)
   Christopher J. Cramer and Donald G. Truhlar   : smd solvation model
   Lars Goerigk                                  : TD-DFT with DH, B97 family of functionals
   V. Asgeirsson, H. Jonsson                     : NEB implementation
   FAccTs GmbH                                   : IRC, NEB, NEB-TS, DLPNO-Multilevel, CI-OPT
                                                   MM, QMMM, 2- and 3-layer-ONIOM, Crystal-QMMM,
                                                   LR-CPCM, SF, NACMEs, symmetry and pop. for TD-DFT,
                                                   nearIR, NL-DFT gradient (VV10), updates on ESD,
                                                   ML-optimized integration grids
   S Lehtola, MJT Oliveira, MAL Marques          : LibXC Library
   Liviu Ungur et al                             : ANISO software


 Your calculation uses the libint2 library for the computation of 2-el integrals
 For citations please refer to: http://libint.valeyev.net

 Your ORCA version has been built with support for libXC version: 5.1.0
 For citations please refer to: https://tddft.org/programs/libxc/

 This ORCA versions uses:
   CBLAS   interface :  Fast vector & matrix operations
   LAPACKE interface :  Fast linear algebra routines
   SCALAPACK package :  Parallel linear algebra routines
   Shared memory     :  Shared parallel matrices
   BLAS/LAPACK       :  OpenBLAS 0.3.15  USE64BITINT DYNAMIC_ARCH NO_AFFINITY Sandybridge SINGLE_THREADED
        Core in use  :  Sandybridge
   Copyright (c) 2011-2014, The OpenBLAS Project


================================================================================

----- Orbital basis set information -----
Your calculation utilizes the basis: cc-pVDZ 
       H, B-Ne : Obtained from the ccRepo (grant-hill.group.shef.ac.uk/ccrepo) Feb. 2017
                 T. H. Dunning, Jr., J. Chem. Phys. 90, 1007 (1989)
            He : Obtained from the ccRepo (grant-hill.group.shef.ac.uk/ccrepo) Feb. 2017
                 D. E. Woon, T. H. Dunning, Jr., J. Chem. Phys. 100, 2975 (1994)
  Li-Be, Na-Mg : Obtained from the ccRepo (grant-hill.group.shef.ac.uk/ccrepo) Feb. 2017
                 B. P. Prascher, D. E. Woon, K. A. Peterson, T. H. Dunning, Jr., A. K. Wilson, Theor. Chem. Acc. 128, 69 (2011)
         Al-Ar : Obtained from the ccRepo (grant-hill.group.shef.ac.uk/ccrepo) Feb. 2017
                 D. E. Woon, T. H. Dunning, Jr., J. Chem. Phys. 98, 1358 (1993)
            Ca : Obtained from the Peterson Research Group Website (tyr0.chem.wsu.edu/~kipeters) Feb. 2017
                 J. Koput, K. A. Peterson, J. Phys. Chem. 106, 9595 (2002)
         Sc-Zn : Obtained from the ccRepo (grant-hill.group.shef.ac.uk/ccrepo) Feb. 2017
                 N. B. Balabanov, K. A. Peterson, J. Chem. Phys. 123, 064107 (2005)
                 N. B. Balabanov, K. A. Peterson, J. Chem. Phys. 125, 074110 (2006)
         Ga-Kr : Obtained from the ccRepo (grant-hill.group.shef.ac.uk/ccrepo) Feb. 2017
                 A. K. Wilson, D. E. Woon, K. A. Peterson, T. H. Dunning, Jr., J. Chem. Phys. 110, 7667 (1999)

================================================================================
                                        WARNINGS
                       Please study these warnings very carefully!
================================================================================


WARNING: No MP2 level density has been requested!
         To caclulate MP2 level properties use
         %mp2 Density relaxed end
         or
         %mp2 Density unrelaxed end

WARNING: Post HF methods need fully converged wavefunctions
  ===> : Setting SCFConvForced true
         You can overwrite this default with %scf ConvForced false 


INFO   : the flag for use of the SHARK integral package has been found!

================================================================================
                                       INPUT FILE
================================================================================
NAME = /scratch/allen/tmpyp4_amber_gaff2/2.Mdgx/conf11/conf11/Conf3.orca
|  1> ! PAL2
|  2> ! mp2 cc-pvdz TightSCF  NoKeepInts
|  3> 
|  4> %scf
|  5>   MaxCore 2000
|  6> end
|  7> %mp2
|  8>   MaxCore 2000
|  9> end
| 10> * xyz 0 1
| 11>    C       -3.03400         6.49500         0.08500
| 12>    C        1.47400         4.04100         0.05700
| 13>    C       -2.80200         4.09300         0.04900
| 14>    C       -4.20300         4.00900         0.07700
| 15>    C       -4.96600         5.15900         0.10500
| 16>    C       -5.22800         7.59200         0.10400
| 17>    C        0.13200         4.30700         0.06100
| 18>    C       -0.56900         3.05600         0.04700
| 19>    C        1.64900         2.61800         0.02300
| 20>    C       -2.22800         5.37400         0.05100
| 21>    N       -4.38100         6.37900         0.11200
| 22>    N        0.38800         2.06700         0.02500
| 23>    N       -2.01000         0.39500        -0.07500
| 24>    N       -0.38800        -2.07400        -0.02700
| 25>    N        2.01000        -0.40100         0.06500
| 26>    C       -1.96000         2.86100         0.02400
| 27>    C       -2.62300         1.61500        -0.01800
| 28>    C       -5.57300        -4.32900         1.06600
| 29>    C       -4.07300         1.47100         0.05600
| 30>    C       -4.10600        -2.75600        -0.02600
| 31>    C       -4.99500        -2.75700        -1.11100
| 32>    C       -6.13200        -3.54200        -1.07600
| 33>    C       -7.65100        -5.11300         0.04000
| 34>    C       -4.32400         0.14100         0.03700
| 35>    C       -3.02500        -0.52000        -0.04800
| 36>    C       -4.42200        -3.56600         1.07500
| 37>    N       -6.40700        -4.31300         0.00100
| 38>    C       -2.86700        -1.92200        -0.04000
| 39>    C       -1.65000        -2.62400        -0.02700
| 40>    C        3.56800        -6.14200        -1.04000
| 41>    C       -1.47600        -4.04900        -0.03400
| 42>    C        2.80300        -4.09900        -0.00800
| 43>    C        3.65700        -4.38400         1.06900
| 44>    C        4.42700        -5.53000         1.05900
| 45>    C        5.24500        -7.58800         0.01400
| 46>    C       -0.13400        -4.31500        -0.02200
| 47>    C        0.56800        -3.06400        -0.02700
| 48>    C        2.77500        -5.01200        -1.07400
| 49>    N        4.37600        -6.39100         0.01700
| 50>    C        1.95900        -2.86900        -0.00900
| 51>    C        2.62100        -1.62200         0.00900
| 52>    C        5.54300         4.33900        -1.13000
| 53>    C        4.07000        -1.47900        -0.09400
| 54>    C        4.10400         2.75100        -0.02100
| 55>    C        5.02700         2.72900         1.03600
| 56>    C        6.16600         3.50900         0.97800
| 57>    C        7.61900         5.15300        -0.11500
| 58>    C        4.32100        -0.14800        -0.09200
| 59>    C        3.02500         0.51400         0.01500
| 60>    C        4.38700         3.58200        -1.11500
| 61>    C        2.86600         1.91600         0.01300
| 62>    N        6.41300         4.29600        -0.09500
| 63>    H       -2.63400         7.50100         0.10100
| 64>    H        2.27400         4.76600         0.08100
| 65>    H       -4.70500         3.04900         0.06700
| 66>    H       -6.04800         5.14400         0.11800
| 67>    H       -5.48700         7.83800        -0.92800
| 68>    H       -6.13100         7.39400         0.68100
| 69>    H       -4.66900         8.41200         0.55600
| 70>    H       -0.33200         5.28200         0.06900
| 71>    H       -1.15200         5.50500         0.04500
| 72>    H        0.18200         1.07200         0.00500
| 73>    H       -0.18300        -1.08000        -0.02100
| 74>    H       -5.86400        -4.96200         1.89500
| 75>    H       -4.79400         2.27200         0.13900
| 76>    H       -4.80000        -2.16000        -1.99400
| 77>    H       -6.84100        -3.58200        -1.89300
| 78>    H       -8.42800        -4.53600         0.54600
| 79>    H       -7.95600        -5.33700        -0.98100
| 80>    H       -7.45600        -6.03700         0.58400
| 81>    H       -5.28700        -0.34400         0.10000
| 82>    H       -3.78000        -3.60100         1.94700
| 83>    H        3.58700        -6.86800        -1.84300
| 84>    H       -2.27600        -4.77400        -0.05000
| 85>    H        3.71400        -3.72400         1.92600
| 86>    H        5.09200        -5.79500         1.87100
| 87>    H        6.20500        -7.32900        -0.43900
| 88>    H        5.39300        -7.91700         1.04200
| 89>    H        4.75900        -8.37300        -0.56400
| 90>    H        0.32900        -5.29000        -0.00800
| 91>    H        2.14600        -4.84200        -1.94000
| 92>    H        5.80800         4.98600        -1.95600
| 93>    H        4.78800        -2.28100        -0.18500
| 94>    H        4.86000         2.11400         1.91200
| 95>    H        6.90100         3.53100         1.77200
| 96>    H        7.38300         6.10900         0.35600
| 97>    H        8.41400         4.65200         0.43500
| 98>    H        7.92100         5.31000        -1.15000
| 99>    H        5.28300         0.33600        -0.17900
|100>    H        3.72000         3.63200        -1.96700
|101> *
|102> 
|103>                          ****END OF INPUT****
================================================================================

                       ****************************
                       * Single Point Calculation *
                       ****************************

---------------------------------
CARTESIAN COORDINATES (ANGSTROEM)
---------------------------------
  C     -3.034000    6.495000    0.085000
  C      1.474000    4.041000    0.057000
  C     -2.802000    4.093000    0.049000
  C     -4.203000    4.009000    0.077000
  C     -4.966000    5.159000    0.105000
  C     -5.228000    7.592000    0.104000
  C      0.132000    4.307000    0.061000
  C     -0.569000    3.056000    0.047000
  C      1.649000    2.618000    0.023000
  C     -2.228000    5.374000    0.051000
  N     -4.381000    6.379000    0.112000
  N      0.388000    2.067000    0.025000
  N     -2.010000    0.395000   -0.075000
  N     -0.388000   -2.074000   -0.027000
  N      2.010000   -0.401000    0.065000
  C     -1.960000    2.861000    0.024000
  C     -2.623000    1.615000   -0.018000
  C     -5.573000   -4.329000    1.066000
  C     -4.073000    1.471000    0.056000
  C     -4.106000   -2.756000   -0.026000
  C     -4.995000   -2.757000   -1.111000
  C     -6.132000   -3.542000   -1.076000
  C     -7.651000   -5.113000    0.040000
  C     -4.324000    0.141000    0.037000
  C     -3.025000   -0.520000   -0.048000
  C     -4.422000   -3.566000    1.075000
  N     -6.407000   -4.313000    0.001000
  C     -2.867000   -1.922000   -0.040000
  C     -1.650000   -2.624000   -0.027000
  C      3.568000   -6.142000   -1.040000
  C     -1.476000   -4.049000   -0.034000
  C      2.803000   -4.099000   -0.008000
  C      3.657000   -4.384000    1.069000
  C      4.427000   -5.530000    1.059000
  C      5.245000   -7.588000    0.014000
  C     -0.134000   -4.315000   -0.022000
  C      0.568000   -3.064000   -0.027000
  C      2.775000   -5.012000   -1.074000
  N      4.376000   -6.391000    0.017000
  C      1.959000   -2.869000   -0.009000
  C      2.621000   -1.622000    0.009000
  C      5.543000    4.339000   -1.130000
  C      4.070000   -1.479000   -0.094000
  C      4.104000    2.751000   -0.021000
  C      5.027000    2.729000    1.036000
  C      6.166000    3.509000    0.978000
  C      7.619000    5.153000   -0.115000
  C      4.321000   -0.148000   -0.092000
  C      3.025000    0.514000    0.015000
  C      4.387000    3.582000   -1.115000
  C      2.866000    1.916000    0.013000
  N      6.413000    4.296000   -0.095000
  H     -2.634000    7.501000    0.101000
  H      2.274000    4.766000    0.081000
  H     -4.705000    3.049000    0.067000
  H     -6.048000    5.144000    0.118000
  H     -5.487000    7.838000   -0.928000
  H     -6.131000    7.394000    0.681000
  H     -4.669000    8.412000    0.556000
  H     -0.332000    5.282000    0.069000
  H     -1.152000    5.505000    0.045000
  H      0.182000    1.072000    0.005000
  H     -0.183000   -1.080000   -0.021000
  H     -5.864000   -4.962000    1.895000
  H     -4.794000    2.272000    0.139000
  H     -4.800000   -2.160000   -1.994000
  H     -6.841000   -3.582000   -1.893000
  H     -8.428000   -4.536000    0.546000
  H     -7.956000   -5.337000   -0.981000
  H     -7.456000   -6.037000    0.584000
  H     -5.287000   -0.344000    0.100000
  H     -3.780000   -3.601000    1.947000
  H      3.587000   -6.868000   -1.843000
  H     -2.276000   -4.774000   -0.050000
  H      3.714000   -3.724000    1.926000
  H      5.092000   -5.795000    1.871000
  H      6.205000   -7.329000   -0.439000
  H      5.393000   -7.917000    1.042000
  H      4.759000   -8.373000   -0.564000
  H      0.329000   -5.290000   -0.008000
  H      2.146000   -4.842000   -1.940000
  H      5.808000    4.986000   -1.956000
  H      4.788000   -2.281000   -0.185000
  H      4.860000    2.114000    1.912000
  H      6.901000    3.531000    1.772000
  H      7.383000    6.109000    0.356000
  H      8.414000    4.652000    0.435000
  H      7.921000    5.310000   -1.150000
  H      5.283000    0.336000   -0.179000
  H      3.720000    3.632000   -1.967000

----------------------------
CARTESIAN COORDINATES (A.U.)
----------------------------
  NO LB      ZA    FRAG     MASS         X           Y           Z
   0 C     6.0000    0    12.011   -5.733429   12.273771    0.160627
   1 C     6.0000    0    12.011    2.785456    7.636383    0.107714
   2 C     6.0000    0    12.011   -5.295013    7.734649    0.092597
   3 C     6.0000    0    12.011   -7.942519    7.575912    0.145509
   4 C     6.0000    0    12.011   -9.384380    9.749097    0.198421
   5 C     6.0000    0    12.011   -9.879488   14.346801    0.196532
   6 C     6.0000    0    12.011    0.249444    8.139050    0.115273
   7 C     6.0000    0    12.011   -1.075254    5.775003    0.088817
   8 C     6.0000    0    12.011    3.116158    4.947303    0.043464
   9 C     6.0000    0    12.011   -4.210310   10.155388    0.096376
  10 N     7.0000    0    14.007   -8.278890   12.054563    0.211649
  11 N     7.0000    0    14.007    0.733214    3.906064    0.047243
  12 N     7.0000    0    14.007   -3.798350    0.746442   -0.141729
  13 N     7.0000    0    14.007   -0.733214   -3.919292   -0.051023
  14 N     7.0000    0    14.007    3.798350   -0.757780    0.122832
  15 C     6.0000    0    12.011   -3.703863    5.406506    0.045353
  16 C     6.0000    0    12.011   -4.956752    3.051908   -0.034015
  17 C     6.0000    0    12.011  -10.531444   -8.180624    2.014448
  18 C     6.0000    0    12.011   -7.696855    2.779787    0.105825
  19 C     6.0000    0    12.011   -7.759216   -5.208085   -0.049133
  20 C     6.0000    0    12.011   -9.439182   -5.209975   -2.099486
  21 C     6.0000    0    12.011  -11.587801   -6.693410   -2.033345
  22 C     6.0000    0    12.011  -14.458295   -9.662170    0.075589
  23 C     6.0000    0    12.011   -8.171176    0.266451    0.069920
  24 C     6.0000    0    12.011   -5.716422   -0.982658   -0.090707
  25 C     6.0000    0    12.011   -8.356369   -6.738763    2.031456
  26 N     7.0000    0    14.007  -12.107475   -8.150389    0.001890
  27 C     6.0000    0    12.011   -5.417845   -3.632054   -0.075589
  28 C     6.0000    0    12.011   -3.118048   -4.958641   -0.051023
  29 C     6.0000    0    12.011    6.742543  -11.606698   -1.965315
  30 C     6.0000    0    12.011   -2.789236   -7.651501   -0.064251
  31 C     6.0000    0    12.011    5.296902   -7.745987   -0.015118
  32 C     6.0000    0    12.011    6.910728   -8.284559    2.020117
  33 C     6.0000    0    12.011    8.365818  -10.450186    2.001220
  34 C     6.0000    0    12.011    9.911614  -14.339242    0.026456
  35 C     6.0000    0    12.011   -0.253223   -8.154168   -0.041574
  36 C     6.0000    0    12.011    1.073364   -5.790121   -0.051023
  37 C     6.0000    0    12.011    5.243990   -9.471307   -2.029566
  38 N     7.0000    0    14.007    8.269442  -12.077240    0.032125
  39 C     6.0000    0    12.011    3.701973   -5.421624   -0.017008
  40 C     6.0000    0    12.011    4.952972   -3.065136    0.017008
  41 C     6.0000    0    12.011   10.474752    8.199522   -2.135391
  42 C     6.0000    0    12.011    7.691185   -2.794905   -0.177634
  43 C     6.0000    0    12.011    7.755436    5.198637   -0.039684
  44 C     6.0000    0    12.011    9.499653    5.157063    1.957756
  45 C     6.0000    0    12.011   11.652051    6.631049    1.848152
  46 C     6.0000    0    12.011   14.397823    9.737759   -0.217319
  47 C     6.0000    0    12.011    8.165507   -0.279679   -0.173855
  48 C     6.0000    0    12.011    5.716422    0.971319    0.028346
  49 C     6.0000    0    12.011    8.290229    6.768999   -2.107045
  50 C     6.0000    0    12.011    5.415955    3.620715    0.024566
  51 N     7.0000    0    14.007   12.118814    8.118263   -0.179524
  52 H     1.0000    0     1.008   -4.977539   14.174836    0.190862
  53 H     1.0000    0     1.008    4.297237    9.006435    0.153068
  54 H     1.0000    0     1.008   -8.891161    5.761775    0.126612
  55 H     1.0000    0     1.008  -11.429064    9.720751    0.222988
  56 H     1.0000    0     1.008  -10.368927   14.811673   -1.753666
  57 H     1.0000    0     1.008  -11.585911   13.972635    1.286903
  58 H     1.0000    0     1.008   -8.823131   15.896376    1.050688
  59 H     1.0000    0     1.008   -0.627389    9.981533    0.130391
  60 H     1.0000    0     1.008   -2.176965   10.402942    0.085038
  61 H     1.0000    0     1.008    0.343930    2.025786    0.009449
  62 H     1.0000    0     1.008   -0.345820   -2.040904   -0.039684
  63 H     1.0000    0     1.008  -11.081354   -9.376821    3.581031
  64 H     1.0000    0     1.008   -9.059347    4.293458    0.262672
  65 H     1.0000    0     1.008   -9.070685   -4.081808   -3.768114
  66 H     1.0000    0     1.008  -12.927616   -6.768999   -3.577252
  67 H     1.0000    0     1.008  -15.926612   -8.571798    1.031790
  68 H     1.0000    0     1.008  -15.034661  -10.085468   -1.853821
  69 H     1.0000    0     1.008  -14.089798  -11.408277    1.103600
  70 H     1.0000    0     1.008   -9.990982   -0.650066    0.188973
  71 H     1.0000    0     1.008   -7.143165   -6.804904    3.679297
  72 H     1.0000    0     1.008    6.778448  -12.978639   -3.482765
  73 H     1.0000    0     1.008   -4.301017   -9.021553   -0.094486
  74 H     1.0000    0     1.008    7.018443   -7.037340    3.639613
  75 H     1.0000    0     1.008    9.622485  -10.950963    3.535678
  76 H     1.0000    0     1.008   11.725751  -13.849803   -0.829590
  77 H     1.0000    0     1.008   10.191293  -14.960962    1.969095
  78 H     1.0000    0     1.008    8.993207  -15.822677   -1.065806
  79 H     1.0000    0     1.008    0.621720   -9.996651   -0.015118
  80 H     1.0000    0     1.008    4.055352   -9.150054   -3.666069
  81 H     1.0000    0     1.008   10.975529    9.422175   -3.696304
  82 H     1.0000    0     1.008    9.048009   -4.310465   -0.349599
  83 H     1.0000    0     1.008    9.184069    3.994881    3.613156
  84 H     1.0000    0     1.008   13.041000    6.672623    3.348595
  85 H     1.0000    0     1.008   13.951848   11.544337    0.672743
  86 H     1.0000    0     1.008   15.900156    8.791006    0.822031
  87 H     1.0000    0     1.008   14.968521   10.034446   -2.173185
  88 H     1.0000    0     1.008    9.983423    0.634948   -0.338261
  89 H     1.0000    0     1.008    7.029781    6.863485   -3.717091

--------------------------------
INTERNAL COORDINATES (ANGSTROEM)
--------------------------------
 C      0   0   0     0.000000000000     0.00000000     0.00000000
 C      1   0   0     5.132734553822     0.00000000     0.00000000
 C      1   2   0     2.413446498268    55.92004191     0.00000000
 C      3   1   2     1.403795212985    87.89790702   178.68673145
 C      4   3   1     1.380381469015   120.14557071     0.13302695
 C      5   4   3     2.447066406945   152.55910180     1.64333036
 C      2   1   3     1.368114030335    17.35142572   359.61821008
 C      7   2   1     1.434084376876   108.05010202   179.86900753
 C      2   1   3     1.434123425651   125.57034343     0.62617815
 C      1   2   3     1.381098475852    25.74155922   358.22007066
 N      1   2   3     1.352255153438   146.50839161     2.42147013
 N      9   2   1     1.376127174356   106.58526707   358.92106387
 N     12   9   2     2.925062050624   168.53581413   171.12065651
 N     13  12   9     2.954513327098    91.55032014    11.12112580
 N     14  13  12     2.925371258490    88.43092389   359.84326247
 C      8   7   2     1.404790019896   127.24786865   181.11170171
 C     13  12   9     1.366535034311    81.72106996   188.00453233
 C     14  13  12     5.758810554272    80.56209567   166.76250791
 C     17  13  12     1.459010623676   111.08861209   183.82872609
 C     18  14  13     2.412235892279    27.27532823    36.33507194
 C     20  18  14     1.402692767501    87.95206320   148.94598259
 C     21  20  18     1.382106725257   120.14573887   359.70382047
 C     18  14  13     2.446510985056   144.15733107    82.80075377
 C     19  17  13     1.353610726908   106.29293361   359.75308708
 C     13  12   9     1.366813447402   172.21332906    33.46711076
 C     18  14  13     1.380960173213    15.08449437   309.23336894
 N     22  21  20     1.352773077792   120.73759875     0.27865223
 C     25  13  17     1.410897586645   125.60330303   182.37774668
 C     14  13  12     1.376642291955    80.24689249   177.85461986
 C     14  13  12     5.764089607215   164.51507311   312.20821879
 C     29  14  13     1.435600919476   106.58649366   178.76395472
 C     30  14  13     2.413316804732    27.10625047    82.12560436
 C     32  30  14     1.403734305344    87.90059683   149.76154742
 C     33  32  30     1.380694028378   120.14881443   359.74174632
 C     34  33  32     2.448777858443   152.49203239     2.45173620
 C     31  29  14     1.368160809262   108.16950133     0.70383075
 C     14  13  12     1.376239804685   169.26375223   353.09862627
 C     30  14  13     1.380907310430    14.68948582   353.70041132
 N     34  33  32     1.352658863128   120.85575621     0.19603406
 C     37  14  29     1.404717053360   126.01551127   180.90772073
 C     15  14  13     1.366491126938    81.61824056   183.09049352
 C      2   1   3     4.249062720177   144.00399027   151.28723355
 C     41  15  14     1.459677704153   111.05201287   175.08990246
 C     42   2   1     2.412953791518    41.78584867   179.87930518
 C     44  42   2     1.403446472082    87.95153797   233.97558675
 C     45  44  42     1.381696421071   120.11137308     0.19721020
 C     42   2   1     2.450019795838   135.97209175    90.19415428
 C     43  41  15     1.354461516618   106.26758155     0.30894352
 C     15  14  13     1.367461151185   171.87382904   332.35056460
 C     42   2   1     1.381886391857    32.59078432   228.73458437
 C      9   2   1     1.404988612053   126.98745415   179.92540140
 N     42   2   1     1.352765315936   113.57249190   117.93074347
 H      1   2   3     1.082724341649    96.88266899   180.00529768
 H      2   1   3     1.079907866440   109.24060797   180.63750754
 H      4   3   1     1.083376204280   121.01636696   179.50887990
 H      5   4   3     1.082182054924   122.77551120   179.42357227
 H      6   5   4     1.092071884081   104.46234229   100.05949863
 H      6   5   4     1.089744006636    84.71289114   209.55293506
 H      6   5   4     1.090497592845   133.83428201   322.33257565
 H      7   2   1     1.079807853278   126.66122480     0.10742131
 H     60   7   2     0.850120579683   130.62662523   177.61087575
 H     12   9   2     1.016297692608   125.29023241   180.00180175
 H     14  13  12     1.014936943854    44.97226959   359.42596618
 H     18  14  13     1.082871645210   128.03556573   234.20482432
 H     55   4   3     0.785387802299   158.17405654    17.29436164
 H     21  20  18     1.083569563987   121.05669627   180.67006309
 H     22  21  20     1.082483256222   122.73097286   180.59748951
 H     23  18  14     1.092105306278   103.92715769   234.93429879
 H     23  18  14     1.088871893291   134.19244188    12.25587044
 H     23  18  14     1.089833473518    84.85857450   125.45241208
 H     24  19  17     1.080075460327   127.28078426   178.44613241
 H     26  18  14     1.083408048706   118.76995697   244.94906660
 H     30  14  13     1.082703098730   127.99711412   279.66882698
 H     31  29  14     1.079759695488   125.22293469   180.92530585
 H     33  32  30     1.083188810873   121.01964473   180.74284758
 H     34  33  32     1.082494341787   122.70821597   180.59516895
 H     35  34  33     1.092652735319   105.73575241    97.19771933
 H     35  34  33     1.089462711615    84.05943581   206.43036958
 H     35  34  33     1.089268102902   133.08365142   318.50306270
 H     36  31  29     1.079439669458   126.61599965   178.98859863
 H     38  30  73     1.083742127999   118.77264435   359.90091293
 H     42   2   1     1.082178358682   119.31790784   334.56227393
 H     43  41  15     1.080281907652   126.36969097   182.06329380
 H     45  44  42     1.083277434455   121.10105945   179.58025624
 H     46  45  44     1.082194529648   122.72144639   179.46906377
 H     47  42   2     1.091546151109   106.65128841   315.16475048
 H     47  42   2     1.088818625851   132.46019523    94.52397119
 H     47  42   2     1.089531091801    83.63838232   206.04504406
 H     48  43  41     1.080402239909   127.23657387   181.62955349
 H     50  42   2     1.083186502870   118.77001737    94.71359229

---------------------------
INTERNAL COORDINATES (A.U.)
---------------------------
 C      0   0   0     0.000000000000     0.00000000     0.00000000
 C      1   0   0     9.699462624838     0.00000000     0.00000000
 C      1   2   0     4.560752920597    55.92004191     0.00000000
 C      3   1   2     2.652788500652    87.89790702   178.68673145
 C      4   3   1     2.608542936778   120.14557071     0.13302695
 C      5   4   3     4.624285340645   152.55910180     1.64333036
 C      2   1   3     2.585360837309    17.35142572   359.61821008
 C      7   2   1     2.710026725231   108.05010202   179.86900753
 C      2   1   3     2.710100516721   125.57034343     0.62617815
 C      1   2   3     2.609897883336    25.74155922   358.22007066
 N      1   2   3     2.555391903182   146.50839161     2.42147013
 N      9   2   1     2.600503484979   106.58526707   358.92106387
 N     12   9   2     5.527566200405   168.53581413   171.12065651
 N     13  12   9     5.583221047236    91.55032014    11.12112580
 N     14  13  12     5.528150518591    88.43092389   359.84326247
 C      8   7   2     2.654668413270   127.24786865   181.11170171
 C     13  12   9     2.582376967257    81.72106996   188.00453233
 C     14  13  12    10.882574804710    80.56209567   166.76250791
 C     17  13  12     2.757130505230   111.08861209   183.82872609
 C     18  14  13     4.558465206823    27.27532823    36.33507194
 C     20  18  14     2.650705180609    87.95206320   148.94598259
 C     21  20  18     2.611803198586   120.14573887   359.70382047
 C     18  14  13     4.623235745386   144.15733107    82.80075377
 C     19  17  13     2.557953565794   106.29293361   359.75308708
 C     13  12   9     2.582903091751   172.21332906    33.46711076
 C     18  14  13     2.609636529225    15.08449437   309.23336894
 N     22  21  20     2.556370638369   120.73759875     0.27865223
 C     25  13  17     2.666210041769   125.60330303   182.37774668
 C     14  13  12     2.601476916169    80.24689249   177.85461986
 C     14  13  12    10.892550769017   164.51507311   312.20821879
 C     29  14  13     2.712892575415   106.58649366   178.76395472
 C     30  14  13     4.560507835333    27.10625047    82.12560436
 C     32  30  14     2.652673401891    87.90059683   149.76154742
 C     33  32  30     2.609133588376   120.14881443   359.74174632
 C     34  33  32     4.627519515267   152.49203239     2.45173620
 C     31  29  14     2.585449236669   108.16950133     0.70383075
 C     14  13  12     2.600716325456   169.26375223   353.09862627
 C     30  14  13     2.609536633043    14.68948582   353.70041132
 N     34  33  32     2.556154803934   120.85575621     0.19603406
 C     37  14  29     2.654530526499   126.01551127   180.90772073
 C     15  14  13     2.582293994346    81.61824056   183.09049352
 C      2   1   3     8.029564866989   144.00399027   151.28723355
 C     41  15  14     2.758391104639   111.05201287   175.08990246
 C     42   2   1     4.559821839776    41.78584867   179.87930518
 C     44  42   2     2.652129475853    87.95153797   233.97558675
 C     45  44  42     2.611027836043   120.11137308     0.19721020
 C     42   2   1     4.629866436820   135.97209175    90.19415428
 C     43  41  15     2.559561325344   106.26758155     0.30894352
 C     15  14  13     2.584127074516   171.87382904   332.35056460
 C     42   2   1     2.611386828803    32.59078432   228.73458437
 C      9   2   1     2.655043698059   126.98745415   179.92540140
 N     42   2   1     2.556355970587   113.57249190   117.93074347
 H      1   2   3     2.046052484247    96.88266899   180.00529768
 H      2   1   3     2.040730117440   109.24060797   180.63750754
 H      4   3   1     2.047284326096   121.01636696   179.50887990
 H      5   4   3     2.045027710851   122.77551120   179.42357227
 H      6   5   4     2.063716779468   104.46234229   100.05949863
 H      6   5   4     2.059317728625    84.71289114   209.55293506
 H      6   5   4     2.060741800177   133.83428201   322.33257565
 H      7   2   1     2.040541119952   126.66122480     0.10742131
 H     60   7   2     1.606495076411   130.62662523   177.61087575
 H     12   9   2     1.920524309565   125.29023241   180.00180175
 H     14  13  12     1.917952867083    44.97226959   359.42596618
 H     18  14  13     2.046330847636   128.03556573   234.20482432
 H     55   4   3     1.484167855267   158.17405654    17.29436164
 H     21  20  18     2.047649722989   121.05669627   180.67006309
 H     22  21  20     2.045596898814   122.73097286   180.59748951
 H     23  18  14     2.063779938267   103.92715769   234.93429879
 H     23  18  14     2.057669673245   134.19244188    12.25587044
 H     23  18  14     2.059486796529    84.85857450   125.45241208
 H     24  19  17     2.041046823986   127.28078426   178.44613241
 H     26  18  14     2.047344503340   118.76995697   244.94906660
 H     30  14  13     2.046012340948   127.99711412   279.66882698
 H     31  29  14     2.040450114918   125.22293469   180.92530585
 H     33  32  30     2.046930203877   121.01964473   180.74284758
 H     34  33  32     2.045617847496   122.70821597   180.59516895
 H     35  34  33     2.064814429233   105.73575241    97.19771933
 H     35  34  33     2.058786158072    84.05943581   206.43036958
 H     35  34  33     2.058418400901   133.08365142   318.50306270
 H     36  31  29     2.039845353366   126.61599965   178.98859863
 H     38  30  73     2.047975821711   118.77264435   359.90091293
 H     42   2   1     2.045020725966   119.31790784   334.56227393
 H     43  41  15     2.041436952892   126.36969097   182.06329380
 H     45  44  42     2.047097678177   121.10105945   179.58025624
 H     46  45  44     2.045051284662   122.72144639   179.46906377
 H     47  42   2     2.062723288131   106.65128841   315.16475048
 H     47  42   2     2.057569012371   132.46019523    94.52397119
 H     47  42   2     2.058915377895    83.63838232   206.04504406
 H     48  43  41     2.041664347903   127.23657387   181.62955349
 H     50  42   2     2.046925842384   118.77001737    94.71359229

---------------------
BASIS SET INFORMATION
---------------------
There are 3 groups of distinct atoms

 Group   1 Type C   : 17s4p1d contracted to 3s2p1d pattern {881/31/1}
 Group   2 Type N   : 17s4p1d contracted to 3s2p1d pattern {881/31/1}
 Group   3 Type H   : 4s1p contracted to 2s1p pattern {31/1}

Atom   0C    basis set group =>   1
Atom   1N    basis set group =>   2
Atom   2C    basis set group =>   1
Atom   3N    basis set group =>   2
Atom   4C    basis set group =>   1
Atom   5N    basis set group =>   2
Atom   6C    basis set group =>   1
Atom   7N    basis set group =>   2
Atom   8C    basis set group =>   1
Atom   9N    basis set group =>   2
Atom  10C    basis set group =>   1
Atom  11N    basis set group =>   2
Atom  12C    basis set group =>   1
Atom  13N    basis set group =>   2
Atom  14C    basis set group =>   1
Atom  15N    basis set group =>   2
Atom  16C    basis set group =>   1
Atom  17C    basis set group =>   1
Atom  18C    basis set group =>   1
Atom  19C    basis set group =>   1
Atom  20C    basis set group =>   1
Atom  21C    basis set group =>   1
Atom  22C    basis set group =>   1
Atom  23C    basis set group =>   1
Atom  24C    basis set group =>   1
Atom  25C    basis set group =>   1
Atom  26C    basis set group =>   1
Atom  27C    basis set group =>   1
Atom  28C    basis set group =>   1
Atom  29C    basis set group =>   1
Atom  30C    basis set group =>   1
Atom  31C    basis set group =>   1
Atom  32C    basis set group =>   1
Atom  33C    basis set group =>   1
Atom  34C    basis set group =>   1
Atom  35C    basis set group =>   1
Atom  36C    basis set group =>   1
Atom  37C    basis set group =>   1
Atom  38C    basis set group =>   1
Atom  39C    basis set group =>   1
Atom  40C    basis set group =>   1
Atom  41C    basis set group =>   1
Atom  42C    basis set group =>   1
Atom  43C    basis set group =>   1
Atom  44C    basis set group =>   1
Atom  45C    basis set group =>   1
Atom  46C    basis set group =>   1
Atom  47C    basis set group =>   1
Atom  48C    basis set group =>   1
Atom  49C    basis set group =>   1
Atom  50C    basis set group =>   1
Atom  51C    basis set group =>   1
Atom  52H    basis set group =>   3
Atom  53H    basis set group =>   3
Atom  54H    basis set group =>   3
Atom  55H    basis set group =>   3
Atom  56H    basis set group =>   3
Atom  57H    basis set group =>   3
Atom  58H    basis set group =>   3
Atom  59H    basis set group =>   3
Atom  60H    basis set group =>   3
Atom  61H    basis set group =>   3
Atom  62H    basis set group =>   3
Atom  63H    basis set group =>   3
Atom  64H    basis set group =>   3
Atom  65H    basis set group =>   3
Atom  66H    basis set group =>   3
Atom  67H    basis set group =>   3
Atom  68H    basis set group =>   3
Atom  69H    basis set group =>   3
Atom  70H    basis set group =>   3
Atom  71H    basis set group =>   3
Atom  72H    basis set group =>   3
Atom  73H    basis set group =>   3
Atom  74H    basis set group =>   3
Atom  75H    basis set group =>   3
Atom  76H    basis set group =>   3
Atom  77H    basis set group =>   3
Atom  78H    basis set group =>   3
Atom  79H    basis set group =>   3
Atom  80H    basis set group =>   3
Atom  81H    basis set group =>   3
Atom  82H    basis set group =>   3
Atom  83H    basis set group =>   3
Atom  84H    basis set group =>   3
Atom  85H    basis set group =>   3
Atom  86H    basis set group =>   3
Atom  87H    basis set group =>   3
Atom  88H    basis set group =>   3
Atom  89H    basis set group =>   3


           ************************************************************
           *        Program running with 16 parallel MPI-processes    *
           *              working on a common directory               *
           ************************************************************
------------------------------------------------------------------------------
                           ORCA GTO INTEGRAL CALCULATION
------------------------------------------------------------------------------
------------------------------------------------------------------------------
                   ___                                                        
                  /   \      - P O W E R E D   B Y -                         
                 /     \                                                     
                 |  |  |   _    _      __       _____    __    __             
                 |  |  |  | |  | |    /  \     |  _  \  |  |  /  |          
                  \  \/   | |  | |   /    \    | | | |  |  | /  /          
                 / \  \   | |__| |  /  /\  \   | |_| |  |  |/  /          
                |  |  |   |  __  | /  /__\  \  |    /   |      \           
                |  |  |   | |  | | |   __   |  |    \   |  |\   \          
                \     /   | |  | | |  |  |  |  | |\  \  |  | \   \       
                 \___/    |_|  |_| |__|  |__|  |_| \__\ |__|  \__/        
                                                                              
                      - O R C A' S   B I G   F R I E N D -                    
                                      &                                       
                       - I N T E G R A L  F E E D E R -                       
                                                                              
 v1 FN, 2020, v2 2021                                                         
------------------------------------------------------------------------------


Reading SHARK input file /scratch/allen/tmpyp4_amber_gaff2/conf1/conf1/Conf3.orca.SHARKINP.tmp ... ok
----------------------
SHARK INTEGRAL PACKAGE
----------------------

Number of atoms                             ...     90
Number of basis functions                   ...   1230
Number of shells                            ...    738
Maximum angular momentum                    ...      2
Integral batch strategy                     ... SHARK/LIBINT Hybrid
RI-J (if used) integral strategy            ... SPLIT-RIJ (Revised 2003 algorithm where possible)
Printlevel                                  ...      1
Contraction scheme used                     ... PARTIAL GENERAL contraction
Coulomb Range Separation                    ... NOT USED
Exchange Range Separation                   ... NOT USED
Finite Nucleus Model                        ... NOT USED
Auxiliary Coulomb fitting basis             ... NOT available
Auxiliary J/K fitting basis                 ... NOT available
Auxiliary Correlation fitting basis         ... NOT available
Auxiliary 'external' fitting basis          ... NOT available
Integral threshold                          ...     2.500000e-11
Primitive cut-off                           ...     2.500000e-12
Primitive pair pre-selection threshold      ...     2.500000e-12

Calculating pre-screening integrals         ... done (  0.1 sec) Dimension = 738
Calculating pre-screening integrals (ORCA)  ... done (  0.3 sec) Dimension = 426
Organizing shell pair data                  ... done (  0.8 sec)
Shell pair information
Total number of shell pairs                 ...    272691
Shell pairs after pre-screening             ...     71738
Total number of primitive shell pairs       ...    422091
Primitive shell pairs kept                  ...     92638
          la=0 lb=0:  29444 shell pairs
          la=1 lb=0:  26041 shell pairs
          la=1 lb=1:   4700 shell pairs
          la=2 lb=0:   7894 shell pairs
          la=2 lb=1:   3130 shell pairs
          la=2 lb=2:    529 shell pairs

Calculating one electron integrals          ... done (  0.3 sec)
Calculating Nuclear repulsion               ... done (  0.0 sec) ENN=   6235.882419171633 Eh

SHARK setup successfully completed in   2.3 seconds

Maximum memory used throughout the entire GTOINT-calculation: 99.1 MB


           ************************************************************
           *        Program running with 16 parallel MPI-processes    *
           *              working on a common directory               *
           ************************************************************
-------------------------------------------------------------------------------
                                 ORCA SCF
-------------------------------------------------------------------------------

------------
SCF SETTINGS
------------
Hamiltonian:
 Ab initio Hamiltonian  Method          .... Hartree-Fock(GTOs)


General Settings:
 Integral files         IntName         .... /scratch/allen/tmpyp4_amber_gaff2/conf1/conf1/Conf3.orca
 Hartree-Fock type      HFTyp           .... RHF
 Total Charge           Charge          ....    0
 Multiplicity           Mult            ....    1
 Number of Electrons    NEL             ....  358
 Basis Dimension        Dim             ....  918
 Nuclear Repulsion      ENuc            ....   6235.8824191716 Eh

Convergence Acceleration:
 DIIS                   CNVDIIS         .... on
   Start iteration      DIISMaxIt       ....    12
   Startup error        DIISStart       ....  0.200000
   # of expansion vecs  DIISMaxEq       ....     5
   Bias factor          DIISBfac        ....   1.050
   Max. coefficient     DIISMaxC        ....  10.000
 Trust-Rad. Augm. Hess. CNVTRAH         .... auto
   Auto Start mean grad. ratio tolernc. ....  1.125000
   Auto Start start iteration           ....    20
   Auto Start num. interpolation iter.  ....    10
   Max. Number of Micro iterations      ....    16
   Max. Number of Macro iterations      .... Maxiter - #DIIS iter
   Number of Davidson start vectors     ....     2
   Converg. threshold I  (grad. norm)   ....   1.000e-05
   Converg. threshold II (energy diff.) ....   1.000e-08
   Grad. Scal. Fac. for Micro threshold ....   0.100
   Minimum threshold for Micro iter.    ....   0.010
   NR start threshold (gradient norm)   ....   0.001
   Initial trust radius                 ....   0.400
   Minimum AH scaling param. (alpha)    ....   1.000
   Maximum AH scaling param. (alpha)    .... 1000.000
   Orbital update algorithm             .... Taylor
   White noise on init. David. guess    .... on
   Maximum white noise                  ....   0.010
   Quad. conv. algorithm                .... NR
 SOSCF                  CNVSOSCF        .... on
   Start iteration      SOSCFMaxIt      ....   150
   Startup grad/error   SOSCFStart      ....  0.003300
 Level Shifting         CNVShift        .... on
   Level shift para.    LevelShift      ....    0.2500
   Turn off err/grad.   ShiftErr        ....    0.0010
 Zerner damping         CNVZerner       .... off
 Static damping         CNVDamp         .... on
   Fraction old density DampFac         ....    0.7000
   Max. Damping (<1)    DampMax         ....    0.9800
   Min. Damping (>=0)   DampMin         ....    0.0000
   Turn off err/grad.   DampErr         ....    0.1000
 Fernandez-Rico         CNVRico         .... off

SCF Procedure:
 Maximum # iterations   MaxIter         ....   125
 SCF integral mode      SCFMode         .... Direct
   Integral package                     .... SHARK and LIBINT hybrid scheme
 Reset frequency        DirectResetFreq ....    20
 Integral Threshold     Thresh          ....  2.500e-11 Eh
 Primitive CutOff       TCut            ....  2.500e-12 Eh

Convergence Tolerance:
 Convergence Check Mode ConvCheckMode   .... Total+1el-Energy
 Convergence forced     ConvForced      .... 1
 Energy Change          TolE            ....  1.000e-08 Eh
 1-El. energy change                    ....  1.000e-05 Eh
 Orbital Gradient       TolG            ....  1.000e-05
 Orbital Rotation angle TolX            ....  1.000e-05
 DIIS Error             TolErr          ....  5.000e-07


Diagonalization of the overlap matrix:
Smallest eigenvalue                        ... 1.603e-04
Time for diagonalization                   ...    0.354 sec
Threshold for overlap eigenvalues          ... 1.000e-08
Number of eigenvalues below threshold      ... 0
Time for construction of square roots      ...    0.249 sec
Total time needed                          ...    0.608 sec

Time for model grid setup =    1.124 sec

------------------------------
INITIAL GUESS: MODEL POTENTIAL
------------------------------
Loading Hartree-Fock densities                     ... done
Calculating cut-offs                               ... done
Initializing the effective Hamiltonian             ... done
Setting up the integral package (SHARK)            ... done
Starting the Coulomb interaction                   ... done (   1.2 sec)
Reading the grid                                   ... done
Mapping shells                                     ... done
Starting the XC term evaluation                    ... done (   0.2 sec)
Transforming the Hamiltonian                       ... done (   0.2 sec)
Diagonalizing the Hamiltonian                      ... done (   0.3 sec)
Back transforming the eigenvectors                 ... done (   0.1 sec)
Now organizing SCF variables                       ... done
                      ------------------
                      INITIAL GUESS DONE (   3.2 sec)
                      ------------------
--------------
SCF ITERATIONS
--------------
ITER       Energy         Delta-E        Max-DP      RMS-DP      [F,P]     Damp
               ***  Starting incremental Fock matrix formation  ***
  0  -2121.5482868498   0.000000000000 0.07999428  0.00130487  0.2310231 0.7000
  1  -2122.1855471596  -0.637260309808 0.06094947  0.00104725  0.1434294 0.7000
                               ***Turning on DIIS***
  2  -2122.5840824013  -0.398535241637 0.14273727  0.00239594  0.0803400 0.0000
  3  -2118.0599515918   4.524130809492 0.06261785  0.00065676  0.0433787 0.0000
  4  -2123.2930470999  -5.233095508112 0.02135415  0.00022492  0.0094278 0.0000
  5  -2123.4107693475  -0.117722247645 0.00966947  0.00013113  0.0047993 0.0000
  6  -2123.3947224872   0.016046860286 0.00526682  0.00008229  0.0022854 0.0000
  7  -2123.4862695724  -0.091547085207 0.00313361  0.00006434  0.0016437 0.0000
  8  -2123.4914856841  -0.005216111638 0.00335039  0.00006163  0.0015409 0.0000
  9  -2123.4659273049   0.025558379179 0.00270100  0.00004441  0.0012408 0.0000
 10  -2123.4730740542  -0.007146749300 0.00545028  0.00009393  0.0009747 0.0000
                      *** Initiating the SOSCF procedure ***
                           *** Shutting down DIIS ***
                      *** Re-Reading the Fockian *** 
                      *** Removing any level shift *** 
ITER      Energy       Delta-E        Grad      Rot      Max-DP    RMS-DP
 11  -2123.36765309   0.1054209667  0.000187  0.000187  0.000251  0.000005
               *** Restarting incremental Fock matrix formation ***
 12  -2123.43342089  -0.0657677998  0.000955  0.006389  0.001521  0.000034
 13  -2123.43353346  -0.0001125750  0.001161  0.031639  0.006923  0.000134
 14  -2123.43371868  -0.0001852183  0.000400  0.002021  0.000634  0.000012
 15  -2123.43373394  -0.0000152624  0.000190  0.002269  0.000486  0.000013
 16  -2123.43374045  -0.0000065113  0.000128  0.001980  0.000506  0.000008
 17  -2123.43374313  -0.0000026744  0.000129  0.002062  0.000294  0.000007
 18  -2123.43374437  -0.0000012423  0.000059  0.001202  0.000210  0.000004
 19  -2123.43374515  -0.0000007809  0.000046  0.001866  0.000268  0.000006
 20  -2123.43374569  -0.0000005402  0.000028  0.001035  0.000146  0.000003
 21  -2123.43374593  -0.0000002375  0.000027  0.001242  0.000177  0.000004
 22  -2123.43374616  -0.0000002329  0.000025  0.001063  0.000163  0.000003
 23  -2123.43374630  -0.0000001385  0.000016  0.000373  0.000064  0.000001
 24  -2123.43374635  -0.0000000508  0.000008  0.000244  0.000053  0.000001
 25  -2123.43374638  -0.0000000298  0.000008  0.000122  0.000040  0.000000
 26  -2123.43374640  -0.0000000152  0.000006  0.000072  0.000027  0.000000
 27  -2123.43374640  -0.0000000014  0.000003  0.000059  0.000019  0.000000
                  ***Gradient check signals convergence***
              ***Rediagonalizing the Fockian in SOSCF/NRSCF***

               *****************************************************
               *                     SUCCESS                       *
               *           SCF CONVERGED AFTER  28 CYCLES          *
               *****************************************************


----------------
TOTAL SCF ENERGY
----------------

Total Energy       :        -2123.43374640 Eh          -57781.56980 eV

Components:
Nuclear Repulsion  :         6235.88241917 Eh          169686.98735 eV
Electronic Energy  :        -8359.31616557 Eh         -227468.55714 eV
One Electron Energy:       -15312.16059040 Eh         -416665.07251 eV
Two Electron Energy:         6952.84442483 Eh          189196.51536 eV

Virial components:
Potential Energy   :        -4246.10347080 Eh         -115542.34950 eV
Kinetic Energy     :         2122.66972440 Eh           57760.77970 eV
Virial Ratio       :            2.00035993


---------------
SCF CONVERGENCE
---------------

  Last Energy change         ...   -1.0205e-09  Tolerance :   1.0000e-08
  Last MAX-Density change    ...    9.6777e-06  Tolerance :   1.0000e-07
  Last RMS-Density change    ...    1.6045e-07  Tolerance :   5.0000e-09
  Last Orbital Gradient      ...    1.7580e-06  Tolerance :   1.0000e-05
  Last Orbital Rotation      ...    3.2399e-05  Tolerance :   1.0000e-05

             **** THE GBW FILE WAS UPDATED (/scratch/allen/tmpyp4_amber_gaff2/conf1/conf1/Conf3.orca.gbw) ****
             **** DENSITY /scratch/allen/tmpyp4_amber_gaff2/conf1/conf1/Conf3.orca.scfp WAS UPDATED ****
             **** ENERGY FILE WAS UPDATED (/scratch/allen/tmpyp4_amber_gaff2/conf1/conf1/Conf3.orca.en.tmp) ****
             **** THE GBW FILE WAS UPDATED (/scratch/allen/tmpyp4_amber_gaff2/conf1/conf1/Conf3.orca.gbw) ****
             **** DENSITY /scratch/allen/tmpyp4_amber_gaff2/conf1/conf1/Conf3.orca.scfp WAS UPDATED ****
----------------
ORBITAL ENERGIES
----------------

  NO   OCC          E(Eh)            E(eV) 
   0   2.0000     -15.679825      -426.6697 
   1   2.0000     -15.632952      -425.3943 
   2   2.0000     -15.632524      -425.3826 
   3   2.0000     -15.587968      -424.1702 
   4   2.0000     -15.524781      -422.4508 
   5   2.0000     -15.515340      -422.1939 
   6   2.0000     -15.453892      -420.5218 
   7   2.0000     -15.439328      -420.1255 
   8   2.0000     -11.329326      -308.2866 
   9   2.0000     -11.328496      -308.2640 
  10   2.0000     -11.327937      -308.2488 
  11   2.0000     -11.298813      -307.4563 
  12   2.0000     -11.298713      -307.4536 
  13   2.0000     -11.292174      -307.2757 
  14   2.0000     -11.291852      -307.2669 
  15   2.0000     -11.287032      -307.1358 
  16   2.0000     -11.285670      -307.0987 
  17   2.0000     -11.282050      -307.0002 
  18   2.0000     -11.269452      -306.6574 
  19   2.0000     -11.263316      -306.4904 
  20   2.0000     -11.262313      -306.4631 
  21   2.0000     -11.250960      -306.1542 
  22   2.0000     -11.247274      -306.0539 
  23   2.0000     -11.237255      -305.7812 
  24   2.0000     -11.236773      -305.7681 
  25   2.0000     -11.230388      -305.5944 
  26   2.0000     -11.230266      -305.5911 
  27   2.0000     -11.230086      -305.5862 
  28   2.0000     -11.229716      -305.5761 
  29   2.0000     -11.210703      -305.0587 
  30   2.0000     -11.209204      -305.0179 
  31   2.0000     -11.194038      -304.6053 
  32   2.0000     -11.192320      -304.5585 
  33   2.0000     -11.191177      -304.5274 
  34   2.0000     -11.188651      -304.4587 
  35   2.0000     -11.187950      -304.4396 
  36   2.0000     -11.187087      -304.4161 
  37   2.0000     -11.174325      -304.0688 
  38   2.0000     -11.171775      -303.9995 
  39   2.0000     -11.171332      -303.9874 
  40   2.0000     -11.170720      -303.9708 
  41   2.0000     -11.167966      -303.8958 
  42   2.0000     -11.165023      -303.8157 
  43   2.0000     -11.161993      -303.7333 
  44   2.0000     -11.161190      -303.7114 
  45   2.0000     -11.156967      -303.5965 
  46   2.0000     -11.156181      -303.5751 
  47   2.0000     -11.150478      -303.4199 
  48   2.0000     -11.147410      -303.3364 
  49   2.0000     -11.135855      -303.0220 
  50   2.0000     -11.129563      -302.8508 
  51   2.0000     -11.117998      -302.5361 
  52   2.0000      -1.360396       -37.0183 
  53   2.0000      -1.320354       -35.9287 
  54   2.0000      -1.320209       -35.9247 
  55   2.0000      -1.280011       -34.8309 
  56   2.0000      -1.225852       -33.3571 
  57   2.0000      -1.210339       -32.9350 
  58   2.0000      -1.173579       -31.9347 
  59   2.0000      -1.150711       -31.3124 
  60   2.0000      -1.143630       -31.1198 
  61   2.0000      -1.110193       -30.2099 
  62   2.0000      -1.108829       -30.1728 
  63   2.0000      -1.082067       -29.4446 
  64   2.0000      -1.077273       -29.3141 
  65   2.0000      -1.044825       -28.4311 
  66   2.0000      -1.044598       -28.4249 
  67   2.0000      -1.041038       -28.3281 
  68   2.0000      -1.015304       -27.6278 
  69   2.0000      -1.014771       -27.6133 
  70   2.0000      -1.009095       -27.4589 
  71   2.0000      -0.993242       -27.0275 
  72   2.0000      -0.985647       -26.8208 
  73   2.0000      -0.981721       -26.7140 
  74   2.0000      -0.974127       -26.5073 
  75   2.0000      -0.962427       -26.1890 
  76   2.0000      -0.955023       -25.9875 
  77   2.0000      -0.947057       -25.7707 
  78   2.0000      -0.940050       -25.5801 
  79   2.0000      -0.916607       -24.9422 
  80   2.0000      -0.910615       -24.7791 
  81   2.0000      -0.898614       -24.4525 
  82   2.0000      -0.877336       -23.8735 
  83   2.0000      -0.871711       -23.7205 
  84   2.0000      -0.871249       -23.7079 
  85   2.0000      -0.861936       -23.4545 
  86   2.0000      -0.846543       -23.0356 
  87   2.0000      -0.838325       -22.8120 
  88   2.0000      -0.829645       -22.5758 
  89   2.0000      -0.796249       -21.6670 
  90   2.0000      -0.789462       -21.4823 
  91   2.0000      -0.776702       -21.1351 
  92   2.0000      -0.753032       -20.4910 
  93   2.0000      -0.734278       -19.9807 
  94   2.0000      -0.729415       -19.8484 
  95   2.0000      -0.727092       -19.7852 
  96   2.0000      -0.720542       -19.6069 
  97   2.0000      -0.718026       -19.5385 
  98   2.0000      -0.714371       -19.4390 
  99   2.0000      -0.700398       -19.0588 
 100   2.0000      -0.698208       -18.9992 
 101   2.0000      -0.694780       -18.9059 
 102   2.0000      -0.685375       -18.6500 
 103   2.0000      -0.684353       -18.6222 
 104   2.0000      -0.678792       -18.4709 
 105   2.0000      -0.674501       -18.3541 
 106   2.0000      -0.672931       -18.3114 
 107   2.0000      -0.661073       -17.9887 
 108   2.0000      -0.658102       -17.9079 
 109   2.0000      -0.652706       -17.7610 
 110   2.0000      -0.652080       -17.7440 
 111   2.0000      -0.646209       -17.5842 
 112   2.0000      -0.645763       -17.5721 
 113   2.0000      -0.638055       -17.3624 
 114   2.0000      -0.635293       -17.2872 
 115   2.0000      -0.628928       -17.1140 
 116   2.0000      -0.623273       -16.9601 
 117   2.0000      -0.620628       -16.8881 
 118   2.0000      -0.612786       -16.6748 
 119   2.0000      -0.612031       -16.6542 
 120   2.0000      -0.611694       -16.6450 
 121   2.0000      -0.611511       -16.6401 
 122   2.0000      -0.601634       -16.3713 
 123   2.0000      -0.589433       -16.0393 
 124   2.0000      -0.581239       -15.8163 
 125   2.0000      -0.580924       -15.8077 
 126   2.0000      -0.580221       -15.7886 
 127   2.0000      -0.571061       -15.5394 
 128   2.0000      -0.566371       -15.4117 
 129   2.0000      -0.560011       -15.2387 
 130   2.0000      -0.555717       -15.1218 
 131   2.0000      -0.547712       -14.9040 
 132   2.0000      -0.542640       -14.7660 
 133   2.0000      -0.540022       -14.6947 
 134   2.0000      -0.538395       -14.6505 
 135   2.0000      -0.536310       -14.5937 
 136   2.0000      -0.531825       -14.4717 
 137   2.0000      -0.517971       -14.0947 
 138   2.0000      -0.516528       -14.0554 
 139   2.0000      -0.514312       -13.9951 
 140   2.0000      -0.512070       -13.9341 
 141   2.0000      -0.509737       -13.8707 
 142   2.0000      -0.507201       -13.8016 
 143   2.0000      -0.505532       -13.7562 
 144   2.0000      -0.502441       -13.6721 
 145   2.0000      -0.495470       -13.4824 
 146   2.0000      -0.488224       -13.2852 
 147   2.0000      -0.480952       -13.0874 
 148   2.0000      -0.476449       -12.9648 
 149   2.0000      -0.467816       -12.7299 
 150   2.0000      -0.466132       -12.6841 
 151   2.0000      -0.456295       -12.4164 
 152   2.0000      -0.451543       -12.2871 
 153   2.0000      -0.445205       -12.1146 
 154   2.0000      -0.437850       -11.9145 
 155   2.0000      -0.427763       -11.6400 
 156   2.0000      -0.409114       -11.1326 
 157   2.0000      -0.390756       -10.6330 
 158   2.0000      -0.387803       -10.5526 
 159   2.0000      -0.384444       -10.4613 
 160   2.0000      -0.378381       -10.2963 
 161   2.0000      -0.372801       -10.1444 
 162   2.0000      -0.356499        -9.7008 
 163   2.0000      -0.356300        -9.6954 
 164   2.0000      -0.355620        -9.6769 
 165   2.0000      -0.341902        -9.3036 
 166   2.0000      -0.337470        -9.1830 
 167   2.0000      -0.324645        -8.8340 
 168   2.0000      -0.321534        -8.7494 
 169   2.0000      -0.305049        -8.3008 
 170   2.0000      -0.299319        -8.1449 
 171   2.0000      -0.286052        -7.7839 
 172   2.0000      -0.278112        -7.5678 
 173   2.0000      -0.263568        -7.1721 
 174   2.0000      -0.242260        -6.5922 
 175   2.0000      -0.189950        -5.1688 
 176   2.0000      -0.181419        -4.9367 
 177   2.0000      -0.080170        -2.1815 
 178   2.0000      -0.059711        -1.6248 
 179   0.0000       0.028514         0.7759 
 180   0.0000       0.065447         1.7809 
 181   0.0000       0.090264         2.4562 
 182   0.0000       0.106277         2.8919 
 183   0.0000       0.117277         3.1913 
 184   0.0000       0.137265         3.7352 
 185   0.0000       0.139399         3.7932 
 186   0.0000       0.140951         3.8355 
 187   0.0000       0.164575         4.4783 
 188   0.0000       0.165321         4.4986 
 189   0.0000       0.165625         4.5069 
 190   0.0000       0.175569         4.7775 
 191   0.0000       0.180389         4.9086 
 192   0.0000       0.183794         5.0013 
 193   0.0000       0.189277         5.1505 
 194   0.0000       0.205000         5.5783 
 195   0.0000       0.205545         5.5932 
 196   0.0000       0.208270         5.6673 
 197   0.0000       0.208739         5.6801 
 198   0.0000       0.216562         5.8930 
 199   0.0000       0.227889         6.2012 
 200   0.0000       0.233778         6.3614 
 201   0.0000       0.234015         6.3679 
 202   0.0000       0.239090         6.5060 
 203   0.0000       0.239739         6.5236 
 204   0.0000       0.246290         6.7019 
 205   0.0000       0.255098         6.9416 
 206   0.0000       0.256399         6.9770 
 207   0.0000       0.257798         7.0150 
 208   0.0000       0.259235         7.0541 
 209   0.0000       0.260674         7.0933 
 210   0.0000       0.264057         7.1854 
 211   0.0000       0.265733         7.2310 
 212   0.0000       0.268693         7.3115 
 213   0.0000       0.270274         7.3545 
 214   0.0000       0.273315         7.4373 
 215   0.0000       0.275832         7.5058 
 216   0.0000       0.278499         7.5784 
 217   0.0000       0.283146         7.7048 
 218   0.0000       0.286679         7.8009 
 219   0.0000       0.287725         7.8294 
 220   0.0000       0.290013         7.8917 
 221   0.0000       0.292770         7.9667 
 222   0.0000       0.294680         8.0186 
 223   0.0000       0.296936         8.0800 
 224   0.0000       0.297256         8.0887 
 225   0.0000       0.301825         8.2131 
 226   0.0000       0.306006         8.3268 
 227   0.0000       0.307525         8.3682 
 228   0.0000       0.320548         8.7226 
 229   0.0000       0.324672         8.8348 
 230   0.0000       0.328627         8.9424 
 231   0.0000       0.335542         9.1306 
 232   0.0000       0.342472         9.3191 
 233   0.0000       0.357277         9.7220 
 234   0.0000       0.373134        10.1535 
 235   0.0000       0.374371        10.1871 
 236   0.0000       0.390419        10.6238 
 237   0.0000       0.391517        10.6537 
 238   0.0000       0.398062        10.8318 
 239   0.0000       0.402165        10.9435 
 240   0.0000       0.411088        11.1863 
 241   0.0000       0.412203        11.2166 
 242   0.0000       0.415910        11.3175 
 243   0.0000       0.425277        11.5724 
 244   0.0000       0.429872        11.6974 
 245   0.0000       0.434150        11.8138 
 246   0.0000       0.438775        11.9397 
 247   0.0000       0.440434        11.9848 
 248   0.0000       0.441570        12.0157 
 249   0.0000       0.445003        12.1091 
 250   0.0000       0.448926        12.2159 
 251   0.0000       0.458805        12.4847 
 252   0.0000       0.464788        12.6475 
 253   0.0000       0.470337        12.7985 
 254   0.0000       0.472555        12.8589 
 255   0.0000       0.474607        12.9147 
 256   0.0000       0.476757        12.9732 
 257   0.0000       0.486461        13.2373 
 258   0.0000       0.489183        13.3113 
 259   0.0000       0.495003        13.4697 
 260   0.0000       0.503955        13.7133 
 261   0.0000       0.504602        13.7309 
 262   0.0000       0.506399        13.7798 
 263   0.0000       0.512193        13.9375 
 264   0.0000       0.515611        14.0305 
 265   0.0000       0.520026        14.1506 
 266   0.0000       0.526857        14.3365 
 267   0.0000       0.528529        14.3820 
 268   0.0000       0.535385        14.5686 
 269   0.0000       0.542355        14.7582 
 270   0.0000       0.554106        15.0780 
 271   0.0000       0.556577        15.1452 
 272   0.0000       0.559210        15.2169 
 273   0.0000       0.563604        15.3364 
 274   0.0000       0.567264        15.4360 
 275   0.0000       0.573546        15.6070 
 276   0.0000       0.574013        15.6197 
 277   0.0000       0.581495        15.8233 
 278   0.0000       0.584629        15.9086 
 279   0.0000       0.587076        15.9751 
 280   0.0000       0.592007        16.1093 
 281   0.0000       0.593732        16.1563 
 282   0.0000       0.595213        16.1966 
 283   0.0000       0.597765        16.2660 
 284   0.0000       0.598425        16.2840 
 285   0.0000       0.602421        16.3927 
 286   0.0000       0.606001        16.4901 
 287   0.0000       0.611238        16.6326 
 288   0.0000       0.618052        16.8180 
 289   0.0000       0.622558        16.9407 
 290   0.0000       0.625951        17.0330 
 291   0.0000       0.631234        17.1767 
 292   0.0000       0.636695        17.3254 
 293   0.0000       0.642357        17.4794 
 294   0.0000       0.646547        17.5934 
 295   0.0000       0.651883        17.7386 
 296   0.0000       0.655447        17.8356 
 297   0.0000       0.659473        17.9452 
 298   0.0000       0.664488        18.0816 
 299   0.0000       0.665749        18.1160 
 300   0.0000       0.670800        18.2534 
 301   0.0000       0.675639        18.3851 
 302   0.0000       0.680853        18.5269 
 303   0.0000       0.684476        18.6255 
 304   0.0000       0.685440        18.6518 
 305   0.0000       0.689194        18.7539 
 306   0.0000       0.693541        18.8722 
 307   0.0000       0.694985        18.9115 
 308   0.0000       0.697478        18.9793 
 309   0.0000       0.702357        19.1121 
 310   0.0000       0.702890        19.1266 
 311   0.0000       0.706517        19.2253 
 312   0.0000       0.710383        19.3305 
 313   0.0000       0.711140        19.3511 
 314   0.0000       0.711570        19.3628 
 315   0.0000       0.715610        19.4727 
 316   0.0000       0.717835        19.5333 
 317   0.0000       0.720370        19.6023 
 318   0.0000       0.721309        19.6278 
 319   0.0000       0.727092        19.7852 
 320   0.0000       0.728313        19.8184 
 321   0.0000       0.728484        19.8230 
 322   0.0000       0.730263        19.8715 
 323   0.0000       0.733234        19.9523 
 324   0.0000       0.736425        20.0391 
 325   0.0000       0.736618        20.0444 
 326   0.0000       0.743294        20.2261 
 327   0.0000       0.746035        20.3006 
 328   0.0000       0.751635        20.4530 
 329   0.0000       0.753976        20.5167 
 330   0.0000       0.758901        20.6507 
 331   0.0000       0.763818        20.7845 
 332   0.0000       0.767489        20.8844 
 333   0.0000       0.767845        20.8941 
 334   0.0000       0.770839        20.9756 
 335   0.0000       0.775020        21.0894 
 336   0.0000       0.775958        21.1149 
 337   0.0000       0.781043        21.2533 
 338   0.0000       0.785734        21.3809 
 339   0.0000       0.790503        21.5107 
 340   0.0000       0.792449        21.5636 
 341   0.0000       0.792873        21.5752 
 342   0.0000       0.799210        21.7476 
 343   0.0000       0.801295        21.8043 
 344   0.0000       0.804088        21.8804 
 345   0.0000       0.808687        22.0055 
 346   0.0000       0.811995        22.0955 
 347   0.0000       0.814893        22.1744 
 348   0.0000       0.816151        22.2086 
 349   0.0000       0.817260        22.2388 
 350   0.0000       0.821486        22.3538 
 351   0.0000       0.824254        22.4291 
 352   0.0000       0.827816        22.5260 
 353   0.0000       0.829154        22.5624 
 354   0.0000       0.830982        22.6122 
 355   0.0000       0.831617        22.6294 
 356   0.0000       0.834818        22.7166 
 357   0.0000       0.835733        22.7415 
 358   0.0000       0.838854        22.8264 
 359   0.0000       0.841459        22.8973 
 360   0.0000       0.842700        22.9310 
 361   0.0000       0.843485        22.9524 
 362   0.0000       0.845838        23.0164 
 363   0.0000       0.849644        23.1200 
 364   0.0000       0.852051        23.1855 
 365   0.0000       0.855911        23.2905 
 366   0.0000       0.863057        23.4850 
 367   0.0000       0.865017        23.5383 
 368   0.0000       0.867814        23.6144 
 369   0.0000       0.868729        23.6393 
 370   0.0000       0.870361        23.6837 
 371   0.0000       0.875368        23.8200 
 372   0.0000       0.876109        23.8401 
 373   0.0000       0.878392        23.9023 
 374   0.0000       0.882640        24.0179 
 375   0.0000       0.883794        24.0493 
 376   0.0000       0.890014        24.2185 
 377   0.0000       0.892638        24.2899 
 378   0.0000       0.894211        24.3327 
 379   0.0000       0.896028        24.3822 
 380   0.0000       0.897430        24.4203 
 381   0.0000       0.898722        24.4555 
 382   0.0000       0.901894        24.5418 
 383   0.0000       0.902663        24.5627 
 384   0.0000       0.906496        24.6670 
 385   0.0000       0.908015        24.7084 
 386   0.0000       0.911332        24.7986 
 387   0.0000       0.914850        24.8943 
 388   0.0000       0.916462        24.9382 
 389   0.0000       0.919224        25.0134 
 390   0.0000       0.924499        25.1569 
 391   0.0000       0.926269        25.2051 
 392   0.0000       0.927809        25.2470 
 393   0.0000       0.929141        25.2832 
 394   0.0000       0.931170        25.3384 
 395   0.0000       0.934727        25.4352 
 396   0.0000       0.939049        25.5528 
 397   0.0000       0.941937        25.6314 
 398   0.0000       0.948231        25.8027 
 399   0.0000       0.949924        25.8487 
 400   0.0000       0.951711        25.8974 
 401   0.0000       0.954318        25.9683 
 402   0.0000       0.955780        26.0081 
 403   0.0000       0.958812        26.0906 
 404   0.0000       0.962560        26.1926 
 405   0.0000       0.963105        26.2074 
 406   0.0000       0.972402        26.4604 
 407   0.0000       0.980034        26.6681 
 408   0.0000       0.981684        26.7130 
 409   0.0000       0.987541        26.8724 
 410   0.0000       0.991061        26.9681 
 411   0.0000       0.993994        27.0480 
 412   0.0000       0.999808        27.2062 
 413   0.0000       1.006920        27.3997 
 414   0.0000       1.013140        27.5689 
 415   0.0000       1.015654        27.6373 
 416   0.0000       1.019581        27.7442 
 417   0.0000       1.027229        27.9523 
 418   0.0000       1.031196        28.0603 
 419   0.0000       1.032958        28.1082 
 420   0.0000       1.039933        28.2980 
 421   0.0000       1.045144        28.4398 
 422   0.0000       1.053300        28.6617 
 423   0.0000       1.056255        28.7422 
 424   0.0000       1.060668        28.8622 
 425   0.0000       1.073166        29.2023 
 426   0.0000       1.077520        29.3208 
 427   0.0000       1.080034        29.3892 
 428   0.0000       1.081101        29.4182 
 429   0.0000       1.086361        29.5614 
 430   0.0000       1.089359        29.6430 
 431   0.0000       1.095440        29.8084 
 432   0.0000       1.099604        29.9217 
 433   0.0000       1.104913        30.0662 
 434   0.0000       1.109461        30.1900 
 435   0.0000       1.113121        30.2896 
 436   0.0000       1.115502        30.3544 
 437   0.0000       1.120123        30.4801 
 438   0.0000       1.122211        30.5369 
 439   0.0000       1.124007        30.5858 
 440   0.0000       1.126801        30.6618 
 441   0.0000       1.131465        30.7887 
 442   0.0000       1.135992        30.9119 
 443   0.0000       1.137320        30.9481 
 444   0.0000       1.139222        30.9998 
 445   0.0000       1.145511        31.1709 
 446   0.0000       1.146398        31.1951 
 447   0.0000       1.152304        31.3558 
 448   0.0000       1.155572        31.4447 
 449   0.0000       1.158579        31.5265 
 450   0.0000       1.160685        31.5838 
 451   0.0000       1.166340        31.7377 
 452   0.0000       1.168173        31.7876 
 453   0.0000       1.169626        31.8271 
 454   0.0000       1.173843        31.9419 
 455   0.0000       1.180950        32.1353 
 456   0.0000       1.183430        32.2028 
 457   0.0000       1.195689        32.5364 
 458   0.0000       1.201236        32.6873 
 459   0.0000       1.201912        32.7057 
 460   0.0000       1.202900        32.7326 
 461   0.0000       1.208126        32.8748 
 462   0.0000       1.211734        32.9730 
 463   0.0000       1.212492        32.9936 
 464   0.0000       1.215648        33.0795 
 465   0.0000       1.217752        33.1367 
 466   0.0000       1.222958        33.2784 
 467   0.0000       1.228602        33.4320 
 468   0.0000       1.229821        33.4651 
 469   0.0000       1.233847        33.5747 
 470   0.0000       1.237361        33.6703 
 471   0.0000       1.241079        33.7715 
 472   0.0000       1.244528        33.8653 
 473   0.0000       1.245511        33.8921 
 474   0.0000       1.249920        34.0120 
 475   0.0000       1.251238        34.0479 
 476   0.0000       1.254203        34.1286 
 477   0.0000       1.258965        34.2582 
 478   0.0000       1.260488        34.2996 
 479   0.0000       1.263807        34.3899 
 480   0.0000       1.268111        34.5070 
 481   0.0000       1.269420        34.5427 
 482   0.0000       1.272185        34.6179 
 483   0.0000       1.276446        34.7339 
 484   0.0000       1.282830        34.9076 
 485   0.0000       1.285927        34.9918 
 486   0.0000       1.289295        35.0835 
 487   0.0000       1.291773        35.1509 
 488   0.0000       1.295199        35.2441 
 489   0.0000       1.297329        35.3021 
 490   0.0000       1.303132        35.4600 
 491   0.0000       1.305225        35.5170 
 492   0.0000       1.310286        35.6547 
 493   0.0000       1.311424        35.6857 
 494   0.0000       1.317301        35.8456 
 495   0.0000       1.321552        35.9613 
 496   0.0000       1.322871        35.9972 
 497   0.0000       1.327819        36.1318 
 498   0.0000       1.329947        36.1897 
 499   0.0000       1.338061        36.4105 
 500   0.0000       1.339266        36.4433 
 501   0.0000       1.339556        36.4512 
 502   0.0000       1.342589        36.5337 
 503   0.0000       1.348023        36.6816 
 504   0.0000       1.348939        36.7065 
 505   0.0000       1.350595        36.7516 
 506   0.0000       1.353848        36.8401 
 507   0.0000       1.357418        36.9372 
 508   0.0000       1.360197        37.0128 
 509   0.0000       1.363724        37.1088 
[...]
      px      :     0.043611
      py      :     0.014046
 77 H s       :     0.884460  s :     0.884460
      pz      :     0.047979  p :     0.079296
      px      :     0.015024
      py      :     0.016292
 78 H s       :     0.884787  s :     0.884787
      pz      :     0.025886  p :     0.079270
      px      :     0.020454
      py      :     0.032929
 79 H s       :     0.910884  s :     0.910884
      pz      :     0.021805  p :     0.086294
      px      :     0.021655
      py      :     0.042834
 80 H s       :     0.864299  s :     0.864299
      pz      :     0.039395  p :     0.084833
      px      :     0.030286
      py      :     0.015151
 81 H s       :     0.886661  s :     0.886661
      pz      :     0.037838  p :     0.084139
      px      :     0.016175
      py      :     0.030127
 82 H s       :     0.916021  s :     0.916021
      pz      :     0.021962  p :     0.086734
      px      :     0.031656
      py      :     0.033117
 83 H s       :     0.873273  s :     0.873273
      pz      :     0.039289  p :     0.084126
      px      :     0.015272
      py      :     0.029565
 84 H s       :     0.886533  s :     0.886533
      pz      :     0.035776  p :     0.083421
      px      :     0.031703
      py      :     0.015941
 85 H s       :     0.892708  s :     0.892708
      pz      :     0.022493  p :     0.079791
      px      :     0.014063
      py      :     0.043235
 86 H s       :     0.890895  s :     0.890895
      pz      :     0.024734  p :     0.078836
      px      :     0.032988
      py      :     0.021115
 87 H s       :     0.889732  s :     0.889732
      pz      :     0.048029  p :     0.078752
      px      :     0.015586
      py      :     0.015138
 88 H s       :     0.910550  s :     0.910550
      pz      :     0.021600  p :     0.087006
      px      :     0.042948
      py      :     0.022458
 89 H s       :     0.870914  s :     0.870914
      pz      :     0.037973  p :     0.083872
      px      :     0.030518
      py      :     0.015381


                      *****************************
                      * MAYER POPULATION ANALYSIS *
                      *****************************

  NA   - Mulliken gross atomic population
  ZA   - Total nuclear charge
  QA   - Mulliken gross atomic charge
  VA   - Mayer's total valence
  BVA  - Mayer's bonded valence
  FA   - Mayer's free valence

  ATOM       NA         ZA         QA         VA         BVA        FA
  0 C      5.7687     6.0000     0.2313     3.8533     3.8533    -0.0000
  1 N      7.4548     7.0000    -0.4548     3.3532     3.3532    -0.0000
  2 C      6.0629     6.0000    -0.0629     3.9245     3.9245    -0.0000
  3 N      7.3407     7.0000    -0.3407     3.4549     3.4549    -0.0000
  4 C      6.1428     6.0000    -0.1428     4.2047     4.2047    -0.0000
  5 N      7.5690     7.0000    -0.5690     3.0963     3.0963    -0.0000
  6 C      6.0885     6.0000    -0.0885     3.9180     3.9180    -0.0000
  7 N      7.3411     7.0000    -0.3411     3.4322     3.4322    -0.0000
  8 C      5.7784     6.0000     0.2216     3.8542     3.8542     0.0000
  9 N      7.5623     7.0000    -0.5623     3.0768     3.0768    -0.0000
 10 C      5.8806     6.0000     0.1194     3.9090     3.9090    -0.0000
 11 N      7.4387     7.0000    -0.4387     3.3769     3.3769     0.0000
 12 C      6.0633     6.0000    -0.0633     3.8093     3.8093    -0.0000
 13 N      7.4293     7.0000    -0.4293     3.4286     3.4286     0.0000
 14 C      5.7873     6.0000     0.2127     3.8202     3.8202    -0.0000
 15 N      7.4407     7.0000    -0.4407     3.3733     3.3733    -0.0000
 16 C      5.7654     6.0000     0.2346     3.7787     3.7787    -0.0000
 17 C      6.1026     6.0000    -0.1026     3.9442     3.9442     0.0000
 18 C      6.1782     6.0000    -0.1782     3.7440     3.7440     0.0000
 19 C      5.7899     6.0000     0.2101     3.8926     3.8926    -0.0000
 20 C      5.7867     6.0000     0.2133     3.8292     3.8292    -0.0000
 21 C      6.0556     6.0000    -0.0556     3.7721     3.7721    -0.0000
 22 C      6.0908     6.0000    -0.0908     3.9825     3.9825    -0.0000
 23 C      6.0396     6.0000    -0.0396     3.9929     3.9929    -0.0000
 24 C      5.8072     6.0000     0.1928     3.8212     3.8212     0.0000
 25 C      5.8853     6.0000     0.1147     3.8920     3.8920    -0.0000
 26 C      6.0819     6.0000    -0.0819     3.9077     3.9077     0.0000
 27 C      5.7807     6.0000     0.2193     3.8629     3.8629    -0.0000
 28 C      6.0619     6.0000    -0.0619     3.9889     3.9889     0.0000
 29 C      6.1837     6.0000    -0.1837     3.7487     3.7487    -0.0000
 30 C      5.7544     6.0000     0.2456     3.7999     3.7999    -0.0000
 31 C      5.7699     6.0000     0.2301     3.8169     3.8169    -0.0000
 32 C      6.0614     6.0000    -0.0614     3.9233     3.9233    -0.0000
 33 C      6.0599     6.0000    -0.0599     3.9711     3.9711     0.0000
 34 C      6.0516     6.0000    -0.0516     3.9832     3.9832     0.0000
 35 C      5.7709     6.0000     0.2291     3.8164     3.8164    -0.0000
 36 C      5.8918     6.0000     0.1082     3.8747     3.8747    -0.0000
 37 C      6.0646     6.0000    -0.0646     3.9176     3.9176    -0.0000
 38 C      5.7691     6.0000     0.2309     3.8012     3.8012    -0.0000
 39 C      6.0573     6.0000    -0.0573     3.9830     3.9830    -0.0000
 40 C      6.1820     6.0000    -0.1820     3.7259     3.7259     0.0000
 41 C      5.7736     6.0000     0.2264     3.8882     3.8882     0.0000
 42 C      5.8026     6.0000     0.1974     3.8254     3.8254     0.0000
 43 C      6.0727     6.0000    -0.0727     3.8999     3.8999    -0.0000
 44 C      6.0893     6.0000    -0.0893     3.9847     3.9847     0.0000
 45 C      6.0617     6.0000    -0.0617     3.9918     3.9918    -0.0000
 46 C      5.7878     6.0000     0.2122     3.8284     3.8284    -0.0000
 47 C      5.8847     6.0000     0.1153     3.8926     3.8926    -0.0000
 48 C      6.0663     6.0000    -0.0663     3.9096     3.9096    -0.0000
 49 C      5.7623     6.0000     0.2377     3.8958     3.8958    -0.0000
 50 C      6.0459     6.0000    -0.0459     3.9903     3.9903    -0.0000
 51 C      6.1922     6.0000    -0.1922     3.7388     3.7388    -0.0000
 52 H      0.9687     1.0000     0.0313     0.9861     0.9861     0.0000
 53 H      1.0193     1.0000    -0.0193     0.9993     0.9993     0.0000
 54 H      0.9319     1.0000     0.0681     0.9437     0.9437     0.0000
 55 H      0.9701     1.0000     0.0299     0.9866     0.9866     0.0000
 56 H      0.9506     1.0000     0.0494     0.9694     0.9694    -0.0000
 57 H      0.9522     1.0000     0.0478     0.9824     0.9824     0.0000
 58 H      0.9538     1.0000     0.0462     0.9845     0.9845     0.0000
 59 H      1.0199     1.0000    -0.0199     0.9592     0.9592     0.0000
 60 H      0.9331     1.0000     0.0669     0.9255     0.9255     0.0000
 61 H      0.8291     1.0000     0.1709     1.0424     1.0424    -0.0000
 62 H      0.8246     1.0000     0.1754     1.0437     1.0437    -0.0000
 63 H      0.9451     1.0000     0.0549     0.9853     0.9853    -0.0000
 64 H      1.0449     1.0000    -0.0449     0.9691     0.9691    -0.0000
 65 H      0.9535     1.0000     0.0465     1.0101     1.0101    -0.0000
 66 H      0.9449     1.0000     0.0551     0.9855     0.9855    -0.0000
 67 H      0.9379     1.0000     0.0621     0.9719     0.9719     0.0000
 68 H      0.9430     1.0000     0.0570     0.9868     0.9868     0.0000
 69 H      0.9439     1.0000     0.0561     0.9828     0.9828    -0.0000
 70 H      1.0309     1.0000    -0.0309     0.9944     0.9944     0.0000
 71 H      0.9555     1.0000     0.0445     1.0058     1.0058     0.0000
 72 H      0.9285     1.0000     0.0715     0.9835     0.9835    -0.0000
 73 H      1.0079     1.0000    -0.0079     1.0010     1.0010     0.0000
 74 H      0.9395     1.0000     0.0605     1.0100     1.0100     0.0000
 75 H      0.9290     1.0000     0.0710     0.9838     0.9838    -0.0000
 76 H      0.9249     1.0000     0.0751     0.9721     0.9721    -0.0000
 77 H      0.9319     1.0000     0.0681     0.9855     0.9855    -0.0000
 78 H      0.9325     1.0000     0.0675     0.9854     0.9854    -0.0000
 79 H      1.0169     1.0000    -0.0169     0.9974     0.9974     0.0000
 80 H      0.9385     1.0000     0.0615     1.0072     1.0072    -0.0000
 81 H      0.9453     1.0000     0.0547     0.9856     0.9856     0.0000
 82 H      1.0249     1.0000    -0.0249     0.9935     0.9935    -0.0000
 83 H      0.9578     1.0000     0.0422     1.0083     1.0083    -0.0000
 84 H      0.9455     1.0000     0.0545     0.9852     0.9852     0.0000
 85 H      0.9389     1.0000     0.0611     0.9716     0.9716    -0.0000
 86 H      0.9443     1.0000     0.0557     0.9839     0.9839    -0.0000
 87 H      0.9425     1.0000     0.0575     0.9857     0.9857    -0.0000
 88 H      1.0144     1.0000    -0.0144     0.9968     0.9968    -0.0000
 89 H      0.9527     1.0000     0.0473     1.0076     1.0076    -0.0000

  Mayer bond orders larger than 0.100000
B(  0-C ,  1-N ) :   1.1045 B(  0-C , 17-C ) :   1.7308 B(  0-C , 52-H ) :   0.9583 
B(  1-N ,  8-C ) :   1.0918 B(  1-N , 10-C ) :   0.9773 B(  2-C , 12-C ) :   1.4854 
B(  2-C , 16-C ) :   1.3803 B(  2-C , 53-H ) :   0.9699 B(  3-N , 14-C ) :   1.2278 
B(  3-N , 16-C ) :   1.1767 B(  3-N , 61-H ) :   0.8969 B(  4-C ,  6-C ) :   1.2322 
B(  4-C , 17-C ) :   1.2319 B(  4-C , 18-C ) :   1.4918 B(  5-N , 19-C ) :   1.4658 
B(  5-N , 27-C ) :   1.3672 B(  6-C ,  8-C ) :   1.7414 B(  6-C , 54-H ) :   0.8255 
B(  7-N , 30-C ) :   1.1950 B(  7-N , 38-C ) :   1.1895 B(  7-N , 62-H ) :   0.8968 
B(  8-C , 55-H ) :   0.9578 B(  9-N , 41-C ) :   1.3958 B(  9-N , 49-C ) :   1.4235 
B( 10-C , 56-H ) :   0.9777 B( 10-C , 57-H ) :   0.9823 B( 10-C , 58-H ) :   0.9835 
B( 11-N , 20-C ) :   1.1304 B( 11-N , 24-C ) :   1.1057 B( 11-N , 25-C ) :   0.9607 
B( 12-C , 14-C ) :   1.3637 B( 12-C , 59-H ) :   0.9026 B( 13-N , 31-C ) :   1.1614 
B( 13-N , 35-C ) :   1.1612 B( 13-N , 36-C ) :   0.9412 B( 14-C , 18-C ) :   1.1164 
B( 15-N , 42-C ) :   1.1080 B( 15-N , 46-C ) :   1.1255 B( 15-N , 47-C ) :   0.9610 
B( 16-C , 51-C ) :   1.1686 B( 17-C , 60-H ) :   0.8609 B( 18-C , 19-C ) :   1.1142 
B( 19-C , 21-C ) :   1.2567 B( 20-C , 28-C ) :   1.6297 B( 20-C , 63-H ) :   0.9703 
B( 21-C , 26-C ) :   1.5764 B( 21-C , 64-H ) :   0.8727 B( 22-C , 23-C ) :   1.2888 
B( 22-C , 28-C ) :   1.2628 B( 22-C , 29-C ) :   1.2285 B( 23-C , 24-C ) :   1.6210 
B( 23-C , 65-H ) :   0.9703 B( 24-C , 66-H ) :   0.9696 B( 25-C , 67-H ) :   0.9760 
B( 25-C , 68-H ) :   0.9828 B( 25-C , 69-H ) :   0.9824 B( 26-C , 27-C ) :   1.2707 
B( 26-C , 70-H ) :   0.9646 B( 27-C , 29-C ) :   1.2051 B( 28-C , 71-H ) :   0.9720 
B( 29-C , 30-C ) :   1.2469 B( 30-C , 32-C ) :   1.2790 B( 31-C , 39-C ) :   1.5873 
B( 31-C , 72-H ) :   0.9681 B( 32-C , 37-C ) :   1.5798 B( 32-C , 73-H ) :   0.9786 
B( 33-C , 34-C ) :   1.3067 B( 33-C , 39-C ) :   1.3047 B( 33-C , 40-C ) :   1.1762 
B( 34-C , 35-C ) :   1.5853 B( 34-C , 74-H ) :   0.9696 B( 35-C , 75-H ) :   0.9681 
B( 36-C , 76-H ) :   0.9768 B( 36-C , 77-H ) :   0.9816 B( 36-C , 78-H ) :   0.9823 
B( 37-C , 38-C ) :   1.2851 B( 37-C , 79-H ) :   0.9764 B( 38-C , 40-C ) :   1.2339 
B( 39-C , 80-H ) :   0.9705 B( 40-C , 41-C ) :   1.2501 B( 41-C , 43-C ) :   1.1838 
B( 42-C , 50-C ) :   1.6321 B( 42-C , 81-H ) :   0.9696 B( 43-C , 48-C ) :   1.6693 
B( 43-C , 82-H ) :   0.9721 B( 44-C , 45-C ) :   1.2638 B( 44-C , 50-C ) :   1.2734 
B( 44-C , 51-C ) :   1.2586 B( 45-C , 46-C ) :   1.6337 B( 45-C , 83-H ) :   0.9718 
B( 46-C , 84-H ) :   0.9700 B( 47-C , 85-H ) :   0.9762 B( 47-C , 86-H ) :   0.9829 
B( 47-C , 87-H ) :   0.9824 B( 48-C , 49-C ) :   1.1872 B( 48-C , 88-H ) :   0.9748 
B( 49-C , 51-C ) :   1.2473 B( 50-C , 89-H ) :   0.9708 B( 54-H , 64-H ) :   0.1532 
B( 59-H , 60-H ) :   0.1078 

-------
TIMINGS
-------

Total SCF time: 0 days 0 hours 30 min 44 sec 

Total time                  ....    1844.845 sec
Sum of individual times     ....    1840.315 sec  ( 99.8%)

Fock matrix formation       ....    1816.951 sec  ( 98.5%)
Diagonalization             ....       6.883 sec  (  0.4%)
Density matrix formation    ....       0.698 sec  (  0.0%)
Population analysis         ....       0.526 sec  (  0.0%)
Initial guess               ....       2.072 sec  (  0.1%)
Orbital Transformation      ....       0.000 sec  (  0.0%)
Orbital Orthonormalization  ....       0.000 sec  (  0.0%)
DIIS solution               ....       3.536 sec  (  0.2%)
SOSCF solution              ....       8.525 sec  (  0.5%)

Maximum memory used throughout the entire SCF-calculation: 302.7 MB


           ************************************************************
           *        Program running with 16 parallel MPI-processes    *
           *              working on a common directory               *
           ************************************************************

------------------------------------------------------------------------------
                                ORCA  MP2 
------------------------------------------------------------------------------

Freezing NCore=104 chemical core electrons

----------
MP2 ENERGY (disk based algorithm)
----------

Dimension of the basis                    ...  918
Memory devoted to MP2                     ... 2000 MB   
Data format for buffers                   ... DOUBLE
Compression type for matrix containers    ... UNCOMPRESSED

-------------------------------
PARTIAL EXCHANGE TRANSFORMATION
-------------------------------

Transformation type                        ... one-operator
Generation of integrals (i,mue|j,nue)      ... ON
Generation of integrals (mue,kappa|nue,tau)... OFF
Generation of integrals (i,mue|a,nue)      ... OFF
Dimension of the basis                     ...  918
Number of internal MOs                     ...  127 (  52- 178)
Pair cutoff                                ... 2.500e-12 Eh
Number of AO pairs in the trafo            ... 421821
Total Number of distinct AO pairs          ... 421821
Memory devoted for trafo                   ... 2000.0 MB 
Max. Number of MO pairs treated together   ...  311      
Number Format for Storage                  ... Double (8 Byte)
Integral package used                      ... LIBINT

Starting integral evaluation:
    ... done with AO integral generation
Closing buffer AOK     (38.17 GB; CompressionRatio= 1.33)
Collecting buffer AOK 
Number of MO pairs included in the trafo   ... 8128
------------------------
SORTING OF (i,mue|j,nue)
------------------------

IBATCH = 1 of  2
IBATCH = 2 of  2
Closing buffer KAO     (51.03 GB; CompressionRatio= 1.00)
Collecting buffer KAO 
N(AO-Batches) Done                         ...  86084218 
N(AO-Batches) Skipped                      ...  82461401 
N(IJ)-pairs Skipped                        ...         0 
TOTAL TIME for half transformation         ...  3212.405 sec
AO-integral generation                     ...   213.139 sec
Half transformation                        ...   371.996 sec
K-integral sorting                         ...  2443.887 sec
Process 13:   Internal MO 156
Process 10:   Internal MO 132
Process  1:   Internal MO  60

Finished integral transformation - now doing MP2 part

OPERATOR COMBINATION   0   0: ij=( 52..178, 52..178)
Process  7:   Internal MO 108
Process  4:   Internal MO  84
Process  0:   Internal MO  54
Process  2:   Internal MO  69
Process  0:   Internal MO  57
Process  1:   Internal MO  63
Process  5:   Internal MO  93
Process  3:   Internal MO  78
Process  8:   Internal MO 117
Process  2:   Internal MO  72
Process  1:   Internal MO  66
Process  6:   Internal MO 102
Process  4:   Internal MO  87
Process 11:   Internal MO 141
Process 14:   Internal MO 165
Process  2:   Internal MO  75
Process  9:   Internal MO 126
Process  3:   Internal MO  81
Process  7:   Internal MO 111
Process 12:   Internal MO 150
Process  5:   Internal MO  96
Process  4:   Internal MO  90
Process 10:   Internal MO 135
Process 15:   Internal MO 174
Process  6:   Internal MO 105
Process  8:   Internal MO 120
Process  5:   Internal MO  99
Process  7:   Internal MO 114
Process  9:   Internal MO 129
Process 13:   Internal MO 159
Process 11:   Internal MO 144
Process 10:   Internal MO 138
Process 14:   Internal MO 168
Process 12:   Internal MO 153
Process  8:   Internal MO 123
Process 15:   Internal MO 177
Process 11:   Internal MO 147
Process 13:   Internal MO 162
Process 14:   Internal MO 171
-----------------------------------------------
 MP2 CORRELATION ENERGY   :     -7.293818805 Eh
-----------------------------------------------


-------
TIMINGS
-------
Total time                : 3768.148 sec
Integral trafo            : 3214.548 sec ( 85.3%)
K(i,j)                    :    6.193 sec (  0.2%)
T(i,j)                    :    0.157 sec (  0.0%)

---------------------------------------
MP2 TOTAL ENERGY:    -2130.727565204 Eh
---------------------------------------

Maximum memory used throughout the entire MP2-calculation: 2275.3 MB

-------------------------   --------------------
FINAL SINGLE POINT ENERGY     -2130.727565204013
-------------------------   --------------------


                            ***************************************
                            *     ORCA property calculations      *
                            ***************************************


  WARNING: The energy has been calculated at the MP2 level but the densities
           used in the property calculations are still SCF densities
           MP2 response densities have not been calculated 
           use %mp2 Density relaxed end
           or  %mp2 Density unrelaxed end

                                    ---------------------
                                    Active property flags
                                    ---------------------
   (+) Dipole Moment


------------------------------------------------------------------------------
                       ORCA ELECTRIC PROPERTIES CALCULATION
------------------------------------------------------------------------------

Dipole Moment Calculation                       ... on
Quadrupole Moment Calculation                   ... off
Polarizability Calculation                      ... off
GBWName                                         ... /scratch/allen/tmpyp4_amber_gaff2/conf1/conf1/Conf3.orca.gbw
Electron density                                ... /scratch/allen/tmpyp4_amber_gaff2/conf1/conf1/Conf3.orca.scfp
The origin for moment calculation is the CENTER OF MASS  = (-0.001311, -0.004944  0.002087)

-------------
DIPOLE MOMENT
-------------
                                X             Y             Z
Electronic contribution:      2.91696      -4.23504      -0.08149
Nuclear contribution   :     -0.03528       0.16163       0.10144
                        -----------------------------------------
Total Dipole Moment    :      2.88169      -4.07341       0.01995
                        -----------------------------------------
Magnitude (a.u.)       :      4.98970
Magnitude (Debye)      :     12.68282



--------------------
Rotational spectrum 
--------------------
 
Rotational constants in cm-1:     0.001504     0.001478     0.000760 
Rotational constants in MHz :    45.074981    44.300359    22.779985 

 Dipole components along the rotational axes: 
x,y,z [a.u.] :    -3.537017    -3.519392     0.023337 
x,y,z [Debye]:    -8.990384    -8.945582     0.059317 

 

Timings for individual modules:

Sum of individual times         ...     5640.012 sec (=  94.000 min)
GTO integral calculation        ...        5.103 sec (=   0.085 min)   0.1 %
SCF iterations                  ...     1846.866 sec (=  30.781 min)  32.7 %
MP2 module                      ...     3788.043 sec (=  63.134 min)  67.2 %
                             ****ORCA TERMINATED NORMALLY****
TOTAL RUN TIME: 0 days 1 hours 34 minutes 3 seconds 438 msec
# of primitive gaussian functions

