
                                 *****************
                                 * O   R   C   A *
                                 *****************

                                            #,                                       
                                            ###                                      
                                            ####                                     
                                            #####                                    
                                            ######                                   
                                           ########,                                 
                                     ,,################,,,,,                         
                               ,,#################################,,                 
                          ,,##########################################,,             
                       ,#########################################, ''#####,          
                    ,#############################################,,   '####,        
                  ,##################################################,,,,####,       
                ,###########''''           ''''###############################       
              ,#####''   ,,,,##########,,,,          '''####'''          '####       
            ,##' ,,,,###########################,,,                        '##       
           ' ,,###''''                  '''############,,,                           
         ,,##''                                '''############,,,,        ,,,,,,###''
      ,#''                                            '''#######################'''  
     '                                                          ''''####''''         
             ,#######,   #######,   ,#######,      ##                                
            ,#'     '#,  ##    ##  ,#'     '#,    #''#        ######   ,####,        
            ##       ##  ##   ,#'  ##            #'  '#       #        #'  '#        
            ##       ##  #######   ##           ,######,      #####,   #    #        
            '#,     ,#'  ##    ##  '#,     ,#' ,#      #,         ##   #,  ,#        
             '#######'   ##     ##  '#######'  #'      '#     #####' # '####'        



                  #######################################################
                  #                        -***-                        #
                  #          Department of theory and spectroscopy      #
                  #    Directorship and core code : Frank Neese         #
                  #        Max Planck Institute fuer Kohlenforschung    #
                  #                Kaiser Wilhelm Platz 1               #
                  #                 D-45470 Muelheim/Ruhr               #
                  #                      Germany                        #
                  #                                                     #
                  #                  All rights reserved                #
                  #                        -***-                        #
                  #######################################################


                         Program Version 5.0.4 -  RELEASE  -


 With contributions from (in alphabetic order):
   Daniel Aravena         : Magnetic Suceptibility
   Michael Atanasov       : Ab Initio Ligand Field Theory (pilot matlab implementation)
   Alexander A. Auer      : GIAO ZORA, VPT2 properties, NMR spectrum
   Ute Becker             : Parallelization
   Giovanni Bistoni       : ED, misc. LED, open-shell LED, HFLD
   Martin Brehm           : Molecular dynamics
   Dmytro Bykov           : SCF Hessian
   Vijay G. Chilkuri      : MRCI spin determinant printing, contributions to CSF-ICE
   Dipayan Datta          : RHF DLPNO-CCSD density
   Achintya Kumar Dutta   : EOM-CC, STEOM-CC
   Dmitry Ganyushin       : Spin-Orbit,Spin-Spin,Magnetic field MRCI
   Miquel Garcia          : C-PCM and meta-GGA Hessian, CC/C-PCM, Gaussian charge scheme
   Yang Guo               : DLPNO-NEVPT2, F12-NEVPT2, CIM, IAO-localization
   Andreas Hansen         : Spin unrestricted coupled pair/coupled cluster methods
   Benjamin Helmich-Paris : MC-RPA, TRAH-SCF, COSX integrals
   Lee Huntington         : MR-EOM, pCC
   Robert Izsak           : Overlap fitted RIJCOSX, COSX-SCS-MP3, EOM
   Marcus Kettner         : VPT2
   Christian Kollmar      : KDIIS, OOCD, Brueckner-CCSD(T), CCSD density, CASPT2, CASPT2-K
   Simone Kossmann        : Meta GGA functionals, TD-DFT gradient, OOMP2, MP2 Hessian
   Martin Krupicka        : Initial AUTO-CI
   Lucas Lang             : DCDCAS
   Marvin Lechner         : AUTO-CI (C++ implementation), FIC-MRCC
   Dagmar Lenk            : GEPOL surface, SMD
   Dimitrios Liakos       : Extrapolation schemes; Compound Job, initial MDCI parallelization
   Dimitrios Manganas     : Further ROCIS development; embedding schemes
   Dimitrios Pantazis     : SARC Basis sets
   Anastasios Papadopoulos: AUTO-CI, single reference methods and gradients
   Taras Petrenko         : DFT Hessian,TD-DFT gradient, ASA, ECA, R-Raman, ABS, FL, XAS/XES, NRVS
   Peter Pinski           : DLPNO-MP2, DLPNO-MP2 Gradient
   Christoph Reimann      : Effective Core Potentials
   Marius Retegan         : Local ZFS, SOC
   Christoph Riplinger    : Optimizer, TS searches, QM/MM, DLPNO-CCSD(T), (RO)-DLPNO pert. Triples
   Tobias Risthaus        : Range-separated hybrids, TD-DFT gradient, RPA, STAB
   Michael Roemelt        : Original ROCIS implementation
   Masaaki Saitow         : Open-shell DLPNO-CCSD energy and density
   Barbara Sandhoefer     : DKH picture change effects
   Avijit Sen             : IP-ROCIS
   Kantharuban Sivalingam : CASSCF convergence, NEVPT2, FIC-MRCI
   Bernardo de Souza      : ESD, SOC TD-DFT
   Georgi Stoychev        : AutoAux, RI-MP2 NMR, DLPNO-MP2 response
   Willem Van den Heuvel  : Paramagnetic NMR
   Boris Wezisla          : Elementary symmetry handling
   Frank Wennmohs         : Technical directorship


 We gratefully acknowledge several colleagues who have allowed us to
 interface, adapt or use parts of their codes:
   Stefan Grimme, W. Hujo, H. Kruse, P. Pracht,  : VdW corrections, initial TS optimization,
                  C. Bannwarth, S. Ehlert          DFT functionals, gCP, sTDA/sTD-DF
   Ed Valeev, F. Pavosevic, A. Kumar             : LibInt (2-el integral package), F12 methods
   Garnet Chan, S. Sharma, J. Yang, R. Olivares  : DMRG
   Ulf Ekstrom                                   : XCFun DFT Library
   Mihaly Kallay                                 : mrcc  (arbitrary order and MRCC methods)
   Jiri Pittner, Ondrej Demel                    : Mk-CCSD
   Frank Weinhold                                : gennbo (NPA and NBO analysis)
   Christopher J. Cramer and Donald G. Truhlar   : smd solvation model
   Lars Goerigk                                  : TD-DFT with DH, B97 family of functionals
   V. Asgeirsson, H. Jonsson                     : NEB implementation
   FAccTs GmbH                                   : IRC, NEB, NEB-TS, DLPNO-Multilevel, CI-OPT
                                                   MM, QMMM, 2- and 3-layer-ONIOM, Crystal-QMMM,
                                                   LR-CPCM, SF, NACMEs, symmetry and pop. for TD-DFT,
                                                   nearIR, NL-DFT gradient (VV10), updates on ESD,
                                                   ML-optimized integration grids
   S Lehtola, MJT Oliveira, MAL Marques          : LibXC Library
   Liviu Ungur et al                             : ANISO software


 Your calculation uses the libint2 library for the computation of 2-el integrals
 For citations please refer to: http://libint.valeyev.net

 Your ORCA version has been built with support for libXC version: 5.1.0
 For citations please refer to: https://tddft.org/programs/libxc/

 This ORCA versions uses:
   CBLAS   interface :  Fast vector & matrix operations
   LAPACKE interface :  Fast linear algebra routines
   SCALAPACK package :  Parallel linear algebra routines
   Shared memory     :  Shared parallel matrices
   BLAS/LAPACK       :  OpenBLAS 0.3.15  USE64BITINT DYNAMIC_ARCH NO_AFFINITY Sandybridge SINGLE_THREADED
        Core in use  :  Sandybridge
   Copyright (c) 2011-2014, The OpenBLAS Project


================================================================================

----- Orbital basis set information -----
Your calculation utilizes the basis: cc-pVDZ 
       H, B-Ne : Obtained from the ccRepo (grant-hill.group.shef.ac.uk/ccrepo) Feb. 2017
                 T. H. Dunning, Jr., J. Chem. Phys. 90, 1007 (1989)
            He : Obtained from the ccRepo (grant-hill.group.shef.ac.uk/ccrepo) Feb. 2017
                 D. E. Woon, T. H. Dunning, Jr., J. Chem. Phys. 100, 2975 (1994)
  Li-Be, Na-Mg : Obtained from the ccRepo (grant-hill.group.shef.ac.uk/ccrepo) Feb. 2017
                 B. P. Prascher, D. E. Woon, K. A. Peterson, T. H. Dunning, Jr., A. K. Wilson, Theor. Chem. Acc. 128, 69 (2011)
         Al-Ar : Obtained from the ccRepo (grant-hill.group.shef.ac.uk/ccrepo) Feb. 2017
                 D. E. Woon, T. H. Dunning, Jr., J. Chem. Phys. 98, 1358 (1993)
            Ca : Obtained from the Peterson Research Group Website (tyr0.chem.wsu.edu/~kipeters) Feb. 2017
                 J. Koput, K. A. Peterson, J. Phys. Chem. 106, 9595 (2002)
         Sc-Zn : Obtained from the ccRepo (grant-hill.group.shef.ac.uk/ccrepo) Feb. 2017
                 N. B. Balabanov, K. A. Peterson, J. Chem. Phys. 123, 064107 (2005)
                 N. B. Balabanov, K. A. Peterson, J. Chem. Phys. 125, 074110 (2006)
         Ga-Kr : Obtained from the ccRepo (grant-hill.group.shef.ac.uk/ccrepo) Feb. 2017
                 A. K. Wilson, D. E. Woon, K. A. Peterson, T. H. Dunning, Jr., J. Chem. Phys. 110, 7667 (1999)

================================================================================
                                        WARNINGS
                       Please study these warnings very carefully!
================================================================================


WARNING: No MP2 level density has been requested!
         To caclulate MP2 level properties use
         %mp2 Density relaxed end
         or
         %mp2 Density unrelaxed end

WARNING: Post HF methods need fully converged wavefunctions
  ===> : Setting SCFConvForced true
         You can overwrite this default with %scf ConvForced false 


INFO   : the flag for use of the SHARK integral package has been found!

================================================================================
                                       INPUT FILE
================================================================================
NAME = /scratch/allen/tmpyp4_amber_gaff2/2.Mdgx/conf11/conf11/Conf214.orca
|  1> ! PAL2
|  2> ! mp2 cc-pvdz TightSCF  NoKeepInts
|  3> 
|  4> %scf
|  5>   MaxCore 2000
|  6> end
|  7> %mp2
|  8>   MaxCore 2000
|  9> end
| 10> * xyz 0 1
| 11>    C       -4.81400         5.26600         0.68100
| 12>    C        1.47400         4.04100         0.05700
| 13>    C       -2.80200         4.09300         0.04900
| 14>    C       -2.36800         5.27500        -0.57000
| 15>    C       -3.16200         6.40400        -0.54200
| 16>    C       -5.17700         7.62600         0.12000
| 17>    C        0.13200         4.30700         0.06100
| 18>    C       -0.56900         3.05600         0.04700
| 19>    C        1.64900         2.61800         0.02300
| 20>    C       -4.05300         4.11300         0.68400
| 21>    N       -4.36700         6.38900         0.07400
| 22>    N        0.38800         2.06700         0.02500
| 23>    N       -2.01000         0.39500        -0.07500
| 24>    N       -0.38800        -2.07400        -0.02700
| 25>    N        2.01000        -0.40100         0.06500
| 26>    C       -1.96000         2.86100         0.02400
| 27>    C       -2.62300         1.61500        -0.01800
| 28>    C       -5.57300        -4.32900         1.06600
| 29>    C       -4.07300         1.47100         0.05600
| 30>    C       -4.10600        -2.75600        -0.02600
| 31>    C       -4.99500        -2.75700        -1.11100
| 32>    C       -6.13200        -3.54200        -1.07600
| 33>    C       -7.65100        -5.11300         0.04000
| 34>    C       -4.32400         0.14100         0.03700
| 35>    C       -3.02500        -0.52000        -0.04800
| 36>    C       -4.42200        -3.56600         1.07500
| 37>    N       -6.40700        -4.31300         0.00100
| 38>    C       -2.86700        -1.92200        -0.04000
| 39>    C       -1.65000        -2.62400        -0.02700
| 40>    C        3.56800        -6.14200        -1.04000
| 41>    C       -1.47600        -4.04900        -0.03400
| 42>    C        2.80300        -4.09900        -0.00800
| 43>    C        3.65700        -4.38400         1.06900
| 44>    C        4.42700        -5.53000         1.05900
| 45>    C        5.24500        -7.58800         0.01400
| 46>    C       -0.13400        -4.31500        -0.02200
| 47>    C        0.56800        -3.06400        -0.02700
| 48>    C        2.77500        -5.01200        -1.07400
| 49>    N        4.37600        -6.39100         0.01700
| 50>    C        1.95900        -2.86900        -0.00900
| 51>    C        2.62100        -1.62200         0.00900
| 52>    C        5.54300         4.33900        -1.13000
| 53>    C        4.07000        -1.47900        -0.09400
| 54>    C        4.10400         2.75100        -0.02100
| 55>    C        5.02700         2.72900         1.03600
| 56>    C        6.16600         3.50900         0.97800
| 57>    C        7.61900         5.15300        -0.11500
| 58>    C        4.32100        -0.14800        -0.09200
| 59>    C        3.02500         0.51400         0.01500
| 60>    C        4.38700         3.58200        -1.11500
| 61>    C        2.86600         1.91600         0.01300
| 62>    N        6.41300         4.29600        -0.09500
| 63>    H       -5.79000         5.32300         1.14800
| 64>    H        2.27400         4.76600         0.08100
| 65>    H       -1.40800         5.32600        -1.06900
| 66>    H       -2.86700         7.34100        -0.99700
| 67>    H       -4.86400         8.22600         0.97700
| 68>    H       -5.02100         8.18300        -0.80400
| 69>    H       -6.22800         7.35400         0.21800
| 70>    H       -0.33200         5.28200         0.06900
| 71>    H       -4.45000         3.22800         1.16800
| 72>    H        0.18200         1.07200         0.00500
| 73>    H       -0.18300        -1.08000        -0.02100
| 74>    H       -5.86400        -4.96200         1.89500
| 75>    H       -4.79400         2.27200         0.13900
| 76>    H       -4.80000        -2.16000        -1.99400
| 77>    H       -6.84100        -3.58200        -1.89300
| 78>    H       -8.42800        -4.53600         0.54600
| 79>    H       -7.95600        -5.33700        -0.98100
| 80>    H       -7.45600        -6.03700         0.58400
| 81>    H       -5.28700        -0.34400         0.10000
| 82>    H       -3.78000        -3.60100         1.94700
| 83>    H        3.58700        -6.86800        -1.84300
| 84>    H       -2.27600        -4.77400        -0.05000
| 85>    H        3.71400        -3.72400         1.92600
| 86>    H        5.09200        -5.79500         1.87100
| 87>    H        6.20500        -7.32900        -0.43900
| 88>    H        5.39300        -7.91700         1.04200
| 89>    H        4.75900        -8.37300        -0.56400
| 90>    H        0.32900        -5.29000        -0.00800
| 91>    H        2.14600        -4.84200        -1.94000
| 92>    H        5.80800         4.98600        -1.95600
| 93>    H        4.78800        -2.28100        -0.18500
| 94>    H        4.86000         2.11400         1.91200
| 95>    H        6.90100         3.53100         1.77200
| 96>    H        7.38300         6.10900         0.35600
| 97>    H        8.41400         4.65200         0.43500
| 98>    H        7.92100         5.31000        -1.15000
| 99>    H        5.28300         0.33600        -0.17900
|100>    H        3.72000         3.63200        -1.96700
|101> *
|102> 
|103>                          ****END OF INPUT****
================================================================================

                       ****************************
                       * Single Point Calculation *
                       ****************************

---------------------------------
CARTESIAN COORDINATES (ANGSTROEM)
---------------------------------
  C     -4.814000    5.266000    0.681000
  C      1.474000    4.041000    0.057000
  C     -2.802000    4.093000    0.049000
  C     -2.368000    5.275000   -0.570000
  C     -3.162000    6.404000   -0.542000
  C     -5.177000    7.626000    0.120000
  C      0.132000    4.307000    0.061000
  C     -0.569000    3.056000    0.047000
  C      1.649000    2.618000    0.023000
  C     -4.053000    4.113000    0.684000
  N     -4.367000    6.389000    0.074000
  N      0.388000    2.067000    0.025000
  N     -2.010000    0.395000   -0.075000
  N     -0.388000   -2.074000   -0.027000
  N      2.010000   -0.401000    0.065000
  C     -1.960000    2.861000    0.024000
  C     -2.623000    1.615000   -0.018000
  C     -5.573000   -4.329000    1.066000
  C     -4.073000    1.471000    0.056000
  C     -4.106000   -2.756000   -0.026000
  C     -4.995000   -2.757000   -1.111000
  C     -6.132000   -3.542000   -1.076000
  C     -7.651000   -5.113000    0.040000
  C     -4.324000    0.141000    0.037000
  C     -3.025000   -0.520000   -0.048000
  C     -4.422000   -3.566000    1.075000
  N     -6.407000   -4.313000    0.001000
  C     -2.867000   -1.922000   -0.040000
  C     -1.650000   -2.624000   -0.027000
  C      3.568000   -6.142000   -1.040000
  C     -1.476000   -4.049000   -0.034000
  C      2.803000   -4.099000   -0.008000
  C      3.657000   -4.384000    1.069000
  C      4.427000   -5.530000    1.059000
  C      5.245000   -7.588000    0.014000
  C     -0.134000   -4.315000   -0.022000
  C      0.568000   -3.064000   -0.027000
  C      2.775000   -5.012000   -1.074000
  N      4.376000   -6.391000    0.017000
  C      1.959000   -2.869000   -0.009000
  C      2.621000   -1.622000    0.009000
  C      5.543000    4.339000   -1.130000
  C      4.070000   -1.479000   -0.094000
  C      4.104000    2.751000   -0.021000
  C      5.027000    2.729000    1.036000
  C      6.166000    3.509000    0.978000
  C      7.619000    5.153000   -0.115000
  C      4.321000   -0.148000   -0.092000
  C      3.025000    0.514000    0.015000
  C      4.387000    3.582000   -1.115000
  C      2.866000    1.916000    0.013000
  N      6.413000    4.296000   -0.095000
  H     -5.790000    5.323000    1.148000
  H      2.274000    4.766000    0.081000
  H     -1.408000    5.326000   -1.069000
  H     -2.867000    7.341000   -0.997000
  H     -4.864000    8.226000    0.977000
  H     -5.021000    8.183000   -0.804000
  H     -6.228000    7.354000    0.218000
  H     -0.332000    5.282000    0.069000
  H     -4.450000    3.228000    1.168000
  H      0.182000    1.072000    0.005000
  H     -0.183000   -1.080000   -0.021000
  H     -5.864000   -4.962000    1.895000
  H     -4.794000    2.272000    0.139000
  H     -4.800000   -2.160000   -1.994000
  H     -6.841000   -3.582000   -1.893000
  H     -8.428000   -4.536000    0.546000
  H     -7.956000   -5.337000   -0.981000
  H     -7.456000   -6.037000    0.584000
  H     -5.287000   -0.344000    0.100000
  H     -3.780000   -3.601000    1.947000
  H      3.587000   -6.868000   -1.843000
  H     -2.276000   -4.774000   -0.050000
  H      3.714000   -3.724000    1.926000
  H      5.092000   -5.795000    1.871000
  H      6.205000   -7.329000   -0.439000
  H      5.393000   -7.917000    1.042000
  H      4.759000   -8.373000   -0.564000
  H      0.329000   -5.290000   -0.008000
  H      2.146000   -4.842000   -1.940000
  H      5.808000    4.986000   -1.956000
  H      4.788000   -2.281000   -0.185000
  H      4.860000    2.114000    1.912000
  H      6.901000    3.531000    1.772000
  H      7.383000    6.109000    0.356000
  H      8.414000    4.652000    0.435000
  H      7.921000    5.310000   -1.150000
  H      5.283000    0.336000   -0.179000
  H      3.720000    3.632000   -1.967000

----------------------------
CARTESIAN COORDINATES (A.U.)
----------------------------
  NO LB      ZA    FRAG     MASS         X           Y           Z
   0 C     6.0000    0    12.011   -9.097142    9.951298    1.286903
   1 C     6.0000    0    12.011    2.785456    7.636383    0.107714
   2 C     6.0000    0    12.011   -5.295013    7.734649    0.092597
   3 C     6.0000    0    12.011   -4.474871    9.968305   -1.077144
   4 C     6.0000    0    12.011   -5.975314   12.101806   -1.024232
   5 C     6.0000    0    12.011   -9.783112   14.411051    0.226767
   6 C     6.0000    0    12.011    0.249444    8.139050    0.115273
   7 C     6.0000    0    12.011   -1.075254    5.775003    0.088817
   8 C     6.0000    0    12.011    3.116158    4.947303    0.043464
   9 C     6.0000    0    12.011   -7.659060    7.772444    1.292573
  10 N     7.0000    0    14.007   -8.252434   12.073460    0.139840
  11 N     7.0000    0    14.007    0.733214    3.906064    0.047243
  12 N     7.0000    0    14.007   -3.798350    0.746442   -0.141729
  13 N     7.0000    0    14.007   -0.733214   -3.919292   -0.051023
  14 N     7.0000    0    14.007    3.798350   -0.757780    0.122832
  15 C     6.0000    0    12.011   -3.703863    5.406506    0.045353
  16 C     6.0000    0    12.011   -4.956752    3.051908   -0.034015
  17 C     6.0000    0    12.011  -10.531444   -8.180624    2.014448
  18 C     6.0000    0    12.011   -7.696855    2.779787    0.105825
  19 C     6.0000    0    12.011   -7.759216   -5.208085   -0.049133
  20 C     6.0000    0    12.011   -9.439182   -5.209975   -2.099486
  21 C     6.0000    0    12.011  -11.587801   -6.693410   -2.033345
  22 C     6.0000    0    12.011  -14.458295   -9.662170    0.075589
  23 C     6.0000    0    12.011   -8.171176    0.266451    0.069920
  24 C     6.0000    0    12.011   -5.716422   -0.982658   -0.090707
  25 C     6.0000    0    12.011   -8.356369   -6.738763    2.031456
  26 N     7.0000    0    14.007  -12.107475   -8.150389    0.001890
  27 C     6.0000    0    12.011   -5.417845   -3.632054   -0.075589
  28 C     6.0000    0    12.011   -3.118048   -4.958641   -0.051023
  29 C     6.0000    0    12.011    6.742543  -11.606698   -1.965315
  30 C     6.0000    0    12.011   -2.789236   -7.651501   -0.064251
  31 C     6.0000    0    12.011    5.296902   -7.745987   -0.015118
  32 C     6.0000    0    12.011    6.910728   -8.284559    2.020117
  33 C     6.0000    0    12.011    8.365818  -10.450186    2.001220
  34 C     6.0000    0    12.011    9.911614  -14.339242    0.026456
  35 C     6.0000    0    12.011   -0.253223   -8.154168   -0.041574
  36 C     6.0000    0    12.011    1.073364   -5.790121   -0.051023
  37 C     6.0000    0    12.011    5.243990   -9.471307   -2.029566
  38 N     7.0000    0    14.007    8.269442  -12.077240    0.032125
  39 C     6.0000    0    12.011    3.701973   -5.421624   -0.017008
  40 C     6.0000    0    12.011    4.952972   -3.065136    0.017008
  41 C     6.0000    0    12.011   10.474752    8.199522   -2.135391
  42 C     6.0000    0    12.011    7.691185   -2.794905   -0.177634
  43 C     6.0000    0    12.011    7.755436    5.198637   -0.039684
  44 C     6.0000    0    12.011    9.499653    5.157063    1.957756
  45 C     6.0000    0    12.011   11.652051    6.631049    1.848152
  46 C     6.0000    0    12.011   14.397823    9.737759   -0.217319
  47 C     6.0000    0    12.011    8.165507   -0.279679   -0.173855
  48 C     6.0000    0    12.011    5.716422    0.971319    0.028346
  49 C     6.0000    0    12.011    8.290229    6.768999   -2.107045
  50 C     6.0000    0    12.011    5.415955    3.620715    0.024566
  51 N     7.0000    0    14.007   12.118814    8.118263   -0.179524
  52 H     1.0000    0     1.008  -10.941514   10.059012    2.169406
  53 H     1.0000    0     1.008    4.297237    9.006435    0.153068
  54 H     1.0000    0     1.008   -2.660734   10.064681   -2.020117
  55 H     1.0000    0     1.008   -5.417845   13.872480   -1.884057
  56 H     1.0000    0     1.008   -9.191628   15.544887    1.846262
  57 H     1.0000    0     1.008   -9.488315   15.463629   -1.519340
  58 H     1.0000    0     1.008  -11.769214   13.897046    0.411960
  59 H     1.0000    0     1.008   -0.627389    9.981533    0.130391
  60 H     1.0000    0     1.008   -8.409281    6.100036    2.207200
  61 H     1.0000    0     1.008    0.343930    2.025786    0.009449
  62 H     1.0000    0     1.008   -0.345820   -2.040904   -0.039684
  63 H     1.0000    0     1.008  -11.081354   -9.376821    3.581031
  64 H     1.0000    0     1.008   -9.059347    4.293458    0.262672
  65 H     1.0000    0     1.008   -9.070685   -4.081808   -3.768114
  66 H     1.0000    0     1.008  -12.927616   -6.768999   -3.577252
  67 H     1.0000    0     1.008  -15.926612   -8.571798    1.031790
  68 H     1.0000    0     1.008  -15.034661  -10.085468   -1.853821
  69 H     1.0000    0     1.008  -14.089798  -11.408277    1.103600
  70 H     1.0000    0     1.008   -9.990982   -0.650066    0.188973
  71 H     1.0000    0     1.008   -7.143165   -6.804904    3.679297
  72 H     1.0000    0     1.008    6.778448  -12.978639   -3.482765
  73 H     1.0000    0     1.008   -4.301017   -9.021553   -0.094486
  74 H     1.0000    0     1.008    7.018443   -7.037340    3.639613
  75 H     1.0000    0     1.008    9.622485  -10.950963    3.535678
  76 H     1.0000    0     1.008   11.725751  -13.849803   -0.829590
  77 H     1.0000    0     1.008   10.191293  -14.960962    1.969095
  78 H     1.0000    0     1.008    8.993207  -15.822677   -1.065806
  79 H     1.0000    0     1.008    0.621720   -9.996651   -0.015118
  80 H     1.0000    0     1.008    4.055352   -9.150054   -3.666069
  81 H     1.0000    0     1.008   10.975529    9.422175   -3.696304
  82 H     1.0000    0     1.008    9.048009   -4.310465   -0.349599
  83 H     1.0000    0     1.008    9.184069    3.994881    3.613156
  84 H     1.0000    0     1.008   13.041000    6.672623    3.348595
  85 H     1.0000    0     1.008   13.951848   11.544337    0.672743
  86 H     1.0000    0     1.008   15.900156    8.791006    0.822031
  87 H     1.0000    0     1.008   14.968521   10.034446   -2.173185
  88 H     1.0000    0     1.008    9.983423    0.634948   -0.338261
  89 H     1.0000    0     1.008    7.029781    6.863485   -3.717091

--------------------------------
INTERNAL COORDINATES (ANGSTROEM)
--------------------------------
 C      0   0   0     0.000000000000     0.00000000     0.00000000
 C      1   0   0     6.436532063153     0.00000000     0.00000000
 C      1   2   0     2.413192284092    21.18626484     0.00000000
 C      3   1   2     1.403082677535    87.93390393   307.17502573
 C      4   3   1     1.380529246340   120.13848417     0.10793632
 C      5   4   3     2.447805752097   152.52340604     1.71245357
 C      2   1   3     1.368114030335     5.39909302    63.51571013
 C      7   2   4     1.434084376876   108.05010202   125.32181017
 C      2   1   3     1.434123425651   108.08044183   331.13788531
 C      1   2   7     1.381498823742    45.83157437    97.59592444
 N      1   2   7     1.352548335550    77.97437772   298.11285792
 N      9   2   1     1.376127174356   106.58526707     4.91764489
 N     12   9   2     2.925062050624   168.53581413   171.12065651
 N     13  12   9     2.954513327098    91.55032014    11.12112580
 N     14  13  12     2.925371258490    88.43092389   359.84326247
 C      8   7   2     1.404790019896   127.24786865   181.11170171
 C     13  12   9     1.366535034311    81.72106996   188.00453233
 C     14  13  12     5.758810554272    80.56209567   166.76250791
 C     17  13  12     1.459010623676   111.08861209   183.82872609
 C     18  14  13     2.412235892279    27.27532823    36.33507194
 C     20  18  14     1.402692767501    87.95206320   148.94598259
 C     21  20  18     1.382106725257   120.14573887   359.70382047
 C     18  14  13     2.446510985056   144.15733107    82.80075377
 C     19  17  13     1.353610726908   106.29293361   359.75308708
 C     13  12   9     1.366813447402   172.21332906    33.46711076
 C     18  14  13     1.380960173213    15.08449437   309.23336894
 N     22  21  20     1.352773077792   120.73759875     0.27865223
 C     25  13  17     1.410897586645   125.60330303   182.37774668
 C     14  13  12     1.376642291955    80.24689249   177.85461986
 C     14  13  12     5.764089607215   164.51507311   312.20821879
 C     29  14  13     1.435600919476   106.58649366   178.76395472
 C     30  14  13     2.413316804732    27.10625047    82.12560436
 C     32  30  14     1.403734305344    87.90059683   149.76154742
 C     33  32  30     1.380694028378   120.14881443   359.74174632
 C     34  33  32     2.448777858443   152.49203239     2.45173620
 C     31  29  14     1.368160809262   108.16950133     0.70383075
 C     14  13  12     1.376239804685   169.26375223   353.09862627
 C     30  14  13     1.380907310430    14.68948582   353.70041132
 N     34  33  32     1.352658863128   120.85575621     0.19603406
 C     37  14  29     1.404717053360   126.01551127   180.90772073
 C     15  14  13     1.366491126938    81.61824056   183.09049352
 C      2   1   3     4.249062720177   161.66970468   114.76397751
 C     41  15  14     1.459677704153   111.05201287   175.08990246
 C     42   2   1     2.412953791518    41.78584867   190.72945113
 C     44  42   2     1.403446472082    87.95153797   233.97558675
 C     45  44  42     1.381696421071   120.11137308     0.19721020
 C     42   2   1     2.450019795838   135.97209175   101.04430024
 C     43  41  15     1.354461516618   106.26758155     0.30894352
 C     15  14  13     1.367461151185   171.87382904   332.35056460
 C     42   2   1     1.381886391857    32.59078432   239.58473033
 C      9   2   1     1.404988612053   126.98745415   185.92198242
 N     42   2   1     1.352765315936   113.57249190   128.78088943
 H      1   2   7     1.083473119187   158.72000044   162.58058623
 H      2   1   3     1.079907866440   126.42587780   157.24223802
 H      4   3   1     1.083144496362   121.13549342   179.58049035
 H      5   4   3     1.082598263438   122.85877825   179.43222667
 H      6   5   4     1.091978937526   104.51295677   100.06755431
 H      6   5   4     1.090119718196    84.72388824   209.48062353
 H      6   5   4     1.090040824924   133.90347362   322.27111588
 H      7   2  54     1.079807853278   126.66122480     1.30600390
 H     10   1   2     1.084015682543   118.72501481   157.36185530
 H     12   9   2     1.016297692608   125.29023241   180.00180175
 H     14  13  12     1.014936943854    44.97226959   359.42596618
 H     18  14  13     1.082871645210   128.03556573   234.20482432
 H     19  17  13     1.080893611786   126.41830519   178.11313280
 H     21  20  18     1.083569563987   121.05669627   180.67006309
 H     22  21  20     1.082483256222   122.73097286   180.59748951
 H     23  18  14     1.092105306278   103.92715769   234.93429879
 H     23  18  14     1.088871893291   134.19244188    12.25587044
 H     23  18  14     1.089833473518    84.85857450   125.45241208
 H     24  19  17     1.080075460327   127.28078426   178.44613241
 H     26  18  14     1.083408048706   118.76995697   244.94906660
 H     30  14  13     1.082703098730   127.99711412   279.66882698
 H     31  29  14     1.079759695488   125.22293469   180.92530585
 H     33  32  30     1.083188810873   121.01964473   180.74284758
 H     34  33  32     1.082494341787   122.70821597   180.59516895
 H     35  34  33     1.092652735319   105.73575241    97.19771933
 H     35  34  33     1.089462711615    84.05943581   206.43036958
 H     35  34  33     1.089268102902   133.08365142   318.50306270
 H     36  31  29     1.079439669458   126.61599965   178.98859863
 H     38  30  73     1.083742127999   118.77264435   359.90091293
 H     42   2   1     1.082178358682   119.31790784   345.41241988
 H     43  41  15     1.080281907652   126.36969097   182.06329380
 H     45  44  42     1.083277434455   121.10105945   179.58025624
 H     46  45  44     1.082194529648   122.72144639   179.46906377
 H     47  42   2     1.091546151109   106.65128841   315.16475048
 H     47  42   2     1.088818625851   132.46019523    94.52397119
 H     47  42   2     1.089531091801    83.63838232   206.04504406
 H     48  43  41     1.080402239909   127.23657387   181.62955349
 H     50  42   2     1.083186502870   118.77001737    94.71359229

---------------------------
INTERNAL COORDINATES (A.U.)
---------------------------
 C      0   0   0     0.000000000000     0.00000000     0.00000000
 C      1   0   0    12.163282851563     0.00000000     0.00000000
 C      1   2   0     4.560272525425    21.18626484     0.00000000
 C      3   1   2     2.651442003791    87.93390393   307.17502573
 C      4   3   1     2.608822195451   120.13848417     0.10793632
 C      5   4   3     4.625682500501   152.52340604     1.71245357
 C      2   1   3     2.585360837309     5.39909302    63.51571013
 C      7   2   4     2.710026725231   108.05010202   125.32181017
 C      2   1   3     2.710100516721   108.08044183   331.13788531
 C      1   2   7     2.610654431206    45.83157437    97.59592444
 N      1   2   7     2.555945937081    77.97437772   298.11285792
 N      9   2   1     2.600503484979   106.58526707     4.91764489
 N     12   9   2     5.527566200405   168.53581413   171.12065651
 N     13  12   9     5.583221047236    91.55032014    11.12112580
 N     14  13  12     5.528150518591    88.43092389   359.84326247
 C      8   7   2     2.654668413270   127.24786865   181.11170171
 C     13  12   9     2.582376967257    81.72106996   188.00453233
 C     14  13  12    10.882574804710    80.56209567   166.76250791
 C     17  13  12     2.757130505230   111.08861209   183.82872609
 C     18  14  13     4.558465206823    27.27532823    36.33507194
 C     20  18  14     2.650705180609    87.95206320   148.94598259
 C     21  20  18     2.611803198586   120.14573887   359.70382047
 C     18  14  13     4.623235745386   144.15733107    82.80075377
 C     19  17  13     2.557953565794   106.29293361   359.75308708
 C     13  12   9     2.582903091751   172.21332906    33.46711076
 C     18  14  13     2.609636529225    15.08449437   309.23336894
 N     22  21  20     2.556370638369   120.73759875     0.27865223
 C     25  13  17     2.666210041769   125.60330303   182.37774668
 C     14  13  12     2.601476916169    80.24689249   177.85461986
 C     14  13  12    10.892550769017   164.51507311   312.20821879
 C     29  14  13     2.712892575415   106.58649366   178.76395472
 C     30  14  13     4.560507835333    27.10625047    82.12560436
 C     32  30  14     2.652673401891    87.90059683   149.76154742
 C     33  32  30     2.609133588376   120.14881443   359.74174632
 C     34  33  32     4.627519515267   152.49203239     2.45173620
 C     31  29  14     2.585449236669   108.16950133     0.70383075
 C     14  13  12     2.600716325456   169.26375223   353.09862627
 C     30  14  13     2.609536633043    14.68948582   353.70041132
 N     34  33  32     2.556154803934   120.85575621     0.19603406
 C     37  14  29     2.654530526499   126.01551127   180.90772073
 C     15  14  13     2.582293994346    81.61824056   183.09049352
 C      2   1   3     8.029564866989   161.66970468   114.76397751
 C     41  15  14     2.758391104639   111.05201287   175.08990246
 C     42   2   1     4.559821839776    41.78584867   190.72945113
 C     44  42   2     2.652129475853    87.95153797   233.97558675
 C     45  44  42     2.611027836043   120.11137308     0.19721020
 C     42   2   1     4.629866436820   135.97209175   101.04430024
 C     43  41  15     2.559561325344   106.26758155     0.30894352
 C     15  14  13     2.584127074516   171.87382904   332.35056460
 C     42   2   1     2.611386828803    32.59078432   239.58473033
 C      9   2   1     2.655043698059   126.98745415   185.92198242
 N     42   2   1     2.556355970587   113.57249190   128.78088943
 H      1   2   7     2.047467468728   158.72000044   162.58058623
 H      2   1   3     2.040730117440   126.42587780   157.24223802
 H      4   3   1     2.046846461589   121.13549342   179.58049035
 H      5   4   3     2.045814230957   122.85877825   179.43222667
 H      6   5   4     2.063541135934   104.51295677   100.06755431
 H      6   5   4     2.060027720578    84.72388824   209.48062353
 H      6   5   4     2.059878633899   133.90347362   322.27111588
 H      7   2  54     2.040541119952   126.66122480     1.30600390
 H     10   1   2     2.048492764883   118.72501481   157.36185530
 H     12   9   2     1.920524309565   125.29023241   180.00180175
 H     14  13  12     1.917952867083    44.97226959   359.42596618
 H     18  14  13     2.046330847636   128.03556573   234.20482432
 H     19  17  13     2.042592906181   126.41830519   178.11313280
 H     21  20  18     2.047649722989   121.05669627   180.67006309
 H     22  21  20     2.045596898814   122.73097286   180.59748951
 H     23  18  14     2.063779938267   103.92715769   234.93429879
 H     23  18  14     2.057669673245   134.19244188    12.25587044
 H     23  18  14     2.059486796529    84.85857450   125.45241208
 H     24  19  17     2.041046823986   127.28078426   178.44613241
 H     26  18  14     2.047344503340   118.76995697   244.94906660
 H     30  14  13     2.046012340948   127.99711412   279.66882698
 H     31  29  14     2.040450114918   125.22293469   180.92530585
 H     33  32  30     2.046930203877   121.01964473   180.74284758
 H     34  33  32     2.045617847496   122.70821597   180.59516895
 H     35  34  33     2.064814429233   105.73575241    97.19771933
 H     35  34  33     2.058786158072    84.05943581   206.43036958
 H     35  34  33     2.058418400901   133.08365142   318.50306270
 H     36  31  29     2.039845353366   126.61599965   178.98859863
 H     38  30  73     2.047975821711   118.77264435   359.90091293
 H     42   2   1     2.045020725966   119.31790784   345.41241988
 H     43  41  15     2.041436952892   126.36969097   182.06329380
 H     45  44  42     2.047097678177   121.10105945   179.58025624
 H     46  45  44     2.045051284662   122.72144639   179.46906377
 H     47  42   2     2.062723288131   106.65128841   315.16475048
 H     47  42   2     2.057569012371   132.46019523    94.52397119
 H     47  42   2     2.058915377895    83.63838232   206.04504406
 H     48  43  41     2.041664347903   127.23657387   181.62955349
 H     50  42   2     2.046925842384   118.77001737    94.71359229

---------------------
BASIS SET INFORMATION
---------------------
There are 3 groups of distinct atoms

 Group   1 Type C   : 17s4p1d contracted to 3s2p1d pattern {881/31/1}
 Group   2 Type N   : 17s4p1d contracted to 3s2p1d pattern {881/31/1}
 Group   3 Type H   : 4s1p contracted to 2s1p pattern {31/1}

Atom   0C    basis set group =>   1
Atom   1N    basis set group =>   2
Atom   2C    basis set group =>   1
Atom   3N    basis set group =>   2
Atom   4C    basis set group =>   1
Atom   5N    basis set group =>   2
Atom   6C    basis set group =>   1
Atom   7N    basis set group =>   2
Atom   8C    basis set group =>   1
Atom   9N    basis set group =>   2
Atom  10C    basis set group =>   1
Atom  11N    basis set group =>   2
Atom  12C    basis set group =>   1
Atom  13N    basis set group =>   2
Atom  14C    basis set group =>   1
Atom  15N    basis set group =>   2
Atom  16C    basis set group =>   1
Atom  17C    basis set group =>   1
Atom  18C    basis set group =>   1
Atom  19C    basis set group =>   1
Atom  20C    basis set group =>   1
Atom  21C    basis set group =>   1
Atom  22C    basis set group =>   1
Atom  23C    basis set group =>   1
Atom  24C    basis set group =>   1
Atom  25C    basis set group =>   1
Atom  26C    basis set group =>   1
Atom  27C    basis set group =>   1
Atom  28C    basis set group =>   1
Atom  29C    basis set group =>   1
Atom  30C    basis set group =>   1
Atom  31C    basis set group =>   1
Atom  32C    basis set group =>   1
Atom  33C    basis set group =>   1
Atom  34C    basis set group =>   1
Atom  35C    basis set group =>   1
Atom  36C    basis set group =>   1
Atom  37C    basis set group =>   1
Atom  38C    basis set group =>   1
Atom  39C    basis set group =>   1
Atom  40C    basis set group =>   1
Atom  41C    basis set group =>   1
Atom  42C    basis set group =>   1
Atom  43C    basis set group =>   1
Atom  44C    basis set group =>   1
Atom  45C    basis set group =>   1
Atom  46C    basis set group =>   1
Atom  47C    basis set group =>   1
Atom  48C    basis set group =>   1
Atom  49C    basis set group =>   1
Atom  50C    basis set group =>   1
Atom  51C    basis set group =>   1
Atom  52H    basis set group =>   3
Atom  53H    basis set group =>   3
Atom  54H    basis set group =>   3
Atom  55H    basis set group =>   3
Atom  56H    basis set group =>   3
Atom  57H    basis set group =>   3
Atom  58H    basis set group =>   3
Atom  59H    basis set group =>   3
Atom  60H    basis set group =>   3
Atom  61H    basis set group =>   3
Atom  62H    basis set group =>   3
Atom  63H    basis set group =>   3
Atom  64H    basis set group =>   3
Atom  65H    basis set group =>   3
Atom  66H    basis set group =>   3
Atom  67H    basis set group =>   3
Atom  68H    basis set group =>   3
Atom  69H    basis set group =>   3
Atom  70H    basis set group =>   3
Atom  71H    basis set group =>   3
Atom  72H    basis set group =>   3
Atom  73H    basis set group =>   3
Atom  74H    basis set group =>   3
Atom  75H    basis set group =>   3
Atom  76H    basis set group =>   3
Atom  77H    basis set group =>   3
Atom  78H    basis set group =>   3
Atom  79H    basis set group =>   3
Atom  80H    basis set group =>   3
Atom  81H    basis set group =>   3
Atom  82H    basis set group =>   3
Atom  83H    basis set group =>   3
Atom  84H    basis set group =>   3
Atom  85H    basis set group =>   3
Atom  86H    basis set group =>   3
Atom  87H    basis set group =>   3
Atom  88H    basis set group =>   3
Atom  89H    basis set group =>   3


           ************************************************************
           *        Program running with 16 parallel MPI-processes    *
           *              working on a common directory               *
           ************************************************************
------------------------------------------------------------------------------
                           ORCA GTO INTEGRAL CALCULATION
------------------------------------------------------------------------------
------------------------------------------------------------------------------
                   ___                                                        
                  /   \      - P O W E R E D   B Y -                         
                 /     \                                                     
                 |  |  |   _    _      __       _____    __    __             
                 |  |  |  | |  | |    /  \     |  _  \  |  |  /  |          
                  \  \/   | |  | |   /    \    | | | |  |  | /  /          
                 / \  \   | |__| |  /  /\  \   | |_| |  |  |/  /          
                |  |  |   |  __  | /  /__\  \  |    /   |      \           
                |  |  |   | |  | | |   __   |  |    \   |  |\   \          
                \     /   | |  | | |  |  |  |  | |\  \  |  | \   \       
                 \___/    |_|  |_| |__|  |__|  |_| \__\ |__|  \__/        
                                                                              
                      - O R C A' S   B I G   F R I E N D -                    
                                      &                                       
                       - I N T E G R A L  F E E D E R -                       
                                                                              
 v1 FN, 2020, v2 2021                                                         
------------------------------------------------------------------------------


Reading SHARK input file /scratch/allen/tmpyp4_amber_gaff2/conf1/conf1/Conf214.orca.SHARKINP.tmp ... ok
----------------------
SHARK INTEGRAL PACKAGE
----------------------

Number of atoms                             ...     90
Number of basis functions                   ...   1230
Number of shells                            ...    738
Maximum angular momentum                    ...      2
Integral batch strategy                     ... SHARK/LIBINT Hybrid
RI-J (if used) integral strategy            ... SPLIT-RIJ (Revised 2003 algorithm where possible)
Printlevel                                  ...      1
Contraction scheme used                     ... PARTIAL GENERAL contraction
Coulomb Range Separation                    ... NOT USED
Exchange Range Separation                   ... NOT USED
Finite Nucleus Model                        ... NOT USED
Auxiliary Coulomb fitting basis             ... NOT available
Auxiliary J/K fitting basis                 ... NOT available
Auxiliary Correlation fitting basis         ... NOT available
Auxiliary 'external' fitting basis          ... NOT available
Integral threshold                          ...     2.500000e-11
Primitive cut-off                           ...     2.500000e-12
Primitive pair pre-selection threshold      ...     2.500000e-12

Calculating pre-screening integrals         ... done (  0.1 sec) Dimension = 738
Calculating pre-screening integrals (ORCA)  ... done (  0.3 sec) Dimension = 426
Organizing shell pair data                  ... done (  0.7 sec)
Shell pair information
Total number of shell pairs                 ...    272691
Shell pairs after pre-screening             ...     71658
Total number of primitive shell pairs       ...    422091
Primitive shell pairs kept                  ...     92511
          la=0 lb=0:  29415 shell pairs
          la=1 lb=0:  26003 shell pairs
          la=1 lb=1:   4707 shell pairs
          la=2 lb=0:   7882 shell pairs
          la=2 lb=1:   3122 shell pairs
          la=2 lb=2:    529 shell pairs

Calculating one electron integrals          ... done (  0.2 sec)
Calculating Nuclear repulsion               ... done (  0.0 sec) ENN=   6231.174054799776 Eh

SHARK setup successfully completed in   2.2 seconds

Maximum memory used throughout the entire GTOINT-calculation: 99.0 MB


           ************************************************************
           *        Program running with 16 parallel MPI-processes    *
           *              working on a common directory               *
           ************************************************************
-------------------------------------------------------------------------------
                                 ORCA SCF
-------------------------------------------------------------------------------

------------
SCF SETTINGS
------------
Hamiltonian:
 Ab initio Hamiltonian  Method          .... Hartree-Fock(GTOs)


General Settings:
 Integral files         IntName         .... /scratch/allen/tmpyp4_amber_gaff2/conf1/conf1/Conf214.orca
 Hartree-Fock type      HFTyp           .... RHF
 Total Charge           Charge          ....    0
 Multiplicity           Mult            ....    1
 Number of Electrons    NEL             ....  358
 Basis Dimension        Dim             ....  918
 Nuclear Repulsion      ENuc            ....   6231.1740547998 Eh

Convergence Acceleration:
 DIIS                   CNVDIIS         .... on
   Start iteration      DIISMaxIt       ....    12
   Startup error        DIISStart       ....  0.200000
   # of expansion vecs  DIISMaxEq       ....     5
   Bias factor          DIISBfac        ....   1.050
   Max. coefficient     DIISMaxC        ....  10.000
 Trust-Rad. Augm. Hess. CNVTRAH         .... auto
   Auto Start mean grad. ratio tolernc. ....  1.125000
   Auto Start start iteration           ....    20
   Auto Start num. interpolation iter.  ....    10
   Max. Number of Micro iterations      ....    16
   Max. Number of Macro iterations      .... Maxiter - #DIIS iter
   Number of Davidson start vectors     ....     2
   Converg. threshold I  (grad. norm)   ....   1.000e-05
   Converg. threshold II (energy diff.) ....   1.000e-08
   Grad. Scal. Fac. for Micro threshold ....   0.100
   Minimum threshold for Micro iter.    ....   0.010
   NR start threshold (gradient norm)   ....   0.001
   Initial trust radius                 ....   0.400
   Minimum AH scaling param. (alpha)    ....   1.000
   Maximum AH scaling param. (alpha)    .... 1000.000
   Orbital update algorithm             .... Taylor
   White noise on init. David. guess    .... on
   Maximum white noise                  ....   0.010
   Quad. conv. algorithm                .... NR
 SOSCF                  CNVSOSCF        .... on
   Start iteration      SOSCFMaxIt      ....   150
   Startup grad/error   SOSCFStart      ....  0.003300
 Level Shifting         CNVShift        .... on
   Level shift para.    LevelShift      ....    0.2500
   Turn off err/grad.   ShiftErr        ....    0.0010
 Zerner damping         CNVZerner       .... off
 Static damping         CNVDamp         .... on
   Fraction old density DampFac         ....    0.7000
   Max. Damping (<1)    DampMax         ....    0.9800
   Min. Damping (>=0)   DampMin         ....    0.0000
   Turn off err/grad.   DampErr         ....    0.1000
 Fernandez-Rico         CNVRico         .... off

SCF Procedure:
 Maximum # iterations   MaxIter         ....   125
 SCF integral mode      SCFMode         .... Direct
   Integral package                     .... SHARK and LIBINT hybrid scheme
 Reset frequency        DirectResetFreq ....    20
 Integral Threshold     Thresh          ....  2.500e-11 Eh
 Primitive CutOff       TCut            ....  2.500e-12 Eh

Convergence Tolerance:
 Convergence Check Mode ConvCheckMode   .... Total+1el-Energy
 Convergence forced     ConvForced      .... 1
 Energy Change          TolE            ....  1.000e-08 Eh
 1-El. energy change                    ....  1.000e-05 Eh
 Orbital Gradient       TolG            ....  1.000e-05
 Orbital Rotation angle TolX            ....  1.000e-05
 DIIS Error             TolErr          ....  5.000e-07


Diagonalization of the overlap matrix:
Smallest eigenvalue                        ... 2.189e-04
Time for diagonalization                   ...    0.441 sec
Threshold for overlap eigenvalues          ... 1.000e-08
Number of eigenvalues below threshold      ... 0
Time for construction of square roots      ...    0.270 sec
Total time needed                          ...    0.718 sec

Time for model grid setup =    1.298 sec

------------------------------
INITIAL GUESS: MODEL POTENTIAL
------------------------------
Loading Hartree-Fock densities                     ... done
Calculating cut-offs                               ... done
Initializing the effective Hamiltonian             ... done
Setting up the integral package (SHARK)            ... done
Starting the Coulomb interaction                   ... done (   1.4 sec)
Reading the grid                                   ... done
Mapping shells                                     ... done
Starting the XC term evaluation                    ... done (   0.2 sec)
Transforming the Hamiltonian                       ... done (   0.3 sec)
Diagonalizing the Hamiltonian                      ... done (   0.4 sec)
Back transforming the eigenvectors                 ... done (   0.1 sec)
Now organizing SCF variables                       ... done
                      ------------------
                      INITIAL GUESS DONE (   3.8 sec)
                      ------------------
--------------
SCF ITERATIONS
--------------
ITER       Energy         Delta-E        Max-DP      RMS-DP      [F,P]     Damp
               ***  Starting incremental Fock matrix formation  ***
  0  -2121.6815127510   0.000000000000 0.07173687  0.00122017  0.2321009 0.7000
  1  -2122.3356756373  -0.654162886274 0.05427583  0.00099271  0.1437935 0.7000
                               ***Turning on DIIS***
  2  -2122.7424569591  -0.406781321828 0.12712704  0.00225179  0.0802417 0.0000
  3  -2117.9245362595   4.817920699588 0.03931853  0.00067790  0.0438624 0.0000
  4  -2123.4181374312  -5.493601171622 0.01213289  0.00022650  0.0081497 0.0000
  5  -2123.5757051629  -0.157567731765 0.00591305  0.00013297  0.0049519 0.0000
  6  -2123.5595765326   0.016128630299 0.00370942  0.00008542  0.0020061 0.0000
  7  -2123.6571142481  -0.097537715421 0.00303368  0.00006724  0.0015722 0.0000
  8  -2123.6682909847  -0.011176736676 0.00319363  0.00006352  0.0014669 0.0000
  9  -2123.6378417781   0.030449206644 0.00255004  0.00004432  0.0011740 0.0000
 10  -2123.6474411841  -0.009599406041 0.00512506  0.00009170  0.0009088 0.0000
                      *** Initiating the SOSCF procedure ***
                           *** Shutting down DIIS ***
                      *** Re-Reading the Fockian *** 
                      *** Removing any level shift *** 
ITER      Energy       Delta-E        Grad      Rot      Max-DP    RMS-DP
 11  -2123.53783903   0.1096021545  0.000194  0.000194  0.000240  0.000005
               *** Restarting incremental Fock matrix formation ***
 12  -2123.60415224  -0.0663132130  0.000876  0.005879  0.001329  0.000034
 13  -2123.60425278  -0.0001005357  0.001075  0.029439  0.006245  0.000132
 14  -2123.60442572  -0.0001729455  0.000349  0.001965  0.000636  0.000012
 15  -2123.60444157  -0.0000158495  0.000173  0.002842  0.000760  0.000018
 16  -2123.60445124  -0.0000096691  0.000161  0.003001  0.000480  0.000011
 17  -2123.60445452  -0.0000032759  0.000143  0.002022  0.000339  0.000007
 18  -2123.60445630  -0.0000017845  0.000074  0.000847  0.000299  0.000004
 19  -2123.60445714  -0.0000008375  0.000046  0.000781  0.000174  0.000004
 20  -2123.60445745  -0.0000003063  0.000026  0.000514  0.000102  0.000002
 21  -2123.60445761  -0.0000001672  0.000025  0.000625  0.000126  0.000002
 22  -2123.60445774  -0.0000001248  0.000020  0.000579  0.000105  0.000002
 23  -2123.60445781  -0.0000000749  0.000011  0.000389  0.000071  0.000001
 24  -2123.60445785  -0.0000000402  0.000007  0.000295  0.000047  0.000001
 25  -2123.60445788  -0.0000000256  0.000008  0.000192  0.000033  0.000001
 26  -2123.60445789  -0.0000000144  0.000006  0.000180  0.000029  0.000001
 27  -2123.60445790  -0.0000000074  0.000004  0.000138  0.000025  0.000001
                  ***Gradient check signals convergence***
              ***Rediagonalizing the Fockian in SOSCF/NRSCF***

               *****************************************************
               *                     SUCCESS                       *
               *           SCF CONVERGED AFTER  28 CYCLES          *
               *****************************************************


----------------
TOTAL SCF ENERGY
----------------

Total Energy       :        -2123.60445790 Eh          -57786.21509 eV

Components:
Nuclear Repulsion  :         6231.17405480 Eh          169558.86624 eV
Electronic Energy  :        -8354.77851270 Eh         -227345.08133 eV
One Electron Energy:       -15303.12043305 Eh         -416419.07732 eV
Two Electron Energy:         6948.34192035 Eh          189073.99599 eV

Virial components:
Potential Energy   :        -4245.79115325 Eh         -115533.85091 eV
Kinetic Energy     :         2122.18669535 Eh           57747.63581 eV
Virial Ratio       :            2.00066807


---------------
SCF CONVERGENCE
---------------

  Last Energy change         ...   -1.6425e-09  Tolerance :   1.0000e-08
  Last MAX-Density change    ...    1.3362e-05  Tolerance :   1.0000e-07
  Last RMS-Density change    ...    2.9348e-07  Tolerance :   5.0000e-09
  Last Orbital Gradient      ...    2.3286e-06  Tolerance :   1.0000e-05
  Last Orbital Rotation      ...    8.0515e-05  Tolerance :   1.0000e-05

             **** THE GBW FILE WAS UPDATED (/scratch/allen/tmpyp4_amber_gaff2/conf1/conf1/Conf214.orca.gbw) ****
             **** DENSITY /scratch/allen/tmpyp4_amber_gaff2/conf1/conf1/Conf214.orca.scfp WAS UPDATED ****
             **** ENERGY FILE WAS UPDATED (/scratch/allen/tmpyp4_amber_gaff2/conf1/conf1/Conf214.orca.en.tmp) ****
             **** THE GBW FILE WAS UPDATED (/scratch/allen/tmpyp4_amber_gaff2/conf1/conf1/Conf214.orca.gbw) ****
             **** DENSITY /scratch/allen/tmpyp4_amber_gaff2/conf1/conf1/Conf214.orca.scfp WAS UPDATED ****
----------------
ORBITAL ENERGIES
----------------

  NO   OCC          E(Eh)            E(eV) 
   0   2.0000     -15.671482      -426.4427 
   1   2.0000     -15.635162      -425.4544 
   2   2.0000     -15.630580      -425.3297 
   3   2.0000     -15.592893      -424.3042 
   4   2.0000     -15.524427      -422.4411 
   5   2.0000     -15.516279      -422.2194 
   6   2.0000     -15.452023      -420.4709 
   7   2.0000     -15.441618      -420.1878 
   8   2.0000     -11.322805      -308.1092 
   9   2.0000     -11.322720      -308.1069 
  10   2.0000     -11.321163      -308.0645 
  11   2.0000     -11.300065      -307.4904 
  12   2.0000     -11.297532      -307.4215 
  13   2.0000     -11.293575      -307.3138 
  14   2.0000     -11.289617      -307.2061 
  15   2.0000     -11.288018      -307.1626 
  16   2.0000     -11.285927      -307.1057 
  17   2.0000     -11.274285      -306.7889 
  18   2.0000     -11.274259      -306.7882 
  19   2.0000     -11.257558      -306.3337 
  20   2.0000     -11.257069      -306.3204 
  21   2.0000     -11.257007      -306.3187 
  22   2.0000     -11.256605      -306.3078 
  23   2.0000     -11.238781      -305.8228 
  24   2.0000     -11.235357      -305.7296 
  25   2.0000     -11.232063      -305.6400 
  26   2.0000     -11.231260      -305.6181 
  27   2.0000     -11.228794      -305.5510 
  28   2.0000     -11.228699      -305.5484 
  29   2.0000     -11.209318      -305.0211 
  30   2.0000     -11.208099      -304.9879 
  31   2.0000     -11.201824      -304.8171 
  32   2.0000     -11.195468      -304.6442 
  33   2.0000     -11.192736      -304.5698 
  34   2.0000     -11.190489      -304.5087 
  35   2.0000     -11.189537      -304.4828 
  36   2.0000     -11.187868      -304.4374 
  37   2.0000     -11.185021      -304.3599 
  38   2.0000     -11.183960      -304.3310 
  39   2.0000     -11.172757      -304.0262 
  40   2.0000     -11.171830      -304.0010 
  41   2.0000     -11.169903      -303.9485 
  42   2.0000     -11.166924      -303.8674 
  43   2.0000     -11.161849      -303.7293 
  44   2.0000     -11.159763      -303.6726 
  45   2.0000     -11.158286      -303.6324 
  46   2.0000     -11.158162      -303.6290 
  47   2.0000     -11.153603      -303.5050 
  48   2.0000     -11.148511      -303.3664 
  49   2.0000     -11.140872      -303.1585 
  50   2.0000     -11.133147      -302.9483 
  51   2.0000     -11.124041      -302.7005 
  52   2.0000      -1.353319       -36.8257 
  53   2.0000      -1.322243       -35.9801 
  54   2.0000      -1.318513       -35.8786 
  55   2.0000      -1.286582       -35.0097 
  56   2.0000      -1.224872       -33.3305 
  57   2.0000      -1.210806       -32.9477 
  58   2.0000      -1.170814       -31.8595 
  59   2.0000      -1.152566       -31.3629 
  60   2.0000      -1.137726       -30.9591 
  61   2.0000      -1.110995       -30.2317 
  62   2.0000      -1.108083       -30.1525 
  63   2.0000      -1.082359       -29.4525 
  64   2.0000      -1.075525       -29.2665 
  65   2.0000      -1.046369       -28.4731 
  66   2.0000      -1.043242       -28.3881 
  67   2.0000      -1.037207       -28.2238 
  68   2.0000      -1.015176       -27.6243 
  69   2.0000      -1.014280       -27.6000 
  70   2.0000      -1.009771       -27.4773 
  71   2.0000      -0.992527       -27.0080 
  72   2.0000      -0.987212       -26.8634 
  73   2.0000      -0.979146       -26.6439 
  74   2.0000      -0.972562       -26.4647 
  75   2.0000      -0.960515       -26.1369 
  76   2.0000      -0.952687       -25.9239 
  77   2.0000      -0.946891       -25.7662 
  78   2.0000      -0.935262       -25.4498 
  79   2.0000      -0.919822       -25.0296 
  80   2.0000      -0.904770       -24.6201 
  81   2.0000      -0.893209       -24.3055 
  82   2.0000      -0.874461       -23.7953 
  83   2.0000      -0.871710       -23.7204 
  84   2.0000      -0.868150       -23.6236 
  85   2.0000      -0.856489       -23.3062 
  86   2.0000      -0.841963       -22.9110 
  87   2.0000      -0.836549       -22.7637 
  88   2.0000      -0.823764       -22.4158 
  89   2.0000      -0.798088       -21.7171 
  90   2.0000      -0.792463       -21.5640 
  91   2.0000      -0.749061       -20.3830 
  92   2.0000      -0.741199       -20.1691 
  93   2.0000      -0.732541       -19.9335 
  94   2.0000      -0.723717       -19.6933 
  95   2.0000      -0.721522       -19.6336 
  96   2.0000      -0.715254       -19.4630 
  97   2.0000      -0.710054       -19.3215 
  98   2.0000      -0.705820       -19.2063 
  99   2.0000      -0.696263       -18.9463 
 100   2.0000      -0.695960       -18.9380 
 101   2.0000      -0.683822       -18.6077 
 102   2.0000      -0.679172       -18.4812 
 103   2.0000      -0.678611       -18.4659 
 104   2.0000      -0.677924       -18.4472 
 105   2.0000      -0.672746       -18.3063 
 106   2.0000      -0.668351       -18.1868 
 107   2.0000      -0.661310       -17.9952 
 108   2.0000      -0.655523       -17.8377 
 109   2.0000      -0.653909       -17.7938 
 110   2.0000      -0.650348       -17.6969 
 111   2.0000      -0.643467       -17.5096 
 112   2.0000      -0.641158       -17.4468 
 113   2.0000      -0.640024       -17.4159 
 114   2.0000      -0.637997       -17.3608 
 115   2.0000      -0.627354       -17.0712 
 116   2.0000      -0.625668       -17.0253 
 117   2.0000      -0.618250       -16.8234 
 118   2.0000      -0.613315       -16.6892 
 119   2.0000      -0.612296       -16.6614 
 120   2.0000      -0.610490       -16.6123 
 121   2.0000      -0.606163       -16.4945 
 122   2.0000      -0.600469       -16.3396 
 123   2.0000      -0.586928       -15.9711 
 124   2.0000      -0.582640       -15.8544 
 125   2.0000      -0.580449       -15.7948 
 126   2.0000      -0.579538       -15.7700 
 127   2.0000      -0.576338       -15.6829 
 128   2.0000      -0.566158       -15.4059 
 129   2.0000      -0.558943       -15.2096 
 130   2.0000      -0.551856       -15.0168 
 131   2.0000      -0.547759       -14.9053 
 132   2.0000      -0.542357       -14.7583 
 133   2.0000      -0.539597       -14.6832 
 134   2.0000      -0.538347       -14.6492 
 135   2.0000      -0.535363       -14.5680 
 136   2.0000      -0.527581       -14.3562 
 137   2.0000      -0.523790       -14.2530 
 138   2.0000      -0.516872       -14.0648 
 139   2.0000      -0.513445       -13.9715 
 140   2.0000      -0.512263       -13.9394 
 141   2.0000      -0.511281       -13.9127 
 142   2.0000      -0.509178       -13.8554 
 143   2.0000      -0.503431       -13.6991 
 144   2.0000      -0.501797       -13.6546 
 145   2.0000      -0.497411       -13.5352 
 146   2.0000      -0.493488       -13.4285 
 147   2.0000      -0.484417       -13.1817 
 148   2.0000      -0.480594       -13.0776 
 149   2.0000      -0.467125       -12.7111 
 150   2.0000      -0.465604       -12.6697 
 151   2.0000      -0.457082       -12.4378 
 152   2.0000      -0.450064       -12.2469 
 153   2.0000      -0.445463       -12.1217 
 154   2.0000      -0.442129       -12.0309 
 155   2.0000      -0.435078       -11.8391 
 156   2.0000      -0.429414       -11.6849 
 157   2.0000      -0.418369       -11.3844 
 158   2.0000      -0.403763       -10.9870 
 159   2.0000      -0.388256       -10.5650 
 160   2.0000      -0.382233       -10.4011 
 161   2.0000      -0.378234       -10.2923 
 162   2.0000      -0.370233       -10.0745 
 163   2.0000      -0.357408        -9.7256 
 164   2.0000      -0.354976        -9.6594 
 165   2.0000      -0.339932        -9.2500 
 166   2.0000      -0.337423        -9.1817 
 167   2.0000      -0.326883        -8.8949 
 168   2.0000      -0.325906        -8.8684 
 169   2.0000      -0.303638        -8.2624 
 170   2.0000      -0.299746        -8.1565 
 171   2.0000      -0.286287        -7.7903 
 172   2.0000      -0.282541        -7.6883 
 173   2.0000      -0.262190        -7.1345 
 174   2.0000      -0.243402        -6.6233 
 175   2.0000      -0.189799        -5.1647 
 176   2.0000      -0.180140        -4.9019 
 177   2.0000      -0.074995        -2.0407 
 178   2.0000      -0.058104        -1.5811 
 179   0.0000       0.028623         0.7789 
 180   0.0000       0.066712         1.8153 
 181   0.0000       0.091443         2.4883 
 182   0.0000       0.108896         2.9632 
 183   0.0000       0.111680         3.0390 
 184   0.0000       0.136389         3.7113 
 185   0.0000       0.140033         3.8105 
 186   0.0000       0.145257         3.9526 
 187   0.0000       0.163071         4.4374 
 188   0.0000       0.164482         4.4758 
 189   0.0000       0.166360         4.5269 
 190   0.0000       0.168120         4.5748 
 191   0.0000       0.184742         5.0271 
 192   0.0000       0.185718         5.0537 
 193   0.0000       0.188147         5.1197 
 194   0.0000       0.204294         5.5591 
 195   0.0000       0.206280         5.6132 
 196   0.0000       0.207603         5.6492 
 197   0.0000       0.209310         5.6956 
 198   0.0000       0.220571         6.0020 
 199   0.0000       0.225660         6.1405 
 200   0.0000       0.229773         6.2524 
 201   0.0000       0.237515         6.4631 
 202   0.0000       0.239039         6.5046 
 203   0.0000       0.240418         6.5421 
 204   0.0000       0.248924         6.7736 
 205   0.0000       0.256209         6.9718 
 206   0.0000       0.257247         7.0000 
 207   0.0000       0.258321         7.0293 
 208   0.0000       0.260573         7.0905 
 209   0.0000       0.261995         7.1292 
 210   0.0000       0.262837         7.1522 
 211   0.0000       0.269432         7.3316 
 212   0.0000       0.269861         7.3433 
 213   0.0000       0.272758         7.4221 
 214   0.0000       0.273297         7.4368 
 215   0.0000       0.276405         7.5214 
 216   0.0000       0.278581         7.5806 
 217   0.0000       0.280604         7.6356 
 218   0.0000       0.285282         7.7629 
 219   0.0000       0.288492         7.8503 
 220   0.0000       0.289289         7.8720 
 221   0.0000       0.292319         7.9544 
 222   0.0000       0.294496         8.0136 
 223   0.0000       0.296377         8.0648 
 224   0.0000       0.298114         8.1121 
 225   0.0000       0.299013         8.1366 
 226   0.0000       0.305857         8.3228 
 227   0.0000       0.308173         8.3858 
 228   0.0000       0.310226         8.4417 
 229   0.0000       0.324361         8.8263 
 230   0.0000       0.325599         8.8600 
 231   0.0000       0.329152         8.9567 
 232   0.0000       0.333786         9.0828 
 233   0.0000       0.341623         9.2960 
 234   0.0000       0.350693         9.5429 
 235   0.0000       0.352734         9.5984 
 236   0.0000       0.369678        10.0595 
 237   0.0000       0.378790        10.3074 
 238   0.0000       0.394100        10.7240 
 239   0.0000       0.396986        10.8025 
 240   0.0000       0.400594        10.9007 
 241   0.0000       0.411697        11.2029 
 242   0.0000       0.416210        11.3256 
 243   0.0000       0.419909        11.4263 
 244   0.0000       0.429212        11.6794 
 245   0.0000       0.433723        11.8022 
 246   0.0000       0.436406        11.8752 
 247   0.0000       0.440852        11.9962 
 248   0.0000       0.441953        12.0261 
 249   0.0000       0.449913        12.2427 
 250   0.0000       0.453639        12.3442 
 251   0.0000       0.458745        12.4831 
 252   0.0000       0.464506        12.6399 
 253   0.0000       0.470415        12.8006 
 254   0.0000       0.472812        12.8659 
 255   0.0000       0.473644        12.8885 
 256   0.0000       0.478928        13.0323 
 257   0.0000       0.481439        13.1006 
 258   0.0000       0.486551        13.2397 
 259   0.0000       0.498006        13.5514 
 260   0.0000       0.503486        13.7006 
 261   0.0000       0.504603        13.7309 
 262   0.0000       0.507049        13.7975 
 263   0.0000       0.509819        13.8729 
 264   0.0000       0.513984        13.9862 
 265   0.0000       0.518980        14.1222 
 266   0.0000       0.524468        14.2715 
 267   0.0000       0.528204        14.3732 
 268   0.0000       0.532236        14.4829 
 269   0.0000       0.537460        14.6250 
 270   0.0000       0.540433        14.7059 
 271   0.0000       0.546408        14.8685 
 272   0.0000       0.552511        15.0346 
 273   0.0000       0.559244        15.2178 
 274   0.0000       0.561487        15.2788 
 275   0.0000       0.565568        15.3899 
 276   0.0000       0.570240        15.5170 
 277   0.0000       0.571715        15.5572 
 278   0.0000       0.577624        15.7180 
 279   0.0000       0.586464        15.9585 
 280   0.0000       0.589777        16.0486 
 281   0.0000       0.591865        16.1055 
 282   0.0000       0.594360        16.1734 
 283   0.0000       0.596170        16.2226 
 284   0.0000       0.598359        16.2822 
 285   0.0000       0.601370        16.3641 
 286   0.0000       0.608169        16.5491 
 287   0.0000       0.611529        16.6406 
 288   0.0000       0.613143        16.6845 
 289   0.0000       0.623669        16.9709 
 290   0.0000       0.628036        17.0897 
 291   0.0000       0.628953        17.1147 
 292   0.0000       0.634267        17.2593 
 293   0.0000       0.635932        17.3046 
 294   0.0000       0.647282        17.6134 
 295   0.0000       0.647895        17.6301 
 296   0.0000       0.653563        17.7844 
 297   0.0000       0.656297        17.8588 
 298   0.0000       0.663928        18.0664 
 299   0.0000       0.667906        18.1746 
 300   0.0000       0.669466        18.2171 
 301   0.0000       0.674010        18.3408 
 302   0.0000       0.677101        18.4249 
 303   0.0000       0.678616        18.4661 
 304   0.0000       0.681248        18.5377 
 305   0.0000       0.687167        18.6988 
 306   0.0000       0.689213        18.7544 
 307   0.0000       0.691054        18.8045 
 308   0.0000       0.696116        18.9423 
 309   0.0000       0.697968        18.9927 
 310   0.0000       0.702682        19.1210 
 311   0.0000       0.703895        19.1540 
 312   0.0000       0.706225        19.2174 
 313   0.0000       0.710279        19.3277 
 314   0.0000       0.711483        19.3604 
 315   0.0000       0.715212        19.4619 
 316   0.0000       0.717261        19.5177 
 317   0.0000       0.719138        19.5688 
 318   0.0000       0.721430        19.6311 
 319   0.0000       0.722986        19.6734 
 320   0.0000       0.725960        19.7544 
 321   0.0000       0.731087        19.8939 
 322   0.0000       0.731580        19.9073 
 323   0.0000       0.735620        20.0173 
 324   0.0000       0.736849        20.0507 
 325   0.0000       0.739105        20.1121 
 326   0.0000       0.742558        20.2060 
 327   0.0000       0.747440        20.3389 
 328   0.0000       0.750444        20.4206 
 329   0.0000       0.751666        20.4539 
 330   0.0000       0.754197        20.5227 
 331   0.0000       0.756667        20.5900 
 332   0.0000       0.758345        20.6356 
 333   0.0000       0.760960        20.7068 
 334   0.0000       0.768292        20.9063 
 335   0.0000       0.772398        21.0180 
 336   0.0000       0.773558        21.0496 
 337   0.0000       0.782817        21.3015 
 338   0.0000       0.786986        21.4150 
 339   0.0000       0.788678        21.4610 
 340   0.0000       0.789114        21.4729 
 341   0.0000       0.794786        21.6272 
 342   0.0000       0.797635        21.7048 
 343   0.0000       0.802077        21.8256 
 344   0.0000       0.806375        21.9426 
 345   0.0000       0.808191        21.9920 
 346   0.0000       0.810202        22.0467 
 347   0.0000       0.810897        22.0656 
 348   0.0000       0.812374        22.1058 
 349   0.0000       0.818511        22.2728 
 350   0.0000       0.819282        22.2938 
 351   0.0000       0.820741        22.3335 
 352   0.0000       0.825372        22.4595 
 353   0.0000       0.826241        22.4832 
 354   0.0000       0.828099        22.5337 
 355   0.0000       0.831559        22.6279 
 356   0.0000       0.832476        22.6528 
 357   0.0000       0.835903        22.7461 
 358   0.0000       0.836604        22.7652 
 359   0.0000       0.838606        22.8196 
 360   0.0000       0.839393        22.8411 
 361   0.0000       0.842679        22.9305 
 362   0.0000       0.844236        22.9728 
 363   0.0000       0.845434        23.0054 
 364   0.0000       0.850129        23.1332 
 365   0.0000       0.854219        23.2445 
 366   0.0000       0.857869        23.3438 
 367   0.0000       0.859641        23.3920 
 368   0.0000       0.862905        23.4809 
 369   0.0000       0.865395        23.5486 
 370   0.0000       0.869628        23.6638 
 371   0.0000       0.873567        23.7710 
 372   0.0000       0.874509        23.7966 
 373   0.0000       0.877683        23.8830 
 374   0.0000       0.879178        23.9236 
 375   0.0000       0.883796        24.0493 
 376   0.0000       0.884960        24.0810 
 377   0.0000       0.886966        24.1356 
 378   0.0000       0.890598        24.2344 
 379   0.0000       0.893010        24.3000 
 380   0.0000       0.896335        24.3905 
 381   0.0000       0.900167        24.4948 
 382   0.0000       0.901272        24.5249 
 383   0.0000       0.902763        24.5654 
 384   0.0000       0.903726        24.5916 
 385   0.0000       0.904703        24.6182 
 386   0.0000       0.907961        24.7069 
 387   0.0000       0.909015        24.7356 
 388   0.0000       0.911824        24.8120 
 389   0.0000       0.916775        24.9467 
 390   0.0000       0.920866        25.0580 
 391   0.0000       0.922157        25.0932 
 392   0.0000       0.924986        25.1701 
 393   0.0000       0.926488        25.2110 
 394   0.0000       0.929399        25.2902 
 395   0.0000       0.930094        25.3091 
 396   0.0000       0.931260        25.3409 
 397   0.0000       0.937776        25.5182 
 398   0.0000       0.939369        25.5615 
 399   0.0000       0.943150        25.6644 
 400   0.0000       0.945308        25.7231 
 401   0.0000       0.949004        25.8237 
 402   0.0000       0.952537        25.9199 
 403   0.0000       0.955794        26.0085 
 404   0.0000       0.959683        26.1143 
 405   0.0000       0.962462        26.1899 
 406   0.0000       0.965032        26.2599 
 407   0.0000       0.969586        26.3838 
 408   0.0000       0.969926        26.3930 
 409   0.0000       0.979844        26.6629 
 410   0.0000       0.981923        26.7195 
 411   0.0000       0.985851        26.8264 
 412   0.0000       0.990985        26.9661 
 413   0.0000       0.996056        27.1041 
 414   0.0000       0.998392        27.1676 
 415   0.0000       0.998917        27.1819 
 416   0.0000       1.004678        27.3387 
 417   0.0000       1.012272        27.5453 
 418   0.0000       1.020049        27.7570 
 419   0.0000       1.021620        27.7997 
 420   0.0000       1.028063        27.9750 
 421   0.0000       1.032094        28.0847 
 422   0.0000       1.035839        28.1866 
 423   0.0000       1.043943        28.4071 
 424   0.0000       1.050010        28.5722 
 425   0.0000       1.054839        28.7036 
 426   0.0000       1.057724        28.7821 
 427   0.0000       1.064783        28.9742 
 428   0.0000       1.073258        29.2048 
 429   0.0000       1.079469        29.3738 
 430   0.0000       1.081193        29.4207 
 431   0.0000       1.084348        29.5066 
 432   0.0000       1.088243        29.6126 
 433   0.0000       1.090925        29.6856 
 434   0.0000       1.099913        29.9301 
 435   0.0000       1.100824        29.9550 
 436   0.0000       1.107338        30.1322 
 437   0.0000       1.110623        30.2216 
 438   0.0000       1.115087        30.3431 
 439   0.0000       1.119046        30.4508 
 440   0.0000       1.120755        30.4973 
 441   0.0000       1.122744        30.5514 
 442   0.0000       1.124005        30.5857 
 443   0.0000       1.127941        30.6928 
 444   0.0000       1.132579        30.8191 
 445   0.0000       1.135939        30.9105 
 446   0.0000       1.140811        31.0431 
 447   0.0000       1.144580        31.1456 
 448   0.0000       1.146913        31.2091 
 449   0.0000       1.149515        31.2799 
 450   0.0000       1.152346        31.3569 
 451   0.0000       1.158677        31.5292 
 452   0.0000       1.159906        31.5627 
 453   0.0000       1.165349        31.7108 
 454   0.0000       1.167335        31.7648 
 455   0.0000       1.170535        31.8519 
 456   0.0000       1.171984        31.8913 
 457   0.0000       1.176741        32.0207 
 458   0.0000       1.182455        32.1762 
 459   0.0000       1.186144        32.2766 
 460   0.0000       1.187775        32.3210 
 461   0.0000       1.197551        32.5870 
 462   0.0000       1.200985        32.6805 
 463   0.0000       1.204291        32.7704 
 464   0.0000       1.208123        32.8747 
 465   0.0000       1.209814        32.9207 
 466   0.0000       1.215453        33.0742 
 467   0.0000       1.217859        33.1396 
 468   0.0000       1.222129        33.2558 
 469   0.0000       1.226686        33.3798 
 470   0.0000       1.229180        33.4477 
 471   0.0000       1.231767        33.5181 
 472   0.0000       1.234573        33.5944 
 473   0.0000       1.234639        33.5962 
 474   0.0000       1.243014        33.8241 
 475   0.0000       1.243773        33.8448 
 476   0.0000       1.248920        33.9849 
 477   0.0000       1.250655        34.0321 
 478   0.0000       1.251278        34.0490 
 479   0.0000       1.254806        34.1450 
 480   0.0000       1.257844        34.2277 
 481   0.0000       1.264394        34.4059 
 482   0.0000       1.265016        34.4228 
 483   0.0000       1.271079        34.5878 
 484   0.0000       1.273051        34.6415 
 485   0.0000       1.278007        34.7764 
 486   0.0000       1.282366        34.8949 
 487   0.0000       1.284786        34.9608 
 488   0.0000       1.287461        35.0336 
 489   0.0000       1.291512        35.1438 
 490   0.0000       1.293919        35.2093 
 491   0.0000       1.296842        35.2889 
 492   0.0000       1.300182        35.3797 
 493   0.0000       1.309388        35.6303 
 494   0.0000       1.311297        35.6822 
 495   0.0000       1.316700        35.8292 
 496   0.0000       1.321485        35.9594 
 497   0.0000       1.323538        36.0153 
 498   0.0000       1.325009        36.0553 
 499   0.0000       1.328844        36.1597 
 500   0.0000       1.332478        36.2586 
 501   0.0000       1.334231        36.3063 
 502   0.0000       1.338245        36.4155 
 503   0.0000       1.344157        36.5764 
 504   0.0000       1.345736        36.6193 
 505   0.0000       1.350930        36.7607 
 506   0.0000       1.353000        36.8170 
 507   0.0000       1.357216        36.9317 
 508   0.0000       1.358543        36.9678 
 509   0.0000       1.361043        37.0359 
[...]
      pz      :     0.022089  p :     0.079740
      px      :     0.043552
      py      :     0.014098
 77 H s       :     0.885432  s :     0.885432
      pz      :     0.047909  p :     0.079211
      px      :     0.015021
      py      :     0.016281
 78 H s       :     0.885798  s :     0.885798
      pz      :     0.025847  p :     0.079173
      px      :     0.020475
      py      :     0.032851
 79 H s       :     0.910348  s :     0.910348
      pz      :     0.021865  p :     0.086396
      px      :     0.021681
      py      :     0.042850
 80 H s       :     0.865696  s :     0.865696
      pz      :     0.039287  p :     0.084685
      px      :     0.030211
      py      :     0.015187
 81 H s       :     0.887031  s :     0.887031
      pz      :     0.037798  p :     0.084080
      px      :     0.016184
      py      :     0.030098
 82 H s       :     0.915843  s :     0.915843
      pz      :     0.021979  p :     0.086750
      px      :     0.031597
      py      :     0.033174
 83 H s       :     0.873311  s :     0.873311
      pz      :     0.039270  p :     0.084063
      px      :     0.015272
      py      :     0.029521
 84 H s       :     0.886809  s :     0.886809
      pz      :     0.035773  p :     0.083496
      px      :     0.031699
      py      :     0.016024
 85 H s       :     0.893040  s :     0.893040
      pz      :     0.022491  p :     0.079779
      px      :     0.014076
      py      :     0.043212
 86 H s       :     0.890991  s :     0.890991
      pz      :     0.024728  p :     0.078831
      px      :     0.032979
      py      :     0.021123
 87 H s       :     0.890004  s :     0.890004
      pz      :     0.047997  p :     0.078726
      px      :     0.015591
      py      :     0.015138
 88 H s       :     0.911109  s :     0.911109
      pz      :     0.021693  p :     0.087004
      px      :     0.042867
      py      :     0.022444
 89 H s       :     0.871747  s :     0.871747
      pz      :     0.037922  p :     0.083821
      px      :     0.030464
      py      :     0.015435


                      *****************************
                      * MAYER POPULATION ANALYSIS *
                      *****************************

  NA   - Mulliken gross atomic population
  ZA   - Total nuclear charge
  QA   - Mulliken gross atomic charge
  VA   - Mayer's total valence
  BVA  - Mayer's bonded valence
  FA   - Mayer's free valence

  ATOM       NA         ZA         QA         VA         BVA        FA
  0 C      5.7917     6.0000     0.2083     3.8393     3.8393    -0.0000
  1 N      7.4545     7.0000    -0.4545     3.3333     3.3333     0.0000
  2 C      6.0650     6.0000    -0.0650     3.9198     3.9198     0.0000
  3 N      7.3369     7.0000    -0.3369     3.4569     3.4569    -0.0000
  4 C      6.0480     6.0000    -0.0480     4.0216     4.0216     0.0000
  5 N      7.5640     7.0000    -0.5640     3.0937     3.0937    -0.0000
  6 C      6.1138     6.0000    -0.1138     3.9993     3.9993    -0.0000
  7 N      7.3400     7.0000    -0.3400     3.4349     3.4349    -0.0000
  8 C      5.7938     6.0000     0.2062     3.8418     3.8418    -0.0000
  9 N      7.5624     7.0000    -0.5624     3.0783     3.0783     0.0000
 10 C      5.8814     6.0000     0.1186     3.9082     3.9082    -0.0000
 11 N      7.4382     7.0000    -0.4382     3.3794     3.3794    -0.0000
 12 C      6.0829     6.0000    -0.0829     3.9010     3.9010    -0.0000
 13 N      7.4314     7.0000    -0.4314     3.4192     3.4192     0.0000
 14 C      5.7657     6.0000     0.2343     3.7840     3.7840     0.0000
 15 N      7.4411     7.0000    -0.4411     3.3713     3.3713    -0.0000
 16 C      5.7717     6.0000     0.2283     3.7802     3.7802    -0.0000
 17 C      6.1127     6.0000    -0.1127     3.9938     3.9938    -0.0000
 18 C      6.1973     6.0000    -0.1973     3.7677     3.7677    -0.0000
 19 C      5.7722     6.0000     0.2278     3.8612     3.8612     0.0000
 20 C      5.7872     6.0000     0.2128     3.8286     3.8286     0.0000
 21 C      6.0936     6.0000    -0.0936     3.8875     3.8875     0.0000
 22 C      6.0908     6.0000    -0.0908     3.9827     3.9827    -0.0000
 23 C      6.0409     6.0000    -0.0409     3.9924     3.9924    -0.0000
 24 C      5.8044     6.0000     0.1956     3.8216     3.8216    -0.0000
 25 C      5.8856     6.0000     0.1144     3.8911     3.8911    -0.0000
 26 C      6.0797     6.0000    -0.0797     3.9097     3.9097    -0.0000
 27 C      5.7866     6.0000     0.2134     3.8651     3.8651     0.0000
 28 C      6.0603     6.0000    -0.0603     3.9885     3.9885    -0.0000
 29 C      6.1803     6.0000    -0.1803     3.7442     3.7442    -0.0000
 30 C      5.7557     6.0000     0.2443     3.7994     3.7994     0.0000
 31 C      5.7730     6.0000     0.2270     3.8193     3.8193     0.0000
 32 C      6.0623     6.0000    -0.0623     3.9224     3.9224    -0.0000
 33 C      6.0642     6.0000    -0.0642     3.9745     3.9745     0.0000
 34 C      6.0507     6.0000    -0.0507     3.9852     3.9852     0.0000
 35 C      5.7763     6.0000     0.2237     3.8183     3.8183     0.0000
 36 C      5.8907     6.0000     0.1093     3.8779     3.8779     0.0000
 37 C      6.0648     6.0000    -0.0648     3.9176     3.9176    -0.0000
 38 C      5.7675     6.0000     0.2325     3.8003     3.8003    -0.0000
 39 C      6.0585     6.0000    -0.0585     3.9846     3.9846     0.0000
 40 C      6.1826     6.0000    -0.1826     3.7299     3.7299    -0.0000
 41 C      5.7751     6.0000     0.2249     3.8856     3.8856    -0.0000
 42 C      5.8019     6.0000     0.1981     3.8262     3.8262     0.0000
 43 C      6.0725     6.0000    -0.0725     3.9004     3.9004     0.0000
 44 C      6.0898     6.0000    -0.0898     3.9850     3.9850     0.0000
 45 C      6.0599     6.0000    -0.0599     3.9924     3.9924    -0.0000
 46 C      5.7901     6.0000     0.2099     3.8281     3.8281    -0.0000
 47 C      5.8845     6.0000     0.1155     3.8933     3.8933    -0.0000
 48 C      6.0682     6.0000    -0.0682     3.9088     3.9088     0.0000
 49 C      5.7632     6.0000     0.2368     3.8921     3.8921     0.0000
 50 C      6.0476     6.0000    -0.0476     3.9906     3.9906    -0.0000
 51 C      6.1916     6.0000    -0.1916     3.7359     3.7359    -0.0000
 52 H      0.9589     1.0000     0.0411     0.9860     0.9860     0.0000
 53 H      1.0163     1.0000    -0.0163     0.9983     0.9983     0.0000
 54 H      0.9508     1.0000     0.0492     1.0134     1.0134     0.0000
 55 H      0.9610     1.0000     0.0390     0.9867     0.9867     0.0000
 56 H      0.9501     1.0000     0.0499     0.9697     0.9697     0.0000
 57 H      0.9518     1.0000     0.0482     0.9829     0.9829     0.0000
 58 H      0.9514     1.0000     0.0486     0.9848     0.9848    -0.0000
 59 H      0.9988     1.0000     0.0012     1.0035     1.0035    -0.0000
 60 H      0.9477     1.0000     0.0523     1.0150     1.0150    -0.0000
 61 H      0.8287     1.0000     0.1713     1.0421     1.0421     0.0000
 62 H      0.8249     1.0000     0.1751     1.0436     1.0436     0.0000
 63 H      0.9445     1.0000     0.0555     0.9853     0.9853     0.0000
 64 H      1.0083     1.0000    -0.0083     0.9972     0.9972     0.0000
 65 H      0.9525     1.0000     0.0475     1.0095     1.0095    -0.0000
 66 H      0.9438     1.0000     0.0562     0.9854     0.9854    -0.0000
 67 H      0.9375     1.0000     0.0625     0.9719     0.9719     0.0000
 68 H      0.9425     1.0000     0.0575     0.9868     0.9868     0.0000
 69 H      0.9432     1.0000     0.0568     0.9828     0.9828    -0.0000
 70 H      1.0290     1.0000    -0.0290     0.9935     0.9935     0.0000
 71 H      0.9548     1.0000     0.0452     1.0060     1.0060    -0.0000
 72 H      0.9313     1.0000     0.0687     0.9838     0.9838     0.0000
 73 H      1.0089     1.0000    -0.0089     1.0006     1.0006    -0.0000
 74 H      0.9420     1.0000     0.0580     1.0101     1.0101     0.0000
 75 H      0.9320     1.0000     0.0680     0.9842     0.9842     0.0000
 76 H      0.9274     1.0000     0.0726     0.9721     0.9721     0.0000
 77 H      0.9338     1.0000     0.0662     0.9854     0.9854     0.0000
 78 H      0.9345     1.0000     0.0655     0.9853     0.9853    -0.0000
 79 H      1.0160     1.0000    -0.0160     0.9979     0.9979     0.0000
 80 H      0.9412     1.0000     0.0588     1.0072     1.0072    -0.0000
 81 H      0.9461     1.0000     0.0539     0.9856     0.9856     0.0000
 82 H      1.0246     1.0000    -0.0246     0.9935     0.9935     0.0000
 83 H      0.9580     1.0000     0.0420     1.0084     1.0084    -0.0000
 84 H      0.9461     1.0000     0.0539     0.9853     0.9853    -0.0000
 85 H      0.9395     1.0000     0.0605     0.9716     0.9716    -0.0000
 86 H      0.9444     1.0000     0.0556     0.9839     0.9839    -0.0000
 87 H      0.9431     1.0000     0.0569     0.9856     0.9856    -0.0000
 88 H      1.0155     1.0000    -0.0155     0.9964     0.9964     0.0000
 89 H      0.9544     1.0000     0.0456     1.0074     1.0074    -0.0000

  Mayer bond orders larger than 0.100000
B(  0-C ,  1-N ) :   1.0919 B(  0-C , 17-C ) :   1.7018 B(  0-C , 52-H ) :   0.9670 
B(  1-N ,  8-C ) :   1.0906 B(  1-N , 10-C ) :   0.9768 B(  2-C , 12-C ) :   1.5093 
B(  2-C , 16-C ) :   1.3540 B(  2-C , 53-H ) :   0.9754 B(  3-N , 14-C ) :   1.2177 
B(  3-N , 16-C ) :   1.1904 B(  3-N , 61-H ) :   0.8990 B(  4-C ,  6-C ) :   1.2159 
B(  4-C , 17-C ) :   1.2151 B(  4-C , 18-C ) :   1.4252 B(  5-N , 19-C ) :   1.4500 
B(  5-N , 27-C ) :   1.3807 B(  6-C ,  8-C ) :   1.6994 B(  6-C , 54-H ) :   0.9586 
B(  7-N , 30-C ) :   1.1954 B(  7-N , 38-C ) :   1.1921 B(  7-N , 62-H ) :   0.8970 
B(  8-C , 55-H ) :   0.9678 B(  9-N , 41-C ) :   1.3957 B(  9-N , 49-C ) :   1.4245 
B( 10-C , 56-H ) :   0.9769 B( 10-C , 57-H ) :   0.9821 B( 10-C , 58-H ) :   0.9843 
B( 11-N , 20-C ) :   1.1303 B( 11-N , 24-C ) :   1.1094 B( 11-N , 25-C ) :   0.9598 
B( 12-C , 14-C ) :   1.3540 B( 12-C , 59-H ) :   0.9735 B( 13-N , 31-C ) :   1.1547 
B( 13-N , 35-C ) :   1.1515 B( 13-N , 36-C ) :   0.9447 B( 14-C , 18-C ) :   1.1348 
B( 15-N , 42-C ) :   1.1085 B( 15-N , 46-C ) :   1.1218 B( 15-N , 47-C ) :   0.9617 
B( 16-C , 51-C ) :   1.1737 B( 17-C , 60-H ) :   0.9560 B( 18-C , 19-C ) :   1.1402 
B( 19-C , 21-C ) :   1.2427 B( 20-C , 28-C ) :   1.6275 B( 20-C , 63-H ) :   0.9703 
B( 21-C , 26-C ) :   1.6106 B( 21-C , 64-H ) :   0.9678 B( 22-C , 23-C ) :   1.2890 
B( 22-C , 28-C ) :   1.2657 B( 22-C , 29-C ) :   1.2231 B( 23-C , 24-C ) :   1.6194 
B( 23-C , 65-H ) :   0.9704 B( 24-C , 66-H ) :   0.9694 B( 25-C , 67-H ) :   0.9760 
B( 25-C , 68-H ) :   0.9828 B( 25-C , 69-H ) :   0.9823 B( 26-C , 27-C ) :   1.2389 
B( 26-C , 70-H ) :   0.9709 B( 27-C , 29-C ) :   1.2153 B( 28-C , 71-H ) :   0.9719 
B( 29-C , 30-C ) :   1.2384 B( 30-C , 32-C ) :   1.2858 B( 31-C , 39-C ) :   1.5958 
B( 31-C , 72-H ) :   0.9684 B( 32-C , 37-C ) :   1.5730 B( 32-C , 73-H ) :   0.9785 
B( 33-C , 34-C ) :   1.3017 B( 33-C , 39-C ) :   1.2971 B( 33-C , 40-C ) :   1.1889 
B( 34-C , 35-C ) :   1.5929 B( 34-C , 74-H ) :   0.9698 B( 35-C , 75-H ) :   0.9684 
B( 36-C , 76-H ) :   0.9767 B( 36-C , 77-H ) :   0.9817 B( 36-C , 78-H ) :   0.9825 
B( 37-C , 38-C ) :   1.2903 B( 37-C , 79-H ) :   0.9767 B( 38-C , 40-C ) :   1.2287 
B( 39-C , 80-H ) :   0.9707 B( 40-C , 41-C ) :   1.2455 B( 41-C , 43-C ) :   1.1896 
B( 42-C , 50-C ) :   1.6339 B( 42-C , 81-H ) :   0.9697 B( 43-C , 48-C ) :   1.6627 
B( 43-C , 82-H ) :   0.9724 B( 44-C , 45-C ) :   1.2642 B( 44-C , 50-C ) :   1.2709 
B( 44-C , 51-C ) :   1.2609 B( 45-C , 46-C ) :   1.6351 B( 45-C , 83-H ) :   0.9717 
B( 46-C , 84-H ) :   0.9700 B( 47-C , 85-H ) :   0.9762 B( 47-C , 86-H ) :   0.9829 
B( 47-C , 87-H ) :   0.9825 B( 48-C , 49-C ) :   1.1928 B( 48-C , 88-H ) :   0.9747 
B( 49-C , 51-C ) :   1.2385 B( 50-C , 89-H ) :   0.9710 

-------
TIMINGS
-------

Total SCF time: 0 days 0 hours 28 min 33 sec 

Total time                  ....    1713.357 sec
Sum of individual times     ....    1708.582 sec  ( 99.7%)

Fock matrix formation       ....    1680.816 sec  ( 98.1%)
Diagonalization             ....       8.809 sec  (  0.5%)
Density matrix formation    ....       0.528 sec  (  0.0%)
Population analysis         ....       0.587 sec  (  0.0%)
Initial guess               ....       2.515 sec  (  0.1%)
Orbital Transformation      ....       0.000 sec  (  0.0%)
Orbital Orthonormalization  ....       0.000 sec  (  0.0%)
DIIS solution               ....       3.961 sec  (  0.2%)
SOSCF solution              ....      10.068 sec  (  0.6%)

Maximum memory used throughout the entire SCF-calculation: 302.6 MB


           ************************************************************
           *        Program running with 16 parallel MPI-processes    *
           *              working on a common directory               *
           ************************************************************

------------------------------------------------------------------------------
                                ORCA  MP2 
------------------------------------------------------------------------------

Freezing NCore=104 chemical core electrons

----------
MP2 ENERGY (disk based algorithm)
----------

Dimension of the basis                    ...  918
Memory devoted to MP2                     ... 2000 MB   
Data format for buffers                   ... DOUBLE
Compression type for matrix containers    ... UNCOMPRESSED

-------------------------------
PARTIAL EXCHANGE TRANSFORMATION
-------------------------------

Transformation type                        ... one-operator
Generation of integrals (i,mue|j,nue)      ... ON
Generation of integrals (mue,kappa|nue,tau)... OFF
Generation of integrals (i,mue|a,nue)      ... OFF
Dimension of the basis                     ...  918
Number of internal MOs                     ...  127 (  52- 178)
Pair cutoff                                ... 2.500e-12 Eh
Number of AO pairs in the trafo            ... 421821
Total Number of distinct AO pairs          ... 421821
Memory devoted for trafo                   ... 2000.0 MB 
Max. Number of MO pairs treated together   ...  311      
Number Format for Storage                  ... Double (8 Byte)
Integral package used                      ... LIBINT

Starting integral evaluation:
    ... done with AO integral generation
Closing buffer AOK     (38.25 GB; CompressionRatio= 1.33)
Collecting buffer AOK 
Number of MO pairs included in the trafo   ... 8128
------------------------
SORTING OF (i,mue|j,nue)
------------------------

IBATCH = 1 of  2
IBATCH = 2 of  2
Closing buffer KAO     (51.03 GB; CompressionRatio= 1.00)
Collecting buffer KAO 
N(AO-Batches) Done                         ...  85832474 
N(AO-Batches) Skipped                      ...  82463854 
N(IJ)-pairs Skipped                        ...         0 
TOTAL TIME for half transformation         ...  2330.500 sec
AO-integral generation                     ...   210.179 sec
Half transformation                        ...   423.116 sec
K-integral sorting                         ...  1472.807 sec
Process 13:   Internal MO 156
Process 10:   Internal MO 132
Process  4:   Internal MO  84
Process  1:   Internal MO  60

Finished integral transformation - now doing MP2 part

OPERATOR COMBINATION   0   0: ij=( 52..178, 52..178)
Process  7:   Internal MO 108
Process  2:   Internal MO  69
Process  1:   Internal MO  63
Process  5:   Internal MO  93
Process  0:   Internal MO  54
Process  3:   Internal MO  78
Process  0:   Internal MO  57
Process  8:   Internal MO 117
Process  1:   Internal MO  66
Process  2:   Internal MO  72
Process  4:   Internal MO  87
Process  6:   Internal MO 102
Process 14:   Internal MO 165
Process 11:   Internal MO 141
Process  9:   Internal MO 126
Process  3:   Internal MO  81
Process  7:   Internal MO 111
Process  2:   Internal MO  75
Process  5:   Internal MO  96
Process 12:   Internal MO 150
Process  4:   Internal MO  90
Process 15:   Internal MO 174
Process  6:   Internal MO 105
Process 10:   Internal MO 135
Process  8:   Internal MO 120
Process  5:   Internal MO  99
Process  7:   Internal MO 114
Process  9:   Internal MO 129
Process 13:   Internal MO 159
Process 11:   Internal MO 144
Process 12:   Internal MO 153
Process 14:   Internal MO 168
Process 10:   Internal MO 138
Process  8:   Internal MO 123
Process 15:   Internal MO 177
Process 11:   Internal MO 147
Process 13:   Internal MO 162
Process 14:   Internal MO 171
-----------------------------------------------
 MP2 CORRELATION ENERGY   :     -7.283732513 Eh
-----------------------------------------------


-------
TIMINGS
-------
Total time                : 2621.256 sec
Integral trafo            : 2332.573 sec ( 89.0%)
K(i,j)                    :   21.313 sec (  0.8%)
T(i,j)                    :    0.981 sec (  0.0%)

---------------------------------------
MP2 TOTAL ENERGY:    -2130.888190416 Eh
---------------------------------------

Maximum memory used throughout the entire MP2-calculation: 2275.3 MB

-------------------------   --------------------
FINAL SINGLE POINT ENERGY     -2130.888190416245
-------------------------   --------------------


                            ***************************************
                            *     ORCA property calculations      *
                            ***************************************


  WARNING: The energy has been calculated at the MP2 level but the densities
           used in the property calculations are still SCF densities
           MP2 response densities have not been calculated 
           use %mp2 Density relaxed end
           or  %mp2 Density unrelaxed end

                                    ---------------------
                                    Active property flags
                                    ---------------------
   (+) Dipole Moment


------------------------------------------------------------------------------
                       ORCA ELECTRIC PROPERTIES CALCULATION
------------------------------------------------------------------------------

Dipole Moment Calculation                       ... on
Quadrupole Moment Calculation                   ... off
Polarizability Calculation                      ... off
GBWName                                         ... /scratch/allen/tmpyp4_amber_gaff2/conf1/conf1/Conf214.orca.gbw
Electron density                                ... /scratch/allen/tmpyp4_amber_gaff2/conf1/conf1/Conf214.orca.scfp
The origin for moment calculation is the CENTER OF MASS  = ( 0.002633, -0.002327 -0.001030)

-------------
DIPOLE MOMENT
-------------
                                X             Y             Z
Electronic contribution:      2.14603      -3.77588      -0.16013
Nuclear contribution   :      0.07607       0.24174       0.16105
                        -----------------------------------------
Total Dipole Moment    :      2.22210      -3.53414       0.00091
                        -----------------------------------------
Magnitude (a.u.)       :      4.17467
Magnitude (Debye)      :     10.61117



--------------------
Rotational spectrum 
--------------------
 
Rotational constants in cm-1:     0.001500     0.001478     0.000761 
Rotational constants in MHz :    44.975928    44.309172    22.804050 

 Dipole components along the rotational axes: 
x,y,z [a.u.] :     2.991141    -2.912205     0.000025 
x,y,z [Debye]:     7.602877    -7.402237     0.000063 

 

Timings for individual modules:

Sum of individual times         ...     4359.545 sec (=  72.659 min)
GTO integral calculation        ...        3.480 sec (=   0.058 min)   0.1 %
SCF iterations                  ...     1714.619 sec (=  28.577 min)  39.3 %
MP2 module                      ...     2641.447 sec (=  44.024 min)  60.6 %
                             ****ORCA TERMINATED NORMALLY****
TOTAL RUN TIME: 0 days 1 hours 12 minutes 43 seconds 92 msec
# of primitive gaussian functions

