
                                 *****************
                                 * O   R   C   A *
                                 *****************

                                            #,                                       
                                            ###                                      
                                            ####                                     
                                            #####                                    
                                            ######                                   
                                           ########,                                 
                                     ,,################,,,,,                         
                               ,,#################################,,                 
                          ,,##########################################,,             
                       ,#########################################, ''#####,          
                    ,#############################################,,   '####,        
                  ,##################################################,,,,####,       
                ,###########''''           ''''###############################       
              ,#####''   ,,,,##########,,,,          '''####'''          '####       
            ,##' ,,,,###########################,,,                        '##       
           ' ,,###''''                  '''############,,,                           
         ,,##''                                '''############,,,,        ,,,,,,###''
      ,#''                                            '''#######################'''  
     '                                                          ''''####''''         
             ,#######,   #######,   ,#######,      ##                                
            ,#'     '#,  ##    ##  ,#'     '#,    #''#        ######   ,####,        
            ##       ##  ##   ,#'  ##            #'  '#       #        #'  '#        
            ##       ##  #######   ##           ,######,      #####,   #    #        
            '#,     ,#'  ##    ##  '#,     ,#' ,#      #,         ##   #,  ,#        
             '#######'   ##     ##  '#######'  #'      '#     #####' # '####'        



                  #######################################################
                  #                        -***-                        #
                  #          Department of theory and spectroscopy      #
                  #    Directorship and core code : Frank Neese         #
                  #        Max Planck Institute fuer Kohlenforschung    #
                  #                Kaiser Wilhelm Platz 1               #
                  #                 D-45470 Muelheim/Ruhr               #
                  #                      Germany                        #
                  #                                                     #
                  #                  All rights reserved                #
                  #                        -***-                        #
                  #######################################################


                         Program Version 5.0.4 -  RELEASE  -


 With contributions from (in alphabetic order):
   Daniel Aravena         : Magnetic Suceptibility
   Michael Atanasov       : Ab Initio Ligand Field Theory (pilot matlab implementation)
   Alexander A. Auer      : GIAO ZORA, VPT2 properties, NMR spectrum
   Ute Becker             : Parallelization
   Giovanni Bistoni       : ED, misc. LED, open-shell LED, HFLD
   Martin Brehm           : Molecular dynamics
   Dmytro Bykov           : SCF Hessian
   Vijay G. Chilkuri      : MRCI spin determinant printing, contributions to CSF-ICE
   Dipayan Datta          : RHF DLPNO-CCSD density
   Achintya Kumar Dutta   : EOM-CC, STEOM-CC
   Dmitry Ganyushin       : Spin-Orbit,Spin-Spin,Magnetic field MRCI
   Miquel Garcia          : C-PCM and meta-GGA Hessian, CC/C-PCM, Gaussian charge scheme
   Yang Guo               : DLPNO-NEVPT2, F12-NEVPT2, CIM, IAO-localization
   Andreas Hansen         : Spin unrestricted coupled pair/coupled cluster methods
   Benjamin Helmich-Paris : MC-RPA, TRAH-SCF, COSX integrals
   Lee Huntington         : MR-EOM, pCC
   Robert Izsak           : Overlap fitted RIJCOSX, COSX-SCS-MP3, EOM
   Marcus Kettner         : VPT2
   Christian Kollmar      : KDIIS, OOCD, Brueckner-CCSD(T), CCSD density, CASPT2, CASPT2-K
   Simone Kossmann        : Meta GGA functionals, TD-DFT gradient, OOMP2, MP2 Hessian
   Martin Krupicka        : Initial AUTO-CI
   Lucas Lang             : DCDCAS
   Marvin Lechner         : AUTO-CI (C++ implementation), FIC-MRCC
   Dagmar Lenk            : GEPOL surface, SMD
   Dimitrios Liakos       : Extrapolation schemes; Compound Job, initial MDCI parallelization
   Dimitrios Manganas     : Further ROCIS development; embedding schemes
   Dimitrios Pantazis     : SARC Basis sets
   Anastasios Papadopoulos: AUTO-CI, single reference methods and gradients
   Taras Petrenko         : DFT Hessian,TD-DFT gradient, ASA, ECA, R-Raman, ABS, FL, XAS/XES, NRVS
   Peter Pinski           : DLPNO-MP2, DLPNO-MP2 Gradient
   Christoph Reimann      : Effective Core Potentials
   Marius Retegan         : Local ZFS, SOC
   Christoph Riplinger    : Optimizer, TS searches, QM/MM, DLPNO-CCSD(T), (RO)-DLPNO pert. Triples
   Tobias Risthaus        : Range-separated hybrids, TD-DFT gradient, RPA, STAB
   Michael Roemelt        : Original ROCIS implementation
   Masaaki Saitow         : Open-shell DLPNO-CCSD energy and density
   Barbara Sandhoefer     : DKH picture change effects
   Avijit Sen             : IP-ROCIS
   Kantharuban Sivalingam : CASSCF convergence, NEVPT2, FIC-MRCI
   Bernardo de Souza      : ESD, SOC TD-DFT
   Georgi Stoychev        : AutoAux, RI-MP2 NMR, DLPNO-MP2 response
   Willem Van den Heuvel  : Paramagnetic NMR
   Boris Wezisla          : Elementary symmetry handling
   Frank Wennmohs         : Technical directorship


 We gratefully acknowledge several colleagues who have allowed us to
 interface, adapt or use parts of their codes:
   Stefan Grimme, W. Hujo, H. Kruse, P. Pracht,  : VdW corrections, initial TS optimization,
                  C. Bannwarth, S. Ehlert          DFT functionals, gCP, sTDA/sTD-DF
   Ed Valeev, F. Pavosevic, A. Kumar             : LibInt (2-el integral package), F12 methods
   Garnet Chan, S. Sharma, J. Yang, R. Olivares  : DMRG
   Ulf Ekstrom                                   : XCFun DFT Library
   Mihaly Kallay                                 : mrcc  (arbitrary order and MRCC methods)
   Jiri Pittner, Ondrej Demel                    : Mk-CCSD
   Frank Weinhold                                : gennbo (NPA and NBO analysis)
   Christopher J. Cramer and Donald G. Truhlar   : smd solvation model
   Lars Goerigk                                  : TD-DFT with DH, B97 family of functionals
   V. Asgeirsson, H. Jonsson                     : NEB implementation
   FAccTs GmbH                                   : IRC, NEB, NEB-TS, DLPNO-Multilevel, CI-OPT
                                                   MM, QMMM, 2- and 3-layer-ONIOM, Crystal-QMMM,
                                                   LR-CPCM, SF, NACMEs, symmetry and pop. for TD-DFT,
                                                   nearIR, NL-DFT gradient (VV10), updates on ESD,
                                                   ML-optimized integration grids
   S Lehtola, MJT Oliveira, MAL Marques          : LibXC Library
   Liviu Ungur et al                             : ANISO software


 Your calculation uses the libint2 library for the computation of 2-el integrals
 For citations please refer to: http://libint.valeyev.net

 Your ORCA version has been built with support for libXC version: 5.1.0
 For citations please refer to: https://tddft.org/programs/libxc/

 This ORCA versions uses:
   CBLAS   interface :  Fast vector & matrix operations
   LAPACKE interface :  Fast linear algebra routines
   SCALAPACK package :  Parallel linear algebra routines
   Shared memory     :  Shared parallel matrices
   BLAS/LAPACK       :  OpenBLAS 0.3.15  USE64BITINT DYNAMIC_ARCH NO_AFFINITY Sandybridge SINGLE_THREADED
        Core in use  :  Sandybridge
   Copyright (c) 2011-2014, The OpenBLAS Project


================================================================================

----- Orbital basis set information -----
Your calculation utilizes the basis: cc-pVDZ 
       H, B-Ne : Obtained from the ccRepo (grant-hill.group.shef.ac.uk/ccrepo) Feb. 2017
                 T. H. Dunning, Jr., J. Chem. Phys. 90, 1007 (1989)
            He : Obtained from the ccRepo (grant-hill.group.shef.ac.uk/ccrepo) Feb. 2017
                 D. E. Woon, T. H. Dunning, Jr., J. Chem. Phys. 100, 2975 (1994)
  Li-Be, Na-Mg : Obtained from the ccRepo (grant-hill.group.shef.ac.uk/ccrepo) Feb. 2017
                 B. P. Prascher, D. E. Woon, K. A. Peterson, T. H. Dunning, Jr., A. K. Wilson, Theor. Chem. Acc. 128, 69 (2011)
         Al-Ar : Obtained from the ccRepo (grant-hill.group.shef.ac.uk/ccrepo) Feb. 2017
                 D. E. Woon, T. H. Dunning, Jr., J. Chem. Phys. 98, 1358 (1993)
            Ca : Obtained from the Peterson Research Group Website (tyr0.chem.wsu.edu/~kipeters) Feb. 2017
                 J. Koput, K. A. Peterson, J. Phys. Chem. 106, 9595 (2002)
         Sc-Zn : Obtained from the ccRepo (grant-hill.group.shef.ac.uk/ccrepo) Feb. 2017
                 N. B. Balabanov, K. A. Peterson, J. Chem. Phys. 123, 064107 (2005)
                 N. B. Balabanov, K. A. Peterson, J. Chem. Phys. 125, 074110 (2006)
         Ga-Kr : Obtained from the ccRepo (grant-hill.group.shef.ac.uk/ccrepo) Feb. 2017
                 A. K. Wilson, D. E. Woon, K. A. Peterson, T. H. Dunning, Jr., J. Chem. Phys. 110, 7667 (1999)

================================================================================
                                        WARNINGS
                       Please study these warnings very carefully!
================================================================================


WARNING: No MP2 level density has been requested!
         To caclulate MP2 level properties use
         %mp2 Density relaxed end
         or
         %mp2 Density unrelaxed end

WARNING: Post HF methods need fully converged wavefunctions
  ===> : Setting SCFConvForced true
         You can overwrite this default with %scf ConvForced false 


INFO   : the flag for use of the SHARK integral package has been found!

================================================================================
                                       INPUT FILE
================================================================================
NAME = /scratch/allen/tmpyp4_amber_gaff2/2.Mdgx/conf11/conf11/Conf247.orca
|  1> ! PAL2
|  2> ! mp2 cc-pvdz TightSCF  NoKeepInts
|  3> 
|  4> %scf
|  5>   MaxCore 2000
|  6> end
|  7> %mp2
|  8>   MaxCore 2000
|  9> end
| 10> * xyz 0 1
| 11>    C       -4.40100         5.53900         1.13300
| 12>    C        1.47400         4.04100         0.05700
| 13>    C       -2.80200         4.09300         0.04900
| 14>    C       -2.80100         4.98900        -1.03100
| 15>    C       -3.59000         6.12200        -0.99300
| 16>    C       -5.18200         7.62300         0.10200
| 17>    C        0.13200         4.30700         0.06100
| 18>    C       -0.56900         3.05600         0.04700
| 19>    C        1.64900         2.61800         0.02300
| 20>    C       -3.62500         4.39600         1.14500
| 21>    N       -4.37700         6.38200         0.07600
| 22>    N        0.38800         2.06700         0.02500
| 23>    N       -2.01000         0.39500        -0.07500
| 24>    N       -0.38800        -2.07400        -0.02700
| 25>    N        2.01000        -0.40100         0.06500
| 26>    C       -1.96000         2.86100         0.02400
| 27>    C       -2.62300         1.61500        -0.01800
| 28>    C       -5.57300        -4.32900         1.06600
| 29>    C       -4.07300         1.47100         0.05600
| 30>    C       -4.10600        -2.75600        -0.02600
| 31>    C       -4.99500        -2.75700        -1.11100
| 32>    C       -6.13200        -3.54200        -1.07600
| 33>    C       -7.65100        -5.11300         0.04000
| 34>    C       -4.32400         0.14100         0.03700
| 35>    C       -3.02500        -0.52000        -0.04800
| 36>    C       -4.42200        -3.56600         1.07500
| 37>    N       -6.40700        -4.31300         0.00100
| 38>    C       -2.86700        -1.92200        -0.04000
| 39>    C       -1.65000        -2.62400        -0.02700
| 40>    C        3.56800        -6.14200        -1.04000
| 41>    C       -1.47600        -4.04900        -0.03400
| 42>    C        2.80300        -4.09900        -0.00800
| 43>    C        3.65700        -4.38400         1.06900
| 44>    C        4.42700        -5.53000         1.05900
| 45>    C        5.24500        -7.58800         0.01400
| 46>    C       -0.13400        -4.31500        -0.02200
| 47>    C        0.56800        -3.06400        -0.02700
| 48>    C        2.77500        -5.01200        -1.07400
| 49>    N        4.37600        -6.39100         0.01700
| 50>    C        1.95900        -2.86900        -0.00900
| 51>    C        2.62100        -1.62200         0.00900
| 52>    C        5.54300         4.33900        -1.13000
| 53>    C        4.07000        -1.47900        -0.09400
| 54>    C        4.10400         2.75100        -0.02100
| 55>    C        5.02700         2.72900         1.03600
| 56>    C        6.16600         3.50900         0.97800
| 57>    C        7.61900         5.15300        -0.11500
| 58>    C        4.32100        -0.14800        -0.09200
| 59>    C        3.02500         0.51400         0.01500
| 60>    C        4.38700         3.58200        -1.11500
| 61>    C        2.86600         1.91600         0.01300
| 62>    N        6.41300         4.29600        -0.09500
| 63>    H       -5.06000         5.80600         1.95100
| 64>    H        2.27400         4.76600         0.08100
| 65>    H       -2.17900         4.81500        -1.90100
| 66>    H       -3.61500         6.84500        -1.79800
| 67>    H       -4.56700         8.43800         0.48900
| 68>    H       -5.51100         7.85000        -0.91200
| 69>    H       -6.04600         7.46700         0.74800
| 70>    H       -0.33200         5.28200         0.06900
| 71>    H       -3.68100         3.73700         2.00300
| 72>    H        0.18200         1.07200         0.00500
| 73>    H       -0.18300        -1.08000        -0.02100
| 74>    H       -5.86400        -4.96200         1.89500
| 75>    H       -4.79400         2.27200         0.13900
| 76>    H       -4.80000        -2.16000        -1.99400
| 77>    H       -6.84100        -3.58200        -1.89300
| 78>    H       -8.42800        -4.53600         0.54600
| 79>    H       -7.95600        -5.33700        -0.98100
| 80>    H       -7.45600        -6.03700         0.58400
| 81>    H       -5.28700        -0.34400         0.10000
| 82>    H       -3.78000        -3.60100         1.94700
| 83>    H        3.58700        -6.86800        -1.84300
| 84>    H       -2.27600        -4.77400        -0.05000
| 85>    H        3.71400        -3.72400         1.92600
| 86>    H        5.09200        -5.79500         1.87100
| 87>    H        6.20500        -7.32900        -0.43900
| 88>    H        5.39300        -7.91700         1.04200
| 89>    H        4.75900        -8.37300        -0.56400
| 90>    H        0.32900        -5.29000        -0.00800
| 91>    H        2.14600        -4.84200        -1.94000
| 92>    H        5.80800         4.98600        -1.95600
| 93>    H        4.78800        -2.28100        -0.18500
| 94>    H        4.86000         2.11400         1.91200
| 95>    H        6.90100         3.53100         1.77200
| 96>    H        7.38300         6.10900         0.35600
| 97>    H        8.41400         4.65200         0.43500
| 98>    H        7.92100         5.31000        -1.15000
| 99>    H        5.28300         0.33600        -0.17900
|100>    H        3.72000         3.63200        -1.96700
|101> *
|102> 
|103>                          ****END OF INPUT****
================================================================================

                       ****************************
                       * Single Point Calculation *
                       ****************************

---------------------------------
CARTESIAN COORDINATES (ANGSTROEM)
---------------------------------
  C     -4.401000    5.539000    1.133000
  C      1.474000    4.041000    0.057000
  C     -2.802000    4.093000    0.049000
  C     -2.801000    4.989000   -1.031000
  C     -3.590000    6.122000   -0.993000
  C     -5.182000    7.623000    0.102000
  C      0.132000    4.307000    0.061000
  C     -0.569000    3.056000    0.047000
  C      1.649000    2.618000    0.023000
  C     -3.625000    4.396000    1.145000
  N     -4.377000    6.382000    0.076000
  N      0.388000    2.067000    0.025000
  N     -2.010000    0.395000   -0.075000
  N     -0.388000   -2.074000   -0.027000
  N      2.010000   -0.401000    0.065000
  C     -1.960000    2.861000    0.024000
  C     -2.623000    1.615000   -0.018000
  C     -5.573000   -4.329000    1.066000
  C     -4.073000    1.471000    0.056000
  C     -4.106000   -2.756000   -0.026000
  C     -4.995000   -2.757000   -1.111000
  C     -6.132000   -3.542000   -1.076000
  C     -7.651000   -5.113000    0.040000
  C     -4.324000    0.141000    0.037000
  C     -3.025000   -0.520000   -0.048000
  C     -4.422000   -3.566000    1.075000
  N     -6.407000   -4.313000    0.001000
  C     -2.867000   -1.922000   -0.040000
  C     -1.650000   -2.624000   -0.027000
  C      3.568000   -6.142000   -1.040000
  C     -1.476000   -4.049000   -0.034000
  C      2.803000   -4.099000   -0.008000
  C      3.657000   -4.384000    1.069000
  C      4.427000   -5.530000    1.059000
  C      5.245000   -7.588000    0.014000
  C     -0.134000   -4.315000   -0.022000
  C      0.568000   -3.064000   -0.027000
  C      2.775000   -5.012000   -1.074000
  N      4.376000   -6.391000    0.017000
  C      1.959000   -2.869000   -0.009000
  C      2.621000   -1.622000    0.009000
  C      5.543000    4.339000   -1.130000
  C      4.070000   -1.479000   -0.094000
  C      4.104000    2.751000   -0.021000
  C      5.027000    2.729000    1.036000
  C      6.166000    3.509000    0.978000
  C      7.619000    5.153000   -0.115000
  C      4.321000   -0.148000   -0.092000
  C      3.025000    0.514000    0.015000
  C      4.387000    3.582000   -1.115000
  C      2.866000    1.916000    0.013000
  N      6.413000    4.296000   -0.095000
  H     -5.060000    5.806000    1.951000
  H      2.274000    4.766000    0.081000
  H     -2.179000    4.815000   -1.901000
  H     -3.615000    6.845000   -1.798000
  H     -4.567000    8.438000    0.489000
  H     -5.511000    7.850000   -0.912000
  H     -6.046000    7.467000    0.748000
  H     -0.332000    5.282000    0.069000
  H     -3.681000    3.737000    2.003000
  H      0.182000    1.072000    0.005000
  H     -0.183000   -1.080000   -0.021000
  H     -5.864000   -4.962000    1.895000
  H     -4.794000    2.272000    0.139000
  H     -4.800000   -2.160000   -1.994000
  H     -6.841000   -3.582000   -1.893000
  H     -8.428000   -4.536000    0.546000
  H     -7.956000   -5.337000   -0.981000
  H     -7.456000   -6.037000    0.584000
  H     -5.287000   -0.344000    0.100000
  H     -3.780000   -3.601000    1.947000
  H      3.587000   -6.868000   -1.843000
  H     -2.276000   -4.774000   -0.050000
  H      3.714000   -3.724000    1.926000
  H      5.092000   -5.795000    1.871000
  H      6.205000   -7.329000   -0.439000
  H      5.393000   -7.917000    1.042000
  H      4.759000   -8.373000   -0.564000
  H      0.329000   -5.290000   -0.008000
  H      2.146000   -4.842000   -1.940000
  H      5.808000    4.986000   -1.956000
  H      4.788000   -2.281000   -0.185000
  H      4.860000    2.114000    1.912000
  H      6.901000    3.531000    1.772000
  H      7.383000    6.109000    0.356000
  H      8.414000    4.652000    0.435000
  H      7.921000    5.310000   -1.150000
  H      5.283000    0.336000   -0.179000
  H      3.720000    3.632000   -1.967000

----------------------------
CARTESIAN COORDINATES (A.U.)
----------------------------
  NO LB      ZA    FRAG     MASS         X           Y           Z
   0 C     6.0000    0    12.011   -8.316685   10.467193    2.141060
   1 C     6.0000    0    12.011    2.785456    7.636383    0.107714
   2 C     6.0000    0    12.011   -5.295013    7.734649    0.092597
   3 C     6.0000    0    12.011   -5.293123    9.427844   -1.948308
   4 C     6.0000    0    12.011   -6.784117   11.568903   -1.876498
   5 C     6.0000    0    12.011   -9.792561   14.405382    0.192752
   6 C     6.0000    0    12.011    0.249444    8.139050    0.115273
   7 C     6.0000    0    12.011   -1.075254    5.775003    0.088817
   8 C     6.0000    0    12.011    3.116158    4.947303    0.043464
   9 C     6.0000    0    12.011   -6.850257    8.307236    2.163736
  10 N     7.0000    0    14.007   -8.271331   12.060232    0.143619
  11 N     7.0000    0    14.007    0.733214    3.906064    0.047243
  12 N     7.0000    0    14.007   -3.798350    0.746442   -0.141729
  13 N     7.0000    0    14.007   -0.733214   -3.919292   -0.051023
  14 N     7.0000    0    14.007    3.798350   -0.757780    0.122832
  15 C     6.0000    0    12.011   -3.703863    5.406506    0.045353
  16 C     6.0000    0    12.011   -4.956752    3.051908   -0.034015
  17 C     6.0000    0    12.011  -10.531444   -8.180624    2.014448
  18 C     6.0000    0    12.011   -7.696855    2.779787    0.105825
  19 C     6.0000    0    12.011   -7.759216   -5.208085   -0.049133
  20 C     6.0000    0    12.011   -9.439182   -5.209975   -2.099486
  21 C     6.0000    0    12.011  -11.587801   -6.693410   -2.033345
  22 C     6.0000    0    12.011  -14.458295   -9.662170    0.075589
  23 C     6.0000    0    12.011   -8.171176    0.266451    0.069920
  24 C     6.0000    0    12.011   -5.716422   -0.982658   -0.090707
  25 C     6.0000    0    12.011   -8.356369   -6.738763    2.031456
  26 N     7.0000    0    14.007  -12.107475   -8.150389    0.001890
  27 C     6.0000    0    12.011   -5.417845   -3.632054   -0.075589
  28 C     6.0000    0    12.011   -3.118048   -4.958641   -0.051023
  29 C     6.0000    0    12.011    6.742543  -11.606698   -1.965315
  30 C     6.0000    0    12.011   -2.789236   -7.651501   -0.064251
  31 C     6.0000    0    12.011    5.296902   -7.745987   -0.015118
  32 C     6.0000    0    12.011    6.910728   -8.284559    2.020117
  33 C     6.0000    0    12.011    8.365818  -10.450186    2.001220
  34 C     6.0000    0    12.011    9.911614  -14.339242    0.026456
  35 C     6.0000    0    12.011   -0.253223   -8.154168   -0.041574
  36 C     6.0000    0    12.011    1.073364   -5.790121   -0.051023
  37 C     6.0000    0    12.011    5.243990   -9.471307   -2.029566
  38 N     7.0000    0    14.007    8.269442  -12.077240    0.032125
  39 C     6.0000    0    12.011    3.701973   -5.421624   -0.017008
  40 C     6.0000    0    12.011    4.952972   -3.065136    0.017008
  41 C     6.0000    0    12.011   10.474752    8.199522   -2.135391
  42 C     6.0000    0    12.011    7.691185   -2.794905   -0.177634
  43 C     6.0000    0    12.011    7.755436    5.198637   -0.039684
  44 C     6.0000    0    12.011    9.499653    5.157063    1.957756
  45 C     6.0000    0    12.011   11.652051    6.631049    1.848152
  46 C     6.0000    0    12.011   14.397823    9.737759   -0.217319
  47 C     6.0000    0    12.011    8.165507   -0.279679   -0.173855
  48 C     6.0000    0    12.011    5.716422    0.971319    0.028346
  49 C     6.0000    0    12.011    8.290229    6.768999   -2.107045
  50 C     6.0000    0    12.011    5.415955    3.620715    0.024566
  51 N     7.0000    0    14.007   12.118814    8.118263   -0.179524
  52 H     1.0000    0     1.008   -9.562014   10.971750    3.686856
  53 H     1.0000    0     1.008    4.297237    9.006435    0.153068
  54 H     1.0000    0     1.008   -4.117713    9.099031   -3.592369
  55 H     1.0000    0     1.008   -6.831360   12.935175   -3.397728
  56 H     1.0000    0     1.008   -8.630379   15.945509    0.924076
  57 H     1.0000    0     1.008  -10.414281   14.834350   -1.723430
  58 H     1.0000    0     1.008  -11.425284   14.110585    1.413515
  59 H     1.0000    0     1.008   -0.627389    9.981533    0.130391
  60 H     1.0000    0     1.008   -6.956082    7.061907    3.785121
  61 H     1.0000    0     1.008    0.343930    2.025786    0.009449
  62 H     1.0000    0     1.008   -0.345820   -2.040904   -0.039684
  63 H     1.0000    0     1.008  -11.081354   -9.376821    3.581031
  64 H     1.0000    0     1.008   -9.059347    4.293458    0.262672
  65 H     1.0000    0     1.008   -9.070685   -4.081808   -3.768114
  66 H     1.0000    0     1.008  -12.927616   -6.768999   -3.577252
  67 H     1.0000    0     1.008  -15.926612   -8.571798    1.031790
  68 H     1.0000    0     1.008  -15.034661  -10.085468   -1.853821
  69 H     1.0000    0     1.008  -14.089798  -11.408277    1.103600
  70 H     1.0000    0     1.008   -9.990982   -0.650066    0.188973
  71 H     1.0000    0     1.008   -7.143165   -6.804904    3.679297
  72 H     1.0000    0     1.008    6.778448  -12.978639   -3.482765
  73 H     1.0000    0     1.008   -4.301017   -9.021553   -0.094486
  74 H     1.0000    0     1.008    7.018443   -7.037340    3.639613
  75 H     1.0000    0     1.008    9.622485  -10.950963    3.535678
  76 H     1.0000    0     1.008   11.725751  -13.849803   -0.829590
  77 H     1.0000    0     1.008   10.191293  -14.960962    1.969095
  78 H     1.0000    0     1.008    8.993207  -15.822677   -1.065806
  79 H     1.0000    0     1.008    0.621720   -9.996651   -0.015118
  80 H     1.0000    0     1.008    4.055352   -9.150054   -3.666069
  81 H     1.0000    0     1.008   10.975529    9.422175   -3.696304
  82 H     1.0000    0     1.008    9.048009   -4.310465   -0.349599
  83 H     1.0000    0     1.008    9.184069    3.994881    3.613156
  84 H     1.0000    0     1.008   13.041000    6.672623    3.348595
  85 H     1.0000    0     1.008   13.951848   11.544337    0.672743
  86 H     1.0000    0     1.008   15.900156    8.791006    0.822031
  87 H     1.0000    0     1.008   14.968521   10.034446   -2.173185
  88 H     1.0000    0     1.008    9.983423    0.634948   -0.338261
  89 H     1.0000    0     1.008    7.029781    6.863485   -3.717091

--------------------------------
INTERNAL COORDINATES (ANGSTROEM)
--------------------------------
 C      0   0   0     0.000000000000     0.00000000     0.00000000
 C      1   0   0     6.157711019527     0.00000000     0.00000000
 C      1   2   0     2.413042270662    31.07385376     0.00000000
 C      3   1   2     1.403287924839    87.91330279   271.22431691
 C      4   3   1     1.381178482311   120.14495492     0.16128198
 C      5   4   3     2.446730471466   152.52909089     1.57757652
 C      2   1   3     1.368114030335    10.36329678    36.42750772
 C      7   2   3     1.434084376876   108.05010202     0.84668783
 C      2   1   3     1.434123425651   111.22008666   321.41295904
 C      1   2   3     1.381582064157    42.63936609    47.99176221
 N      1   2   3     1.352210782386    89.89321877   268.63827571
 N      9   2   1     1.376127174356   106.58526707     9.77885826
 N     12   9   2     2.925062050624   168.53581413   171.12065651
 N     13  12   9     2.954513327098    91.55032014    11.12112580
 N     14  13  12     2.925371258490    88.43092389   359.84326247
 C      8   7   2     1.404790019896   127.24786865   181.11170171
 C     13  12   9     1.366535034311    81.72106996   188.00453233
 C     14  13  12     5.758810554272    80.56209567   166.76250791
 C     17  13  12     1.459010623676   111.08861209   183.82872609
 C     18  14  13     2.412235892279    27.27532823    36.33507194
 C     20  18  14     1.402692767501    87.95206320   148.94598259
 C     21  20  18     1.382106725257   120.14573887   359.70382047
 C     18  14  13     2.446510985056   144.15733107    82.80075377
 C     19  17  13     1.353610726908   106.29293361   359.75308708
 C     13  12   9     1.366813447402   172.21332906    33.46711076
 C     18  14  13     1.380960173213    15.08449437   309.23336894
 N     22  21  20     1.352773077792   120.73759875     0.27865223
 C     25  13  17     1.410897586645   125.60330303   182.37774668
 C     14  13  12     1.376642291955    80.24689249   177.85461986
 C     14  13  12     5.764089607215   164.51507311   312.20821879
 C     29  14  13     1.435600919476   106.58649366   178.76395472
 C     30  14  13     2.413316804732    27.10625047    82.12560436
 C     32  30  14     1.403734305344    87.90059683   149.76154742
 C     33  32  30     1.380694028378   120.14881443   359.74174632
 C     34  33  32     2.448777858443   152.49203239     2.45173620
 C     31  29  14     1.368160809262   108.16950133     0.70383075
 C     14  13  12     1.376239804685   169.26375223   353.09862627
 C     30  14  13     1.380907310430    14.68948582   353.70041132
 N     34  33  32     1.352658863128   120.85575621     0.19603406
 C     37  14  29     1.404717053360   126.01551127   180.90772073
 C     15  14  13     1.366491126938    81.61824056   183.09049352
 C      2   1   3     4.249062720177   160.98091975   123.04149409
 C     41  15  14     1.459677704153   111.05201287   175.08990246
 C     42   2   1     2.412953791518    41.78584867   173.46732571
 C     44  42   2     1.403446472082    87.95153797   233.97558675
 C     45  44  42     1.381696421071   120.11137308     0.19721020
 C     42   2   1     2.450019795838   135.97209175    83.78217481
 C     43  41  15     1.354461516618   106.26758155     0.30894352
 C     15  14  13     1.367461151185   171.87382904   332.35056460
 C     42   2   1     1.381886391857    32.59078432   222.32260490
 C      9   2   1     1.404988612053   126.98745415   190.78319579
 N     42   2   1     1.352765315936   113.57249190   111.51876401
 H      1   2   3     1.083833012968   140.52686852   134.11882434
 H      2   1   3     1.079907866440   122.65554539   151.96154004
 H      4   3   1     1.083540493014   121.05244519   179.49866056
 H      5   4   3     1.082302637898   122.73253022   179.45138056
 H      6   5   4     1.091887814750   104.47997534   100.11508870
 H      6   5   4     1.089938530377    84.71073613   209.57869640
 H      6   5   4     1.090022018126   133.88229836   322.36867377
 H      7   2  54     1.079807853278   126.66122480     1.30600390
 H     10   1   2     1.083319435808   118.75801957   131.52123184
 H     12   9   2     1.016297692608   125.29023241   180.00180175
 H     14  13  12     1.014936943854    44.97226959   359.42596618
 H     18  14  13     1.082871645210   128.03556573   234.20482432
 H     19  17  13     1.080893611786   126.41830519   178.11313280
 H     21  20  18     1.083569563987   121.05669627   180.67006309
 H     22  21  20     1.082483256222   122.73097286   180.59748951
 H     23  18  14     1.092105306278   103.92715769   234.93429879
 H     23  18  14     1.088871893291   134.19244188    12.25587044
 H     23  18  14     1.089833473518    84.85857450   125.45241208
 H     24  19  17     1.080075460327   127.28078426   178.44613241
 H     26  18  14     1.083408048706   118.76995697   244.94906660
 H     30  14  13     1.082703098730   127.99711412   279.66882698
 H     31  29  14     1.079759695488   125.22293469   180.92530585
 H     33  32  30     1.083188810873   121.01964473   180.74284758
 H     34  33  32     1.082494341787   122.70821597   180.59516895
 H     35  34  33     1.092652735319   105.73575241    97.19771933
 H     35  34  33     1.089462711615    84.05943581   206.43036958
 H     35  34  33     1.089268102902   133.08365142   318.50306270
 H     36  31  29     1.079439669458   126.61599965   178.98859863
 H     38  30  73     1.083742127999   118.77264435   359.90091293
 H     42   2   1     1.082178358682   119.31790784   328.15029446
 H     43  41  15     1.080281907652   126.36969097   182.06329380
 H     45  44  42     1.083277434455   121.10105945   179.58025624
 H     46  45  44     1.082194529648   122.72144639   179.46906377
 H     47  42   2     1.091546151109   106.65128841   315.16475048
 H     47  42   2     1.088818625851   132.46019523    94.52397119
 H     47  42   2     1.089531091801    83.63838232   206.04504406
 H     48  43  41     1.080402239909   127.23657387   181.62955349
 H     50  42   2     1.083186502870   118.77001737    94.71359229

---------------------------
INTERNAL COORDINATES (A.U.)
---------------------------
 C      0   0   0     0.000000000000     0.00000000     0.00000000
 C      1   0   0    11.636387438734     0.00000000     0.00000000
 C      1   2   0     4.559989041126    31.07385376     0.00000000
 C      3   1   2     2.651829864985    87.91330279   271.22431691
 C      4   3   1     2.610049073634   120.14495492     0.16128198
 C      5   4   3     4.623650514591   152.52909089     1.57757652
 C      2   1   3     2.585360837309    10.36329678    36.42750772
 C      7   2   3     2.710026725231   108.05010202     0.84668783
 C      2   1   3     2.710100516721   111.22008666   321.41295904
 C      1   2   3     2.610811732794    42.63936609    47.99176221
 N      1   2   3     2.555308054044    89.89321877   268.63827571
 N      9   2   1     2.600503484979   106.58526707     9.77885826
 N     12   9   2     5.527566200405   168.53581413   171.12065651
 N     13  12   9     5.583221047236    91.55032014    11.12112580
 N     14  13  12     5.528150518591    88.43092389   359.84326247
 C      8   7   2     2.654668413270   127.24786865   181.11170171
 C     13  12   9     2.582376967257    81.72106996   188.00453233
 C     14  13  12    10.882574804710    80.56209567   166.76250791
 C     17  13  12     2.757130505230   111.08861209   183.82872609
 C     18  14  13     4.558465206823    27.27532823    36.33507194
 C     20  18  14     2.650705180609    87.95206320   148.94598259
 C     21  20  18     2.611803198586   120.14573887   359.70382047
 C     18  14  13     4.623235745386   144.15733107    82.80075377
 C     19  17  13     2.557953565794   106.29293361   359.75308708
 C     13  12   9     2.582903091751   172.21332906    33.46711076
 C     18  14  13     2.609636529225    15.08449437   309.23336894
 N     22  21  20     2.556370638369   120.73759875     0.27865223
 C     25  13  17     2.666210041769   125.60330303   182.37774668
 C     14  13  12     2.601476916169    80.24689249   177.85461986
 C     14  13  12    10.892550769017   164.51507311   312.20821879
 C     29  14  13     2.712892575415   106.58649366   178.76395472
 C     30  14  13     4.560507835333    27.10625047    82.12560436
 C     32  30  14     2.652673401891    87.90059683   149.76154742
 C     33  32  30     2.609133588376   120.14881443   359.74174632
 C     34  33  32     4.627519515267   152.49203239     2.45173620
 C     31  29  14     2.585449236669   108.16950133     0.70383075
 C     14  13  12     2.600716325456   169.26375223   353.09862627
 C     30  14  13     2.609536633043    14.68948582   353.70041132
 N     34  33  32     2.556154803934   120.85575621     0.19603406
 C     37  14  29     2.654530526499   126.01551127   180.90772073
 C     15  14  13     2.582293994346    81.61824056   183.09049352
 C      2   1   3     8.029564866989   160.98091975   123.04149409
 C     41  15  14     2.758391104639   111.05201287   175.08990246
 C     42   2   1     4.559821839776    41.78584867   173.46732571
 C     44  42   2     2.652129475853    87.95153797   233.97558675
 C     45  44  42     2.611027836043   120.11137308     0.19721020
 C     42   2   1     4.629866436820   135.97209175    83.78217481
 C     43  41  15     2.559561325344   106.26758155     0.30894352
 C     15  14  13     2.584127074516   171.87382904   332.35056460
 C     42   2   1     2.611386828803    32.59078432   222.32260490
 C      9   2   1     2.655043698059   126.98745415   190.78319579
 N     42   2   1     2.556355970587   113.57249190   111.51876401
 H      1   2   3     2.048147569413   140.52686852   134.11882434
 H      2   1   3     2.040730117440   122.65554539   151.96154004
 H      4   3   1     2.047594786810   121.05244519   179.49866056
 H      5   4   3     2.045255579647   122.73253022   179.45138056
 H      6   5   4     2.063368938844   104.47997534   100.11508870
 H      6   5   4     2.059685325221    84.71073613   209.57869640
 H      6   5   4     2.059843094203   133.88229836   322.36867377
 H      7   2  54     2.040541119952   126.66122480     1.30600390
 H     10   1   2     2.047177049232   118.75801957   131.52123184
 H     12   9   2     1.920524309565   125.29023241   180.00180175
 H     14  13  12     1.917952867083    44.97226959   359.42596618
 H     18  14  13     2.046330847636   128.03556573   234.20482432
 H     19  17  13     2.042592906181   126.41830519   178.11313280
 H     21  20  18     2.047649722989   121.05669627   180.67006309
 H     22  21  20     2.045596898814   122.73097286   180.59748951
 H     23  18  14     2.063779938267   103.92715769   234.93429879
 H     23  18  14     2.057669673245   134.19244188    12.25587044
 H     23  18  14     2.059486796529    84.85857450   125.45241208
 H     24  19  17     2.041046823986   127.28078426   178.44613241
 H     26  18  14     2.047344503340   118.76995697   244.94906660
 H     30  14  13     2.046012340948   127.99711412   279.66882698
 H     31  29  14     2.040450114918   125.22293469   180.92530585
 H     33  32  30     2.046930203877   121.01964473   180.74284758
 H     34  33  32     2.045617847496   122.70821597   180.59516895
 H     35  34  33     2.064814429233   105.73575241    97.19771933
 H     35  34  33     2.058786158072    84.05943581   206.43036958
 H     35  34  33     2.058418400901   133.08365142   318.50306270
 H     36  31  29     2.039845353366   126.61599965   178.98859863
 H     38  30  73     2.047975821711   118.77264435   359.90091293
 H     42   2   1     2.045020725966   119.31790784   328.15029446
 H     43  41  15     2.041436952892   126.36969097   182.06329380
 H     45  44  42     2.047097678177   121.10105945   179.58025624
 H     46  45  44     2.045051284662   122.72144639   179.46906377
 H     47  42   2     2.062723288131   106.65128841   315.16475048
 H     47  42   2     2.057569012371   132.46019523    94.52397119
 H     47  42   2     2.058915377895    83.63838232   206.04504406
 H     48  43  41     2.041664347903   127.23657387   181.62955349
 H     50  42   2     2.046925842384   118.77001737    94.71359229

---------------------
BASIS SET INFORMATION
---------------------
There are 3 groups of distinct atoms

 Group   1 Type C   : 17s4p1d contracted to 3s2p1d pattern {881/31/1}
 Group   2 Type N   : 17s4p1d contracted to 3s2p1d pattern {881/31/1}
 Group   3 Type H   : 4s1p contracted to 2s1p pattern {31/1}

Atom   0C    basis set group =>   1
Atom   1N    basis set group =>   2
Atom   2C    basis set group =>   1
Atom   3N    basis set group =>   2
Atom   4C    basis set group =>   1
Atom   5N    basis set group =>   2
Atom   6C    basis set group =>   1
Atom   7N    basis set group =>   2
Atom   8C    basis set group =>   1
Atom   9N    basis set group =>   2
Atom  10C    basis set group =>   1
Atom  11N    basis set group =>   2
Atom  12C    basis set group =>   1
Atom  13N    basis set group =>   2
Atom  14C    basis set group =>   1
Atom  15N    basis set group =>   2
Atom  16C    basis set group =>   1
Atom  17C    basis set group =>   1
Atom  18C    basis set group =>   1
Atom  19C    basis set group =>   1
Atom  20C    basis set group =>   1
Atom  21C    basis set group =>   1
Atom  22C    basis set group =>   1
Atom  23C    basis set group =>   1
Atom  24C    basis set group =>   1
Atom  25C    basis set group =>   1
Atom  26C    basis set group =>   1
Atom  27C    basis set group =>   1
Atom  28C    basis set group =>   1
Atom  29C    basis set group =>   1
Atom  30C    basis set group =>   1
Atom  31C    basis set group =>   1
Atom  32C    basis set group =>   1
Atom  33C    basis set group =>   1
Atom  34C    basis set group =>   1
Atom  35C    basis set group =>   1
Atom  36C    basis set group =>   1
Atom  37C    basis set group =>   1
Atom  38C    basis set group =>   1
Atom  39C    basis set group =>   1
Atom  40C    basis set group =>   1
Atom  41C    basis set group =>   1
Atom  42C    basis set group =>   1
Atom  43C    basis set group =>   1
Atom  44C    basis set group =>   1
Atom  45C    basis set group =>   1
Atom  46C    basis set group =>   1
Atom  47C    basis set group =>   1
Atom  48C    basis set group =>   1
Atom  49C    basis set group =>   1
Atom  50C    basis set group =>   1
Atom  51C    basis set group =>   1
Atom  52H    basis set group =>   3
Atom  53H    basis set group =>   3
Atom  54H    basis set group =>   3
Atom  55H    basis set group =>   3
Atom  56H    basis set group =>   3
Atom  57H    basis set group =>   3
Atom  58H    basis set group =>   3
Atom  59H    basis set group =>   3
Atom  60H    basis set group =>   3
Atom  61H    basis set group =>   3
Atom  62H    basis set group =>   3
Atom  63H    basis set group =>   3
Atom  64H    basis set group =>   3
Atom  65H    basis set group =>   3
Atom  66H    basis set group =>   3
Atom  67H    basis set group =>   3
Atom  68H    basis set group =>   3
Atom  69H    basis set group =>   3
Atom  70H    basis set group =>   3
Atom  71H    basis set group =>   3
Atom  72H    basis set group =>   3
Atom  73H    basis set group =>   3
Atom  74H    basis set group =>   3
Atom  75H    basis set group =>   3
Atom  76H    basis set group =>   3
Atom  77H    basis set group =>   3
Atom  78H    basis set group =>   3
Atom  79H    basis set group =>   3
Atom  80H    basis set group =>   3
Atom  81H    basis set group =>   3
Atom  82H    basis set group =>   3
Atom  83H    basis set group =>   3
Atom  84H    basis set group =>   3
Atom  85H    basis set group =>   3
Atom  86H    basis set group =>   3
Atom  87H    basis set group =>   3
Atom  88H    basis set group =>   3
Atom  89H    basis set group =>   3


           ************************************************************
           *        Program running with 16 parallel MPI-processes    *
           *              working on a common directory               *
           ************************************************************
------------------------------------------------------------------------------
                           ORCA GTO INTEGRAL CALCULATION
------------------------------------------------------------------------------
------------------------------------------------------------------------------
                   ___                                                        
                  /   \      - P O W E R E D   B Y -                         
                 /     \                                                     
                 |  |  |   _    _      __       _____    __    __             
                 |  |  |  | |  | |    /  \     |  _  \  |  |  /  |          
                  \  \/   | |  | |   /    \    | | | |  |  | /  /          
                 / \  \   | |__| |  /  /\  \   | |_| |  |  |/  /          
                |  |  |   |  __  | /  /__\  \  |    /   |      \           
                |  |  |   | |  | | |   __   |  |    \   |  |\   \          
                \     /   | |  | | |  |  |  |  | |\  \  |  | \   \       
                 \___/    |_|  |_| |__|  |__|  |_| \__\ |__|  \__/        
                                                                              
                      - O R C A' S   B I G   F R I E N D -                    
                                      &                                       
                       - I N T E G R A L  F E E D E R -                       
                                                                              
 v1 FN, 2020, v2 2021                                                         
------------------------------------------------------------------------------


Reading SHARK input file /scratch/allen/tmpyp4_amber_gaff2/conf1/conf1/Conf247.orca.SHARKINP.tmp ... ok
----------------------
SHARK INTEGRAL PACKAGE
----------------------

Number of atoms                             ...     90
Number of basis functions                   ...   1230
Number of shells                            ...    738
Maximum angular momentum                    ...      2
Integral batch strategy                     ... SHARK/LIBINT Hybrid
RI-J (if used) integral strategy            ... SPLIT-RIJ (Revised 2003 algorithm where possible)
Printlevel                                  ...      1
Contraction scheme used                     ... PARTIAL GENERAL contraction
Coulomb Range Separation                    ... NOT USED
Exchange Range Separation                   ... NOT USED
Finite Nucleus Model                        ... NOT USED
Auxiliary Coulomb fitting basis             ... NOT available
Auxiliary J/K fitting basis                 ... NOT available
Auxiliary Correlation fitting basis         ... NOT available
Auxiliary 'external' fitting basis          ... NOT available
Integral threshold                          ...     2.500000e-11
Primitive cut-off                           ...     2.500000e-12
Primitive pair pre-selection threshold      ...     2.500000e-12

Calculating pre-screening integrals         ... done (  0.1 sec) Dimension = 738
Calculating pre-screening integrals (ORCA)  ... done (  0.3 sec) Dimension = 426
Organizing shell pair data                  ... done (  0.7 sec)
Shell pair information
Total number of shell pairs                 ...    272691
Shell pairs after pre-screening             ...     71598
Total number of primitive shell pairs       ...    422091
Primitive shell pairs kept                  ...     92346
          la=0 lb=0:  29409 shell pairs
          la=1 lb=0:  25964 shell pairs
          la=1 lb=1:   4694 shell pairs
          la=2 lb=0:   7877 shell pairs
          la=2 lb=1:   3123 shell pairs
          la=2 lb=2:    531 shell pairs

Calculating one electron integrals          ... done (  0.2 sec)
Calculating Nuclear repulsion               ... done (  0.0 sec) ENN=   6223.905032512214 Eh

SHARK setup successfully completed in   2.3 seconds

Maximum memory used throughout the entire GTOINT-calculation: 99.0 MB


           ************************************************************
           *        Program running with 16 parallel MPI-processes    *
           *              working on a common directory               *
           ************************************************************
-------------------------------------------------------------------------------
                                 ORCA SCF
-------------------------------------------------------------------------------

------------
SCF SETTINGS
------------
Hamiltonian:
 Ab initio Hamiltonian  Method          .... Hartree-Fock(GTOs)


General Settings:
 Integral files         IntName         .... /scratch/allen/tmpyp4_amber_gaff2/conf1/conf1/Conf247.orca
 Hartree-Fock type      HFTyp           .... RHF
 Total Charge           Charge          ....    0
 Multiplicity           Mult            ....    1
 Number of Electrons    NEL             ....  358
 Basis Dimension        Dim             ....  918
 Nuclear Repulsion      ENuc            ....   6223.9050325122 Eh

Convergence Acceleration:
 DIIS                   CNVDIIS         .... on
   Start iteration      DIISMaxIt       ....    12
   Startup error        DIISStart       ....  0.200000
   # of expansion vecs  DIISMaxEq       ....     5
   Bias factor          DIISBfac        ....   1.050
   Max. coefficient     DIISMaxC        ....  10.000
 Trust-Rad. Augm. Hess. CNVTRAH         .... auto
   Auto Start mean grad. ratio tolernc. ....  1.125000
   Auto Start start iteration           ....    20
   Auto Start num. interpolation iter.  ....    10
   Max. Number of Micro iterations      ....    16
   Max. Number of Macro iterations      .... Maxiter - #DIIS iter
   Number of Davidson start vectors     ....     2
   Converg. threshold I  (grad. norm)   ....   1.000e-05
   Converg. threshold II (energy diff.) ....   1.000e-08
   Grad. Scal. Fac. for Micro threshold ....   0.100
   Minimum threshold for Micro iter.    ....   0.010
   NR start threshold (gradient norm)   ....   0.001
   Initial trust radius                 ....   0.400
   Minimum AH scaling param. (alpha)    ....   1.000
   Maximum AH scaling param. (alpha)    .... 1000.000
   Orbital update algorithm             .... Taylor
   White noise on init. David. guess    .... on
   Maximum white noise                  ....   0.010
   Quad. conv. algorithm                .... NR
 SOSCF                  CNVSOSCF        .... on
   Start iteration      SOSCFMaxIt      ....   150
   Startup grad/error   SOSCFStart      ....  0.003300
 Level Shifting         CNVShift        .... on
   Level shift para.    LevelShift      ....    0.2500
   Turn off err/grad.   ShiftErr        ....    0.0010
 Zerner damping         CNVZerner       .... off
 Static damping         CNVDamp         .... on
   Fraction old density DampFac         ....    0.7000
   Max. Damping (<1)    DampMax         ....    0.9800
   Min. Damping (>=0)   DampMin         ....    0.0000
   Turn off err/grad.   DampErr         ....    0.1000
 Fernandez-Rico         CNVRico         .... off

SCF Procedure:
 Maximum # iterations   MaxIter         ....   125
 SCF integral mode      SCFMode         .... Direct
   Integral package                     .... SHARK and LIBINT hybrid scheme
 Reset frequency        DirectResetFreq ....    20
 Integral Threshold     Thresh          ....  2.500e-11 Eh
 Primitive CutOff       TCut            ....  2.500e-12 Eh

Convergence Tolerance:
 Convergence Check Mode ConvCheckMode   .... Total+1el-Energy
 Convergence forced     ConvForced      .... 1
 Energy Change          TolE            ....  1.000e-08 Eh
 1-El. energy change                    ....  1.000e-05 Eh
 Orbital Gradient       TolG            ....  1.000e-05
 Orbital Rotation angle TolX            ....  1.000e-05
 DIIS Error             TolErr          ....  5.000e-07


Diagonalization of the overlap matrix:
Smallest eigenvalue                        ... 2.254e-04
Time for diagonalization                   ...    0.482 sec
Threshold for overlap eigenvalues          ... 1.000e-08
Number of eigenvalues below threshold      ... 0
Time for construction of square roots      ...    0.269 sec
Total time needed                          ...    0.758 sec

Time for model grid setup =    1.301 sec

------------------------------
INITIAL GUESS: MODEL POTENTIAL
------------------------------
Loading Hartree-Fock densities                     ... done
Calculating cut-offs                               ... done
Initializing the effective Hamiltonian             ... done
Setting up the integral package (SHARK)            ... done
Starting the Coulomb interaction                   ... done (   1.4 sec)
Reading the grid                                   ... done
Mapping shells                                     ... done
Starting the XC term evaluation                    ... done (   0.2 sec)
Transforming the Hamiltonian                       ... done (   0.3 sec)
Diagonalizing the Hamiltonian                      ... done (   0.4 sec)
Back transforming the eigenvectors                 ... done (   0.1 sec)
Now organizing SCF variables                       ... done
                      ------------------
                      INITIAL GUESS DONE (   3.8 sec)
                      ------------------
--------------
SCF ITERATIONS
--------------
ITER       Energy         Delta-E        Max-DP      RMS-DP      [F,P]     Damp
               ***  Starting incremental Fock matrix formation  ***
  0  -2121.6584820949   0.000000000000 0.06918861  0.00121275  0.2337232 0.7000
  1  -2122.3262157006  -0.667733605693 0.05253084  0.00098398  0.1445120 0.7000
                               ***Turning on DIIS***
  2  -2122.7411411914  -0.414925490868 0.11670588  0.00222690  0.0803131 0.0000
  3  -2117.6932176989   5.047923492510 0.03136051  0.00068886  0.0443901 0.0000
  4  -2123.4021902905  -5.708972591618 0.00885676  0.00023031  0.0070098 0.0000
  5  -2123.5847378206  -0.182547530076 0.00510091  0.00013753  0.0049620 0.0000
  6  -2123.5673977727   0.017340047885 0.00327642  0.00009084  0.0020142 0.0000
  7  -2123.6744998294  -0.107102056660 0.00279650  0.00007343  0.0014949 0.0000
  8  -2123.6991972845  -0.024697455112 0.00262295  0.00007097  0.0013831 0.0000
  9  -2123.6599635891   0.039233695396 0.00224043  0.00004931  0.0010738 0.0000
 10  -2123.6795823712  -0.019618782091 0.00507375  0.00010227  0.0008097 0.0000
                      *** Initiating the SOSCF procedure ***
                           *** Shutting down DIIS ***
                      *** Re-Reading the Fockian *** 
                      *** Removing any level shift *** 
ITER      Energy       Delta-E        Grad      Rot      Max-DP    RMS-DP
 11  -2123.54025570   0.1393266753  0.000355  0.000355  0.000284  0.000007
               *** Restarting incremental Fock matrix formation ***
 12  -2123.61814501  -0.0778893119  0.001084  0.007501  0.001281  0.000031
 13  -2123.61823109  -0.0000860852  0.001170  0.029756  0.004559  0.000099
 14  -2123.61833700  -0.0001059036  0.000448  0.002817  0.000441  0.000013
 15  -2123.61835042  -0.0000134228  0.000206  0.002821  0.000441  0.000012
 16  -2123.61835557  -0.0000051492  0.000135  0.002507  0.000583  0.000013
 17  -2123.61835981  -0.0000042406  0.000154  0.003782  0.000625  0.000014
 18  -2123.61836280  -0.0000029947  0.000091  0.003970  0.000499  0.000014
 19  -2123.61836536  -0.0000025522  0.000111  0.002878  0.000443  0.000010
 20  -2123.61836664  -0.0000012867  0.000059  0.001308  0.000238  0.000005
 21  -2123.61836707  -0.0000004267  0.000041  0.000618  0.000126  0.000003
 22  -2123.61836733  -0.0000002594  0.000037  0.000402  0.000099  0.000002
 23  -2123.61836748  -0.0000001552  0.000024  0.000452  0.000103  0.000002
 24  -2123.61836755  -0.0000000664  0.000009  0.000255  0.000032  0.000001
 25  -2123.61836757  -0.0000000184  0.000008  0.000214  0.000031  0.000001
 26  -2123.61836758  -0.0000000109  0.000007  0.000145  0.000023  0.000001
 27  -2123.61836757   0.0000000049  0.000004  0.000184  0.000027  0.000001
 28  -2123.61836757   0.0000000019  0.000003  0.000164  0.000023  0.000001
 29  -2123.61836757   0.0000000007  0.000003  0.000070  0.000013  0.000000
                  ***Gradient check signals convergence***
              ***Rediagonalizing the Fockian in SOSCF/NRSCF***

               *****************************************************
               *                     SUCCESS                       *
               *           SCF CONVERGED AFTER  30 CYCLES          *
               *****************************************************


----------------
TOTAL SCF ENERGY
----------------

Total Energy       :        -2123.61836757 Eh          -57786.59360 eV

Components:
Nuclear Repulsion  :         6223.90503251 Eh          169361.06608 eV
Electronic Energy  :        -8347.52340008 Eh         -227147.65968 eV
One Electron Energy:       -15289.09926454 Eh         -416037.54193 eV
Two Electron Energy:         6941.57586446 Eh          188889.88225 eV

Virial components:
Potential Energy   :        -4245.61141786 Eh         -115528.96006 eV
Kinetic Energy     :         2121.99305029 Eh           57742.36646 eV
Virial Ratio       :            2.00076594


---------------
SCF CONVERGENCE
---------------

  Last Energy change         ...    3.1669e-09  Tolerance :   1.0000e-08
  Last MAX-Density change    ...    4.6974e-06  Tolerance :   1.0000e-07
  Last RMS-Density change    ...    1.1444e-07  Tolerance :   5.0000e-09
  Last Orbital Gradient      ...    1.2535e-06  Tolerance :   1.0000e-05
  Last Orbital Rotation      ...    2.7651e-05  Tolerance :   1.0000e-05

             **** THE GBW FILE WAS UPDATED (/scratch/allen/tmpyp4_amber_gaff2/conf1/conf1/Conf247.orca.gbw) ****
             **** DENSITY /scratch/allen/tmpyp4_amber_gaff2/conf1/conf1/Conf247.orca.scfp WAS UPDATED ****
             **** ENERGY FILE WAS UPDATED (/scratch/allen/tmpyp4_amber_gaff2/conf1/conf1/Conf247.orca.en.tmp) ****
             **** THE GBW FILE WAS UPDATED (/scratch/allen/tmpyp4_amber_gaff2/conf1/conf1/Conf247.orca.gbw) ****
             **** DENSITY /scratch/allen/tmpyp4_amber_gaff2/conf1/conf1/Conf247.orca.scfp WAS UPDATED ****
----------------
ORBITAL ENERGIES
----------------

  NO   OCC          E(Eh)            E(eV) 
   0   2.0000     -15.650525      -425.8724 
   1   2.0000     -15.638799      -425.5533 
   2   2.0000     -15.627187      -425.2374 
   3   2.0000     -15.618447      -424.9995 
   4   2.0000     -15.517279      -422.2466 
   5   2.0000     -15.514281      -422.1650 
   6   2.0000     -15.445832      -420.3025 
   7   2.0000     -15.438657      -420.1072 
   8   2.0000     -11.309492      -307.7469 
   9   2.0000     -11.304220      -307.6035 
  10   2.0000     -11.303167      -307.5748 
  11   2.0000     -11.302292      -307.5510 
  12   2.0000     -11.295001      -307.3526 
  13   2.0000     -11.294949      -307.3512 
  14   2.0000     -11.292808      -307.2929 
  15   2.0000     -11.289716      -307.2088 
  16   2.0000     -11.285601      -307.0968 
  17   2.0000     -11.282650      -307.0165 
  18   2.0000     -11.278399      -306.9008 
  19   2.0000     -11.275699      -306.8274 
  20   2.0000     -11.253046      -306.2109 
  21   2.0000     -11.242342      -305.9197 
  22   2.0000     -11.241989      -305.9101 
  23   2.0000     -11.241420      -305.8946 
  24   2.0000     -11.233840      -305.6883 
  25   2.0000     -11.233023      -305.6661 
  26   2.0000     -11.231442      -305.6231 
  27   2.0000     -11.225393      -305.4585 
  28   2.0000     -11.225161      -305.4522 
  29   2.0000     -11.223803      -305.4152 
  30   2.0000     -11.219220      -305.2905 
  31   2.0000     -11.218374      -305.2675 
  32   2.0000     -11.198715      -304.7325 
  33   2.0000     -11.198485      -304.7263 
  34   2.0000     -11.193521      -304.5912 
  35   2.0000     -11.193353      -304.5866 
  36   2.0000     -11.177682      -304.1602 
  37   2.0000     -11.177039      -304.1427 
  38   2.0000     -11.174558      -304.0752 
  39   2.0000     -11.169617      -303.9407 
  40   2.0000     -11.165388      -303.8257 
  41   2.0000     -11.163354      -303.7703 
  42   2.0000     -11.163224      -303.7668 
  43   2.0000     -11.160607      -303.6955 
  44   2.0000     -11.159268      -303.6591 
  45   2.0000     -11.155828      -303.5655 
  46   2.0000     -11.153202      -303.4941 
  47   2.0000     -11.149611      -303.3964 
  48   2.0000     -11.149477      -303.3927 
  49   2.0000     -11.147843      -303.3482 
  50   2.0000     -11.134720      -302.9911 
  51   2.0000     -11.132937      -302.9426 
  52   2.0000      -1.335384       -36.3376 
  53   2.0000      -1.325291       -36.0630 
  54   2.0000      -1.315138       -35.7867 
  55   2.0000      -1.307923       -35.5904 
  56   2.0000      -1.216262       -33.0962 
  57   2.0000      -1.211451       -32.9653 
  58   2.0000      -1.164308       -31.6824 
  59   2.0000      -1.152187       -31.3526 
  60   2.0000      -1.121802       -30.5258 
  61   2.0000      -1.112606       -30.2755 
  62   2.0000      -1.104766       -30.0622 
  63   2.0000      -1.097340       -29.8601 
  64   2.0000      -1.058406       -28.8007 
  65   2.0000      -1.049035       -28.5457 
  66   2.0000      -1.039731       -28.2925 
  67   2.0000      -1.033076       -28.1114 
  68   2.0000      -1.027593       -27.9622 
  69   2.0000      -1.011949       -27.5365 
  70   2.0000      -1.006958       -27.4007 
  71   2.0000      -0.996362       -27.1124 
  72   2.0000      -0.980355       -26.6768 
  73   2.0000      -0.975266       -26.5383 
  74   2.0000      -0.969572       -26.3834 
  75   2.0000      -0.961292       -26.1581 
  76   2.0000      -0.950101       -25.8536 
  77   2.0000      -0.946986       -25.7688 
  78   2.0000      -0.934773       -25.4365 
  79   2.0000      -0.922543       -25.1037 
  80   2.0000      -0.892549       -24.2875 
  81   2.0000      -0.883592       -24.0437 
  82   2.0000      -0.875771       -23.8309 
  83   2.0000      -0.866976       -23.5916 
  84   2.0000      -0.861285       -23.4367 
  85   2.0000      -0.857711       -23.3395 
  86   2.0000      -0.851983       -23.1836 
  87   2.0000      -0.839087       -22.8327 
  88   2.0000      -0.822163       -22.3722 
  89   2.0000      -0.797487       -21.7007 
  90   2.0000      -0.796849       -21.6834 
  91   2.0000      -0.739685       -20.1278 
  92   2.0000      -0.731022       -19.8921 
  93   2.0000      -0.727181       -19.7876 
  94   2.0000      -0.722905       -19.6712 
  95   2.0000      -0.716731       -19.5033 
  96   2.0000      -0.710693       -19.3389 
  97   2.0000      -0.708524       -19.2799 
  98   2.0000      -0.698077       -18.9956 
  99   2.0000      -0.691073       -18.8050 
 100   2.0000      -0.687787       -18.7156 
 101   2.0000      -0.682184       -18.5632 
 102   2.0000      -0.679742       -18.4967 
 103   2.0000      -0.671842       -18.2817 
 104   2.0000      -0.669426       -18.2160 
 105   2.0000      -0.665127       -18.0990 
 106   2.0000      -0.664294       -18.0764 
 107   2.0000      -0.660436       -17.9714 
 108   2.0000      -0.659172       -17.9370 
 109   2.0000      -0.656208       -17.8563 
 110   2.0000      -0.650998       -17.7146 
 111   2.0000      -0.648508       -17.6468 
 112   2.0000      -0.646613       -17.5952 
 113   2.0000      -0.641961       -17.4687 
 114   2.0000      -0.633455       -17.2372 
 115   2.0000      -0.624406       -16.9910 
 116   2.0000      -0.623576       -16.9684 
 117   2.0000      -0.616008       -16.7624 
 118   2.0000      -0.611727       -16.6459 
 119   2.0000      -0.607999       -16.5445 
 120   2.0000      -0.607121       -16.5206 
 121   2.0000      -0.601677       -16.3725 
 122   2.0000      -0.600121       -16.3301 
 123   2.0000      -0.593950       -16.1622 
 124   2.0000      -0.591739       -16.1020 
 125   2.0000      -0.584604       -15.9079 
 126   2.0000      -0.577219       -15.7069 
 127   2.0000      -0.571688       -15.5564 
 128   2.0000      -0.569386       -15.4938 
 129   2.0000      -0.563690       -15.3388 
 130   2.0000      -0.553695       -15.0668 
 131   2.0000      -0.546579       -14.8732 
 132   2.0000      -0.540513       -14.7081 
 133   2.0000      -0.534629       -14.5480 
 134   2.0000      -0.531994       -14.4763 
 135   2.0000      -0.528158       -14.3719 
 136   2.0000      -0.525287       -14.2938 
 137   2.0000      -0.523211       -14.2373 
 138   2.0000      -0.519608       -14.1392 
 139   2.0000      -0.515326       -14.0227 
 140   2.0000      -0.508998       -13.8506 
 141   2.0000      -0.504525       -13.7288 
 142   2.0000      -0.503705       -13.7065 
 143   2.0000      -0.502005       -13.6602 
 144   2.0000      -0.498313       -13.5598 
 145   2.0000      -0.496293       -13.5048 
 146   2.0000      -0.495328       -13.4786 
 147   2.0000      -0.493553       -13.4303 
 148   2.0000      -0.488902       -13.3037 
 149   2.0000      -0.467255       -12.7147 
 150   2.0000      -0.460549       -12.5322 
 151   2.0000      -0.452075       -12.3016 
 152   2.0000      -0.446933       -12.1617 
 153   2.0000      -0.445113       -12.1122 
 154   2.0000      -0.443068       -12.0565 
 155   2.0000      -0.439930       -11.9711 
 156   2.0000      -0.433884       -11.8066 
 157   2.0000      -0.427733       -11.6392 
 158   2.0000      -0.393120       -10.6973 
 159   2.0000      -0.381071       -10.3695 
 160   2.0000      -0.375514       -10.2183 
 161   2.0000      -0.370928       -10.0935 
 162   2.0000      -0.366966        -9.9857 
 163   2.0000      -0.359411        -9.7801 
 164   2.0000      -0.351539        -9.5659 
 165   2.0000      -0.346010        -9.4154 
 166   2.0000      -0.337891        -9.1945 
 167   2.0000      -0.333770        -9.0823 
 168   2.0000      -0.324861        -8.8399 
 169   2.0000      -0.300097        -8.1661 
 170   2.0000      -0.293568        -7.9884 
 171   2.0000      -0.288571        -7.8524 
 172   2.0000      -0.286683        -7.8010 
 173   2.0000      -0.257425        -7.0049 
 174   2.0000      -0.244218        -6.6455 
 175   2.0000      -0.186763        -5.0821 
 176   2.0000      -0.176546        -4.8041 
 177   2.0000      -0.064058        -1.7431 
 178   2.0000      -0.052610        -1.4316 
 179   0.0000       0.032573         0.8864 
 180   0.0000       0.068855         1.8736 
 181   0.0000       0.092191         2.5086 
 182   0.0000       0.095633         2.6023 
 183   0.0000       0.126421         3.4401 
 184   0.0000       0.134673         3.6646 
 185   0.0000       0.143004         3.8913 
 186   0.0000       0.149224         4.0606 
 187   0.0000       0.156637         4.2623 
 188   0.0000       0.161200         4.3865 
 189   0.0000       0.162684         4.4269 
 190   0.0000       0.168775         4.5926 
 191   0.0000       0.173265         4.7148 
 192   0.0000       0.196301         5.3416 
 193   0.0000       0.199423         5.4266 
 194   0.0000       0.202136         5.5004 
 195   0.0000       0.206438         5.6175 
 196   0.0000       0.208601         5.6763 
 197   0.0000       0.212342         5.7781 
 198   0.0000       0.213562         5.8113 
 199   0.0000       0.216753         5.8981 
 200   0.0000       0.231604         6.3023 
 201   0.0000       0.237224         6.4552 
 202   0.0000       0.242864         6.6087 
 203   0.0000       0.247170         6.7258 
 204   0.0000       0.248498         6.7620 
 205   0.0000       0.254398         6.9225 
 206   0.0000       0.256584         6.9820 
 207   0.0000       0.261070         7.1041 
 208   0.0000       0.263369         7.1666 
 209   0.0000       0.265486         7.2242 
 210   0.0000       0.266864         7.2617 
 211   0.0000       0.268871         7.3164 
 212   0.0000       0.271922         7.3994 
 213   0.0000       0.274436         7.4678 
 214   0.0000       0.278233         7.5711 
 215   0.0000       0.280542         7.6339 
 216   0.0000       0.281763         7.6672 
 217   0.0000       0.283139         7.7046 
 218   0.0000       0.286076         7.7845 
 219   0.0000       0.286879         7.8064 
 220   0.0000       0.290876         7.9151 
 221   0.0000       0.291164         7.9230 
 222   0.0000       0.294013         8.0005 
 223   0.0000       0.295071         8.0293 
 224   0.0000       0.300306         8.1717 
 225   0.0000       0.301842         8.2135 
 226   0.0000       0.302017         8.2183 
 227   0.0000       0.304966         8.2986 
 228   0.0000       0.306639         8.3441 
 229   0.0000       0.309011         8.4086 
 230   0.0000       0.315606         8.5881 
 231   0.0000       0.316750         8.6192 
 232   0.0000       0.326178         8.8758 
 233   0.0000       0.327486         8.9113 
 234   0.0000       0.331909         9.0317 
 235   0.0000       0.338949         9.2233 
 236   0.0000       0.357449         9.7267 
 237   0.0000       0.383883        10.4460 
 238   0.0000       0.396735        10.7957 
 239   0.0000       0.400015        10.8850 
 240   0.0000       0.404224        10.9995 
 241   0.0000       0.410448        11.1689 
 242   0.0000       0.419513        11.4155 
 243   0.0000       0.423581        11.5262 
 244   0.0000       0.429687        11.6924 
 245   0.0000       0.431038        11.7291 
 246   0.0000       0.433769        11.8035 
 247   0.0000       0.438108        11.9215 
 248   0.0000       0.441081        12.0024 
 249   0.0000       0.445089        12.1115 
 250   0.0000       0.446788        12.1577 
 251   0.0000       0.451304        12.2806 
 252   0.0000       0.454640        12.3714 
 253   0.0000       0.464247        12.6328 
 254   0.0000       0.469976        12.7887 
 255   0.0000       0.476925        12.9778 
 256   0.0000       0.481550        13.1036 
 257   0.0000       0.486803        13.2466 
 258   0.0000       0.489791        13.3279 
 259   0.0000       0.496831        13.5195 
 260   0.0000       0.498920        13.5763 
 261   0.0000       0.503968        13.7137 
 262   0.0000       0.506383        13.7794 
 263   0.0000       0.511262        13.9121 
 264   0.0000       0.511948        13.9308 
 265   0.0000       0.515712        14.0332 
 266   0.0000       0.516732        14.0610 
 267   0.0000       0.522251        14.2112 
 268   0.0000       0.534889        14.5551 
 269   0.0000       0.539877        14.6908 
 270   0.0000       0.541763        14.7421 
 271   0.0000       0.544115        14.8061 
 272   0.0000       0.549640        14.9565 
 273   0.0000       0.551772        15.0145 
 274   0.0000       0.562496        15.3063 
 275   0.0000       0.563587        15.3360 
 276   0.0000       0.572342        15.5742 
 277   0.0000       0.575659        15.6645 
 278   0.0000       0.581106        15.8127 
 279   0.0000       0.585534        15.9332 
 280   0.0000       0.588891        16.0246 
 281   0.0000       0.591251        16.0888 
 282   0.0000       0.591755        16.1025 
 283   0.0000       0.596769        16.2389 
 284   0.0000       0.600749        16.3472 
 285   0.0000       0.601273        16.3615 
 286   0.0000       0.606914        16.5150 
 287   0.0000       0.607514        16.5313 
 288   0.0000       0.611301        16.6343 
 289   0.0000       0.615819        16.7573 
 290   0.0000       0.616785        16.7836 
 291   0.0000       0.627950        17.0874 
 292   0.0000       0.633999        17.2520 
 293   0.0000       0.641671        17.4608 
 294   0.0000       0.646893        17.6028 
 295   0.0000       0.648503        17.6467 
 296   0.0000       0.653771        17.7900 
 297   0.0000       0.658025        17.9058 
 298   0.0000       0.663963        18.0674 
 299   0.0000       0.665554        18.1106 
 300   0.0000       0.670650        18.2493 
 301   0.0000       0.672436        18.2979 
 302   0.0000       0.674896        18.3648 
 303   0.0000       0.681973        18.5574 
 304   0.0000       0.682991        18.5851 
 305   0.0000       0.687029        18.6950 
 306   0.0000       0.688968        18.7478 
 307   0.0000       0.692866        18.8538 
 308   0.0000       0.697576        18.9820 
 309   0.0000       0.700609        19.0645 
 310   0.0000       0.702305        19.1107 
 311   0.0000       0.706955        19.2372 
 312   0.0000       0.708088        19.2681 
 313   0.0000       0.709542        19.3076 
 314   0.0000       0.710309        19.3285 
 315   0.0000       0.714792        19.4505 
 316   0.0000       0.715829        19.4787 
 317   0.0000       0.719107        19.5679 
 318   0.0000       0.720151        19.5963 
 319   0.0000       0.722367        19.6566 
 320   0.0000       0.726235        19.7619 
 321   0.0000       0.728123        19.8132 
 322   0.0000       0.730152        19.8685 
 323   0.0000       0.734207        19.9788 
 324   0.0000       0.737101        20.0575 
 325   0.0000       0.741994        20.1907 
 326   0.0000       0.744222        20.2513 
 327   0.0000       0.744678        20.2637 
 328   0.0000       0.747117        20.3301 
 329   0.0000       0.750660        20.4265 
 330   0.0000       0.751389        20.4463 
 331   0.0000       0.756005        20.5719 
 332   0.0000       0.757334        20.6081 
 333   0.0000       0.758528        20.6406 
 334   0.0000       0.767217        20.8770 
 335   0.0000       0.768842        20.9212 
 336   0.0000       0.770785        20.9741 
 337   0.0000       0.780613        21.2416 
 338   0.0000       0.781609        21.2687 
 339   0.0000       0.789277        21.4773 
 340   0.0000       0.791084        21.5265 
 341   0.0000       0.793377        21.5889 
 342   0.0000       0.797241        21.6940 
 343   0.0000       0.797668        21.7057 
 344   0.0000       0.805353        21.9148 
 345   0.0000       0.806634        21.9496 
 346   0.0000       0.807120        21.9629 
 347   0.0000       0.810658        22.0591 
 348   0.0000       0.814470        22.1628 
 349   0.0000       0.816348        22.2140 
 350   0.0000       0.818446        22.2711 
 351   0.0000       0.822279        22.3754 
 352   0.0000       0.827012        22.5041 
 353   0.0000       0.828038        22.5321 
 354   0.0000       0.829998        22.5854 
 355   0.0000       0.832392        22.6505 
 356   0.0000       0.833264        22.6743 
 357   0.0000       0.835193        22.7267 
 358   0.0000       0.836838        22.7715 
 359   0.0000       0.839344        22.8397 
 360   0.0000       0.840227        22.8637 
 361   0.0000       0.843821        22.9615 
 362   0.0000       0.846055        23.0223 
 363   0.0000       0.847395        23.0588 
 364   0.0000       0.848953        23.1012 
 365   0.0000       0.849705        23.1217 
 366   0.0000       0.851273        23.1643 
 367   0.0000       0.852287        23.1919 
 368   0.0000       0.855633        23.2829 
 369   0.0000       0.858041        23.3485 
 370   0.0000       0.864548        23.5255 
 371   0.0000       0.865462        23.5504 
 372   0.0000       0.870995        23.7010 
 373   0.0000       0.874423        23.7943 
 374   0.0000       0.880887        23.9702 
 375   0.0000       0.882854        24.0237 
 376   0.0000       0.884395        24.0656 
 377   0.0000       0.890231        24.2244 
 378   0.0000       0.891358        24.2551 
 379   0.0000       0.891559        24.2605 
 380   0.0000       0.899239        24.4695 
 381   0.0000       0.900155        24.4945 
 382   0.0000       0.901740        24.5376 
 383   0.0000       0.902921        24.5697 
 384   0.0000       0.907079        24.6829 
 385   0.0000       0.908202        24.7134 
 386   0.0000       0.908766        24.7288 
 387   0.0000       0.911066        24.7914 
 388   0.0000       0.912766        24.8376 
 389   0.0000       0.915598        24.9147 
 390   0.0000       0.917113        24.9559 
 391   0.0000       0.920896        25.0588 
 392   0.0000       0.923508        25.1299 
 393   0.0000       0.925277        25.1781 
 394   0.0000       0.927775        25.2460 
 395   0.0000       0.929630        25.2965 
 396   0.0000       0.933239        25.3947 
 397   0.0000       0.935669        25.4608 
 398   0.0000       0.937476        25.5100 
 399   0.0000       0.942787        25.6545 
 400   0.0000       0.945204        25.7203 
 401   0.0000       0.946325        25.7508 
 402   0.0000       0.948481        25.8095 
 403   0.0000       0.950306        25.8592 
 404   0.0000       0.954344        25.9690 
 405   0.0000       0.956070        26.0160 
 406   0.0000       0.959218        26.1017 
 407   0.0000       0.963500        26.2182 
 408   0.0000       0.968683        26.3592 
 409   0.0000       0.973049        26.4780 
 410   0.0000       0.975002        26.5311 
 411   0.0000       0.976947        26.5841 
 412   0.0000       0.981007        26.6945 
 413   0.0000       0.990160        26.9436 
 414   0.0000       0.991394        26.9772 
 415   0.0000       0.992113        26.9968 
 416   0.0000       0.995094        27.0779 
 417   0.0000       1.004166        27.3247 
 418   0.0000       1.006251        27.3815 
 419   0.0000       1.012706        27.5571 
 420   0.0000       1.025310        27.9001 
 421   0.0000       1.030822        28.0501 
 422   0.0000       1.032675        28.1005 
 423   0.0000       1.035259        28.1708 
 424   0.0000       1.039070        28.2745 
 425   0.0000       1.047258        28.4973 
 426   0.0000       1.054640        28.6982 
 427   0.0000       1.066412        29.0186 
 428   0.0000       1.069362        29.0988 
 429   0.0000       1.073863        29.2213 
 430   0.0000       1.075585        29.2682 
 431   0.0000       1.082398        29.4535 
 432   0.0000       1.083462        29.4825 
 433   0.0000       1.090892        29.6847 
 434   0.0000       1.093391        29.7527 
 435   0.0000       1.100703        29.9516 
 436   0.0000       1.110135        30.2083 
 437   0.0000       1.114082        30.3157 
 438   0.0000       1.116394        30.3786 
 439   0.0000       1.118366        30.4323 
 440   0.0000       1.120183        30.4817 
 441   0.0000       1.124729        30.6054 
 442   0.0000       1.126686        30.6587 
 443   0.0000       1.133860        30.8539 
 444   0.0000       1.135278        30.8925 
 445   0.0000       1.135862        30.9084 
 446   0.0000       1.139058        30.9953 
 447   0.0000       1.141006        31.0483 
 448   0.0000       1.141571        31.0637 
 449   0.0000       1.148535        31.2532 
 450   0.0000       1.149563        31.2812 
 451   0.0000       1.152617        31.3643 
 452   0.0000       1.152871        31.3712 
 453   0.0000       1.160376        31.5754 
 454   0.0000       1.162569        31.6351 
 455   0.0000       1.165479        31.7143 
 456   0.0000       1.173439        31.9309 
 457   0.0000       1.177888        32.0520 
 458   0.0000       1.181336        32.1458 
 459   0.0000       1.184576        32.2339 
 460   0.0000       1.189388        32.3649 
 461   0.0000       1.192432        32.4477 
 462   0.0000       1.197694        32.5909 
 463   0.0000       1.206255        32.8239 
 464   0.0000       1.208743        32.8916 
 465   0.0000       1.212352        32.9898 
 466   0.0000       1.213403        33.0184 
 467   0.0000       1.220587        33.2139 
 468   0.0000       1.223093        33.2820 
 469   0.0000       1.227853        33.4116 
 470   0.0000       1.232329        33.5334 
 471   0.0000       1.233844        33.5746 
 472   0.0000       1.237900        33.6850 
 473   0.0000       1.239263        33.7221 
 474   0.0000       1.241396        33.7801 
 475   0.0000       1.247500        33.9462 
 476   0.0000       1.249789        34.0085 
 477   0.0000       1.251705        34.0606 
 478   0.0000       1.254519        34.1372 
 479   0.0000       1.257805        34.2266 
 480   0.0000       1.262560        34.3560 
 481   0.0000       1.264131        34.3988 
 482   0.0000       1.266466        34.4623 
 483   0.0000       1.269766        34.5521 
 484   0.0000       1.274991        34.6943 
 485   0.0000       1.279105        34.8062 
 486   0.0000       1.281481        34.8709 
 487   0.0000       1.282613        34.9017 
 488   0.0000       1.289640        35.0929 
 489   0.0000       1.290387        35.1132 
 490   0.0000       1.292147        35.1611 
 491   0.0000       1.297142        35.2970 
 492   0.0000       1.298353        35.3300 
 493   0.0000       1.307832        35.5879 
 494   0.0000       1.311994        35.7012 
 495   0.0000       1.314726        35.7755 
 496   0.0000       1.321431        35.9580 
 497   0.0000       1.322739        35.9936 
 498   0.0000       1.327812        36.1316 
 499   0.0000       1.331241        36.2249 
 500   0.0000       1.336193        36.3597 
 501   0.0000       1.340575        36.4789 
 502   0.0000       1.341428        36.5021 
 503   0.0000       1.342535        36.5322 
 504   0.0000       1.346836        36.6493 
 505   0.0000       1.349204        36.7137 
[...]
      pz      :     0.021893  p :     0.079452
      px      :     0.043126
      py      :     0.014432
 77 H s       :     0.891570  s :     0.891570
      pz      :     0.047432  p :     0.078676
      px      :     0.015008
      py      :     0.016236
 78 H s       :     0.891959  s :     0.891959
      pz      :     0.025605  p :     0.078606
      px      :     0.020614
      py      :     0.032386
 79 H s       :     0.908422  s :     0.908422
      pz      :     0.022305  p :     0.086918
      px      :     0.021822
      py      :     0.042791
 80 H s       :     0.874167  s :     0.874167
      pz      :     0.038594  p :     0.083741
      px      :     0.029742
      py      :     0.015405
 81 H s       :     0.887566  s :     0.887566
      pz      :     0.037692  p :     0.083663
      px      :     0.016110
      py      :     0.029861
 82 H s       :     0.914576  s :     0.914576
      pz      :     0.022211  p :     0.086965
      px      :     0.031209
      py      :     0.033544
 83 H s       :     0.872155  s :     0.872155
      pz      :     0.039255  p :     0.083888
      px      :     0.015241
      py      :     0.029391
 84 H s       :     0.887378  s :     0.887378
      pz      :     0.035818  p :     0.083968
      px      :     0.031763
      py      :     0.016387
 85 H s       :     0.894223  s :     0.894223
      pz      :     0.022509  p :     0.079701
      px      :     0.014101
      py      :     0.043090
 86 H s       :     0.890551  s :     0.890551
      pz      :     0.024724  p :     0.078890
      px      :     0.033008
      py      :     0.021158
 87 H s       :     0.890423  s :     0.890423
      pz      :     0.047920  p :     0.078677
      px      :     0.015627
      py      :     0.015131
 88 H s       :     0.915471  s :     0.915471
      pz      :     0.022197  p :     0.086885
      px      :     0.042339
      py      :     0.022350
 89 H s       :     0.873291  s :     0.873291
      pz      :     0.037870  p :     0.083951
      px      :     0.030498
      py      :     0.015582


                      *****************************
                      * MAYER POPULATION ANALYSIS *
                      *****************************

  NA   - Mulliken gross atomic population
  ZA   - Total nuclear charge
  QA   - Mulliken gross atomic charge
  VA   - Mayer's total valence
  BVA  - Mayer's bonded valence
  FA   - Mayer's free valence

  ATOM       NA         ZA         QA         VA         BVA        FA
  0 C      5.7851     6.0000     0.2149     3.8211     3.8211     0.0000
  1 N      7.4343     7.0000    -0.4343     3.3981     3.3981     0.0000
  2 C      6.0654     6.0000    -0.0654     3.9178     3.9178    -0.0000
  3 N      7.3390     7.0000    -0.3390     3.4380     3.4380    -0.0000
  4 C      6.0714     6.0000    -0.0714     3.9792     3.9792    -0.0000
  5 N      7.5644     7.0000    -0.5644     3.0791     3.0791    -0.0000
  6 C      6.0500     6.0000    -0.0500     3.9855     3.9855    -0.0000
  7 N      7.3373     7.0000    -0.3373     3.4435     3.4435     0.0000
  8 C      5.7890     6.0000     0.2110     3.8225     3.8225    -0.0000
  9 N      7.5642     7.0000    -0.5642     3.0862     3.0862    -0.0000
 10 C      5.8883     6.0000     0.1117     3.8854     3.8854     0.0000
 11 N      7.4375     7.0000    -0.4375     3.3842     3.3842    -0.0000
 12 C      6.0667     6.0000    -0.0667     3.9149     3.9149    -0.0000
 13 N      7.4434     7.0000    -0.4434     3.3601     3.3601    -0.0000
 14 C      5.7631     6.0000     0.2369     3.7964     3.7964     0.0000
 15 N      7.4407     7.0000    -0.4407     3.3707     3.3707    -0.0000
 16 C      5.7596     6.0000     0.2404     3.7975     3.7975     0.0000
 17 C      6.0562     6.0000    -0.0562     3.9870     3.9870    -0.0000
 18 C      6.2059     6.0000    -0.2059     3.7324     3.7324    -0.0000
 19 C      5.7602     6.0000     0.2398     3.8783     3.8783    -0.0000
 20 C      5.7964     6.0000     0.2036     3.8237     3.8237    -0.0000
 21 C      6.0787     6.0000    -0.0787     3.9036     3.9036     0.0000
 22 C      6.0861     6.0000    -0.0861     3.9846     3.9846    -0.0000
 23 C      6.0538     6.0000    -0.0538     3.9890     3.9890    -0.0000
 24 C      5.7895     6.0000     0.2105     3.8248     3.8248    -0.0000
 25 C      5.8862     6.0000     0.1138     3.8900     3.8900     0.0000
 26 C      6.0706     6.0000    -0.0706     3.9069     3.9069     0.0000
 27 C      5.7693     6.0000     0.2307     3.8911     3.8911     0.0000
 28 C      6.0484     6.0000    -0.0484     3.9877     3.9877    -0.0000
 29 C      6.1892     6.0000    -0.1892     3.7307     3.7307     0.0000
 30 C      5.7691     6.0000     0.2309     3.7898     3.7898    -0.0000
 31 C      5.7968     6.0000     0.2032     3.8294     3.8294    -0.0000
 32 C      6.0662     6.0000    -0.0662     3.9154     3.9154     0.0000
 33 C      6.0882     6.0000    -0.0882     3.9858     3.9858     0.0000
 34 C      6.0507     6.0000    -0.0507     3.9944     3.9944    -0.0000
 35 C      5.8036     6.0000     0.1964     3.8271     3.8271    -0.0000
 36 C      5.8837     6.0000     0.1163     3.8975     3.8975     0.0000
 37 C      6.0680     6.0000    -0.0680     3.9169     3.9169     0.0000
 38 C      5.7611     6.0000     0.2389     3.7975     3.7975    -0.0000
 39 C      6.0623     6.0000    -0.0623     3.9937     3.9937     0.0000
 40 C      6.1943     6.0000    -0.1943     3.7448     3.7448     0.0000
 41 C      5.7798     6.0000     0.2202     3.8794     3.8794     0.0000
 42 C      5.7935     6.0000     0.2065     3.8289     3.8289    -0.0000
 43 C      6.0743     6.0000    -0.0743     3.9042     3.9042     0.0000
 44 C      6.0890     6.0000    -0.0890     3.9847     3.9847    -0.0000
 45 C      6.0480     6.0000    -0.0480     3.9938     3.9938    -0.0000
 46 C      5.8018     6.0000     0.1982     3.8238     3.8238     0.0000
 47 C      5.8842     6.0000     0.1158     3.8943     3.8943     0.0000
 48 C      6.0766     6.0000    -0.0766     3.9019     3.9019     0.0000
 49 C      5.7790     6.0000     0.2210     3.8781     3.8781     0.0000
 50 C      6.0571     6.0000    -0.0571     3.9900     3.9900     0.0000
 51 C      6.1891     6.0000    -0.1891     3.7375     3.7375    -0.0000
 52 H      0.9374     1.0000     0.0626     0.9843     0.9843     0.0000
 53 H      1.0123     1.0000    -0.0123     0.9999     0.9999    -0.0000
 54 H      0.9491     1.0000     0.0509     1.0069     1.0069    -0.0000
 55 H      0.9398     1.0000     0.0602     0.9853     0.9853    -0.0000
 56 H      0.9340     1.0000     0.0660     0.9719     0.9719     0.0000
 57 H      0.9380     1.0000     0.0620     0.9844     0.9844     0.0000
 58 H      0.9390     1.0000     0.0610     0.9858     0.9858     0.0000
 59 H      1.0175     1.0000    -0.0175     0.9982     0.9982    -0.0000
 60 H      0.9479     1.0000     0.0521     1.0085     1.0085    -0.0000
 61 H      0.8258     1.0000     0.1742     1.0429     1.0429    -0.0000
 62 H      0.8287     1.0000     0.1713     1.0434     1.0434     0.0000
 63 H      0.9436     1.0000     0.0564     0.9856     0.9856    -0.0000
 64 H      1.0233     1.0000    -0.0233     0.9946     0.9946    -0.0000
 65 H      0.9536     1.0000     0.0464     1.0085     1.0085     0.0000
 66 H      0.9421     1.0000     0.0579     0.9848     0.9848     0.0000
 67 H      0.9378     1.0000     0.0622     0.9719     0.9719    -0.0000
 68 H      0.9418     1.0000     0.0582     0.9867     0.9867     0.0000
 69 H      0.9405     1.0000     0.0595     0.9830     0.9830    -0.0000
 70 H      1.0219     1.0000    -0.0219     0.9953     0.9953     0.0000
 71 H      0.9517     1.0000     0.0483     1.0070     1.0070     0.0000
 72 H      0.9496     1.0000     0.0504     0.9854     0.9854     0.0000
 73 H      1.0166     1.0000    -0.0166     0.9978     0.9978     0.0000
 74 H      0.9588     1.0000     0.0412     1.0096     1.0096     0.0000
 75 H      0.9506     1.0000     0.0494     0.9860     0.9860    -0.0000
 76 H      0.9430     1.0000     0.0570     0.9712     0.9712     0.0000
 77 H      0.9457     1.0000     0.0543     0.9848     0.9848    -0.0000
 78 H      0.9465     1.0000     0.0535     0.9843     0.9843    -0.0000
 79 H      1.0133     1.0000    -0.0133     1.0002     1.0002     0.0000
 80 H      0.9586     1.0000     0.0414     1.0069     1.0069    -0.0000
 81 H      0.9472     1.0000     0.0528     0.9854     0.9854    -0.0000
 82 H      1.0230     1.0000    -0.0230     0.9946     0.9946     0.0000
 83 H      0.9565     1.0000     0.0435     1.0097     1.0097    -0.0000
 84 H      0.9475     1.0000     0.0525     0.9858     0.9858    -0.0000
 85 H      0.9420     1.0000     0.0580     0.9715     0.9715     0.0000
 86 H      0.9434     1.0000     0.0566     0.9841     0.9841     0.0000
 87 H      0.9438     1.0000     0.0562     0.9855     0.9855     0.0000
 88 H      1.0244     1.0000    -0.0244     0.9934     0.9934     0.0000
 89 H      0.9572     1.0000     0.0428     1.0068     1.0068    -0.0000

  Mayer bond orders larger than 0.100000
B(  0-C ,  1-N ) :   1.1369 B(  0-C , 17-C ) :   1.6079 B(  0-C , 52-H ) :   0.9689 
B(  1-N ,  8-C ) :   1.1322 B(  1-N , 10-C ) :   0.9534 B(  2-C , 12-C ) :   1.5446 
B(  2-C , 16-C ) :   1.3134 B(  2-C , 53-H ) :   0.9782 B(  3-N , 14-C ) :   1.1945 
B(  3-N , 16-C ) :   1.1989 B(  3-N , 61-H ) :   0.8974 B(  4-C ,  6-C ) :   1.2877 
B(  4-C , 17-C ) :   1.2890 B(  4-C , 18-C ) :   1.2143 B(  5-N , 19-C ) :   1.4045 
B(  5-N , 27-C ) :   1.4163 B(  6-C ,  8-C ) :   1.6100 B(  6-C , 54-H ) :   0.9713 
B(  7-N , 30-C ) :   1.1916 B(  7-N , 38-C ) :   1.2056 B(  7-N , 62-H ) :   0.8992 
B(  8-C , 55-H ) :   0.9695 B(  9-N , 41-C ) :   1.4169 B(  9-N , 49-C ) :   1.4078 
B( 10-C , 56-H ) :   0.9763 B( 10-C , 57-H ) :   0.9815 B( 10-C , 58-H ) :   0.9831 
B( 11-N , 20-C ) :   1.1197 B( 11-N , 24-C ) :   1.1288 B( 11-N , 25-C ) :   0.9581 
B( 12-C , 14-C ) :   1.3135 B( 12-C , 59-H ) :   0.9771 B( 13-N , 31-C ) :   1.1105 
B( 13-N , 35-C ) :   1.1033 B( 13-N , 36-C ) :   0.9666 B( 14-C , 18-C ) :   1.2110 
B( 15-N , 42-C ) :   1.1198 B( 15-N , 46-C ) :   1.1081 B( 15-N , 47-C ) :   0.9629 
B( 16-C , 51-C ) :   1.2090 B( 17-C , 60-H ) :   0.9713 B( 18-C , 19-C ) :   1.2392 
B( 19-C , 21-C ) :   1.1965 B( 20-C , 28-C ) :   1.6221 B( 20-C , 63-H ) :   0.9704 
B( 21-C , 26-C ) :   1.6541 B( 21-C , 64-H ) :   0.9723 B( 22-C , 23-C ) :   1.2782 
B( 22-C , 28-C ) :   1.2781 B( 22-C , 29-C ) :   1.2346 B( 23-C , 24-C ) :   1.6201 
B( 23-C , 65-H ) :   0.9712 B( 24-C , 66-H ) :   0.9690 B( 25-C , 67-H ) :   0.9762 
B( 25-C , 68-H ) :   0.9830 B( 25-C , 69-H ) :   0.9820 B( 26-C , 27-C ) :   1.1989 
B( 26-C , 70-H ) :   0.9738 B( 27-C , 29-C ) :   1.2359 B( 28-C , 71-H ) :   0.9712 
B( 29-C , 30-C ) :   1.1984 B( 30-C , 32-C ) :   1.3259 B( 31-C , 39-C ) :   1.6466 
B( 31-C , 72-H ) :   0.9701 B( 32-C , 37-C ) :   1.5324 B( 32-C , 73-H ) :   0.9775 
B( 33-C , 34-C ) :   1.2621 B( 33-C , 39-C ) :   1.2553 B( 33-C , 40-C ) :   1.2808 
B( 34-C , 35-C ) :   1.6441 B( 34-C , 74-H ) :   0.9707 B( 35-C , 75-H ) :   0.9701 
B( 36-C , 76-H ) :   0.9761 B( 36-C , 77-H ) :   0.9823 B( 36-C , 78-H ) :   0.9833 
B( 37-C , 38-C ) :   1.3256 B( 37-C , 79-H ) :   0.9782 B( 38-C , 40-C ) :   1.1973 
B( 39-C , 80-H ) :   0.9717 B( 40-C , 41-C ) :   1.2048 B( 41-C , 43-C ) :   1.2246 
B( 42-C , 50-C ) :   1.6348 B( 42-C , 81-H ) :   0.9696 B( 43-C , 48-C ) :   1.6269 
B( 43-C , 82-H ) :   0.9743 B( 44-C , 45-C ) :   1.2748 B( 44-C , 50-C ) :   1.2627 
B( 44-C , 51-C ) :   1.2521 B( 45-C , 46-C ) :   1.6315 B( 45-C , 83-H ) :   0.9709 
B( 46-C , 84-H ) :   0.9704 B( 47-C , 85-H ) :   0.9761 B( 47-C , 86-H ) :   0.9827 
B( 47-C , 87-H ) :   0.9827 B( 48-C , 49-C ) :   1.2225 B( 48-C , 88-H ) :   0.9735 
B( 49-C , 51-C ) :   1.2142 B( 50-C , 89-H ) :   0.9716 

-------
TIMINGS
-------

Total SCF time: 0 days 0 hours 29 min 56 sec 

Total time                  ....    1796.662 sec
Sum of individual times     ....    1791.785 sec  ( 99.7%)

Fock matrix formation       ....    1762.866 sec  ( 98.1%)
Diagonalization             ....       8.747 sec  (  0.5%)
Density matrix formation    ....       0.566 sec  (  0.0%)
Population analysis         ....       0.586 sec  (  0.0%)
Initial guess               ....       2.519 sec  (  0.1%)
Orbital Transformation      ....       0.000 sec  (  0.0%)
Orbital Orthonormalization  ....       0.000 sec  (  0.0%)
DIIS solution               ....       3.971 sec  (  0.2%)
SOSCF solution              ....      11.230 sec  (  0.6%)

Maximum memory used throughout the entire SCF-calculation: 302.6 MB


           ************************************************************
           *        Program running with 16 parallel MPI-processes    *
           *              working on a common directory               *
           ************************************************************

------------------------------------------------------------------------------
                                ORCA  MP2 
------------------------------------------------------------------------------

Freezing NCore=104 chemical core electrons

----------
MP2 ENERGY (disk based algorithm)
----------

Dimension of the basis                    ...  918
Memory devoted to MP2                     ... 2000 MB   
Data format for buffers                   ... DOUBLE
Compression type for matrix containers    ... UNCOMPRESSED

-------------------------------
PARTIAL EXCHANGE TRANSFORMATION
-------------------------------

Transformation type                        ... one-operator
Generation of integrals (i,mue|j,nue)      ... ON
Generation of integrals (mue,kappa|nue,tau)... OFF
Generation of integrals (i,mue|a,nue)      ... OFF
Dimension of the basis                     ...  918
Number of internal MOs                     ...  127 (  52- 178)
Pair cutoff                                ... 2.500e-12 Eh
Number of AO pairs in the trafo            ... 421821
Total Number of distinct AO pairs          ... 421821
Memory devoted for trafo                   ... 2000.0 MB 
Max. Number of MO pairs treated together   ...  311      
Number Format for Storage                  ... Double (8 Byte)
Integral package used                      ... LIBINT

Starting integral evaluation:
    ... done with AO integral generation
Closing buffer AOK     (38.13 GB; CompressionRatio= 1.33)
Collecting buffer AOK 
Number of MO pairs included in the trafo   ... 8128
------------------------
SORTING OF (i,mue|j,nue)
------------------------

IBATCH = 1 of  2
IBATCH = 2 of  2
Closing buffer KAO     (51.03 GB; CompressionRatio= 1.00)
Collecting buffer KAO 
N(AO-Batches) Done                         ...  85446929 
N(AO-Batches) Skipped                      ...  82327899 
N(IJ)-pairs Skipped                        ...         0 
TOTAL TIME for half transformation         ...  2462.742 sec
AO-integral generation                     ...   209.151 sec
Half transformation                        ...   423.018 sec
K-integral sorting                         ...  1608.814 sec
Process 10:   Internal MO 132
Process 13:   Internal MO 156

Finished integral transformation - now doing MP2 part

OPERATOR COMBINATION   0   0: ij=( 52..178, 52..178)
Process  1:   Internal MO  60
Process  4:   Internal MO  84
Process  7:   Internal MO 108
Process  0:   Internal MO  54
Process  2:   Internal MO  69
Process  0:   Internal MO  57
Process  1:   Internal MO  63
Process  5:   Internal MO  93
Process  3:   Internal MO  78
Process  8:   Internal MO 117
Process  2:   Internal MO  72
Process  1:   Internal MO  66
Process  6:   Internal MO 102
Process 14:   Internal MO 165
Process  4:   Internal MO  87
Process 11:   Internal MO 141
Process  9:   Internal MO 126
Process  2:   Internal MO  75
Process  3:   Internal MO  81
Process  5:   Internal MO  96
Process  7:   Internal MO 111
Process 12:   Internal MO 150
Process 15:   Internal MO 174
Process  4:   Internal MO  90
Process 10:   Internal MO 135
Process  6:   Internal MO 105
Process  8:   Internal MO 120
Process  5:   Internal MO  99
Process  9:   Internal MO 129
Process  7:   Internal MO 114
Process 11:   Internal MO 144
Process 13:   Internal MO 159
Process 14:   Internal MO 168
Process 10:   Internal MO 138
Process 12:   Internal MO 153
Process  8:   Internal MO 123
Process 15:   Internal MO 177
Process 11:   Internal MO 147
Process 13:   Internal MO 162
Process 14:   Internal MO 171
-----------------------------------------------
 MP2 CORRELATION ENERGY   :     -7.289095969 Eh
-----------------------------------------------


-------
TIMINGS
-------
Total time                : 2748.758 sec
Integral trafo            : 2465.269 sec ( 89.7%)
K(i,j)                    :    6.711 sec (  0.2%)
T(i,j)                    :    0.182 sec (  0.0%)

---------------------------------------
MP2 TOTAL ENERGY:    -2130.907463538 Eh
---------------------------------------

Maximum memory used throughout the entire MP2-calculation: 2275.2 MB

-------------------------   --------------------
FINAL SINGLE POINT ENERGY     -2130.907463538001
-------------------------   --------------------


                            ***************************************
                            *     ORCA property calculations      *
                            ***************************************


  WARNING: The energy has been calculated at the MP2 level but the densities
           used in the property calculations are still SCF densities
           MP2 response densities have not been calculated 
           use %mp2 Density relaxed end
           or  %mp2 Density unrelaxed end

                                    ---------------------
                                    Active property flags
                                    ---------------------
   (+) Dipole Moment


------------------------------------------------------------------------------
                       ORCA ELECTRIC PROPERTIES CALCULATION
------------------------------------------------------------------------------

Dipole Moment Calculation                       ... on
Quadrupole Moment Calculation                   ... off
Polarizability Calculation                      ... off
GBWName                                         ... /scratch/allen/tmpyp4_amber_gaff2/conf1/conf1/Conf247.orca.gbw
Electron density                                ... /scratch/allen/tmpyp4_amber_gaff2/conf1/conf1/Conf247.orca.scfp
The origin for moment calculation is the CENTER OF MASS  = ( 0.001320, -0.003166 -0.001692)

-------------
DIPOLE MOMENT
-------------
                                X             Y             Z
Electronic contribution:     -1.55065       0.80625      -0.10131
Nuclear contribution   :      0.07173       0.23597       0.11633
                        -----------------------------------------
Total Dipole Moment    :     -1.47892       1.04222       0.01501
                        -----------------------------------------
Magnitude (a.u.)       :      1.80933
Magnitude (Debye)      :      4.59894



--------------------
Rotational spectrum 
--------------------
 
Rotational constants in cm-1:     0.001498     0.001474     0.000762 
Rotational constants in MHz :    44.918891    44.181396    22.852364 

 Dipole components along the rotational axes: 
x,y,z [a.u.] :    -1.752184     0.450931     0.013298 
x,y,z [Debye]:    -4.453698     1.146177     0.033801 

 

Timings for individual modules:

Sum of individual times         ...     4569.303 sec (=  76.155 min)
GTO integral calculation        ...        3.487 sec (=   0.058 min)   0.1 %
SCF iterations                  ...     1797.884 sec (=  29.965 min)  39.3 %
MP2 module                      ...     2767.932 sec (=  46.132 min)  60.6 %
                             ****ORCA TERMINATED NORMALLY****
TOTAL RUN TIME: 0 days 1 hours 16 minutes 12 seconds 888 msec
# of primitive gaussian functions

