
                                 *****************
                                 * O   R   C   A *
                                 *****************

                                            #,                                       
                                            ###                                      
                                            ####                                     
                                            #####                                    
                                            ######                                   
                                           ########,                                 
                                     ,,################,,,,,                         
                               ,,#################################,,                 
                          ,,##########################################,,             
                       ,#########################################, ''#####,          
                    ,#############################################,,   '####,        
                  ,##################################################,,,,####,       
                ,###########''''           ''''###############################       
              ,#####''   ,,,,##########,,,,          '''####'''          '####       
            ,##' ,,,,###########################,,,                        '##       
           ' ,,###''''                  '''############,,,                           
         ,,##''                                '''############,,,,        ,,,,,,###''
      ,#''                                            '''#######################'''  
     '                                                          ''''####''''         
             ,#######,   #######,   ,#######,      ##                                
            ,#'     '#,  ##    ##  ,#'     '#,    #''#        ######   ,####,        
            ##       ##  ##   ,#'  ##            #'  '#       #        #'  '#        
            ##       ##  #######   ##           ,######,      #####,   #    #        
            '#,     ,#'  ##    ##  '#,     ,#' ,#      #,         ##   #,  ,#        
             '#######'   ##     ##  '#######'  #'      '#     #####' # '####'        



                  #######################################################
                  #                        -***-                        #
                  #          Department of theory and spectroscopy      #
                  #    Directorship and core code : Frank Neese         #
                  #        Max Planck Institute fuer Kohlenforschung    #
                  #                Kaiser Wilhelm Platz 1               #
                  #                 D-45470 Muelheim/Ruhr               #
                  #                      Germany                        #
                  #                                                     #
                  #                  All rights reserved                #
                  #                        -***-                        #
                  #######################################################


                         Program Version 5.0.4 -  RELEASE  -


 With contributions from (in alphabetic order):
   Daniel Aravena         : Magnetic Suceptibility
   Michael Atanasov       : Ab Initio Ligand Field Theory (pilot matlab implementation)
   Alexander A. Auer      : GIAO ZORA, VPT2 properties, NMR spectrum
   Ute Becker             : Parallelization
   Giovanni Bistoni       : ED, misc. LED, open-shell LED, HFLD
   Martin Brehm           : Molecular dynamics
   Dmytro Bykov           : SCF Hessian
   Vijay G. Chilkuri      : MRCI spin determinant printing, contributions to CSF-ICE
   Dipayan Datta          : RHF DLPNO-CCSD density
   Achintya Kumar Dutta   : EOM-CC, STEOM-CC
   Dmitry Ganyushin       : Spin-Orbit,Spin-Spin,Magnetic field MRCI
   Miquel Garcia          : C-PCM and meta-GGA Hessian, CC/C-PCM, Gaussian charge scheme
   Yang Guo               : DLPNO-NEVPT2, F12-NEVPT2, CIM, IAO-localization
   Andreas Hansen         : Spin unrestricted coupled pair/coupled cluster methods
   Benjamin Helmich-Paris : MC-RPA, TRAH-SCF, COSX integrals
   Lee Huntington         : MR-EOM, pCC
   Robert Izsak           : Overlap fitted RIJCOSX, COSX-SCS-MP3, EOM
   Marcus Kettner         : VPT2
   Christian Kollmar      : KDIIS, OOCD, Brueckner-CCSD(T), CCSD density, CASPT2, CASPT2-K
   Simone Kossmann        : Meta GGA functionals, TD-DFT gradient, OOMP2, MP2 Hessian
   Martin Krupicka        : Initial AUTO-CI
   Lucas Lang             : DCDCAS
   Marvin Lechner         : AUTO-CI (C++ implementation), FIC-MRCC
   Dagmar Lenk            : GEPOL surface, SMD
   Dimitrios Liakos       : Extrapolation schemes; Compound Job, initial MDCI parallelization
   Dimitrios Manganas     : Further ROCIS development; embedding schemes
   Dimitrios Pantazis     : SARC Basis sets
   Anastasios Papadopoulos: AUTO-CI, single reference methods and gradients
   Taras Petrenko         : DFT Hessian,TD-DFT gradient, ASA, ECA, R-Raman, ABS, FL, XAS/XES, NRVS
   Peter Pinski           : DLPNO-MP2, DLPNO-MP2 Gradient
   Christoph Reimann      : Effective Core Potentials
   Marius Retegan         : Local ZFS, SOC
   Christoph Riplinger    : Optimizer, TS searches, QM/MM, DLPNO-CCSD(T), (RO)-DLPNO pert. Triples
   Tobias Risthaus        : Range-separated hybrids, TD-DFT gradient, RPA, STAB
   Michael Roemelt        : Original ROCIS implementation
   Masaaki Saitow         : Open-shell DLPNO-CCSD energy and density
   Barbara Sandhoefer     : DKH picture change effects
   Avijit Sen             : IP-ROCIS
   Kantharuban Sivalingam : CASSCF convergence, NEVPT2, FIC-MRCI
   Bernardo de Souza      : ESD, SOC TD-DFT
   Georgi Stoychev        : AutoAux, RI-MP2 NMR, DLPNO-MP2 response
   Willem Van den Heuvel  : Paramagnetic NMR
   Boris Wezisla          : Elementary symmetry handling
   Frank Wennmohs         : Technical directorship


 We gratefully acknowledge several colleagues who have allowed us to
 interface, adapt or use parts of their codes:
   Stefan Grimme, W. Hujo, H. Kruse, P. Pracht,  : VdW corrections, initial TS optimization,
                  C. Bannwarth, S. Ehlert          DFT functionals, gCP, sTDA/sTD-DF
   Ed Valeev, F. Pavosevic, A. Kumar             : LibInt (2-el integral package), F12 methods
   Garnet Chan, S. Sharma, J. Yang, R. Olivares  : DMRG
   Ulf Ekstrom                                   : XCFun DFT Library
   Mihaly Kallay                                 : mrcc  (arbitrary order and MRCC methods)
   Jiri Pittner, Ondrej Demel                    : Mk-CCSD
   Frank Weinhold                                : gennbo (NPA and NBO analysis)
   Christopher J. Cramer and Donald G. Truhlar   : smd solvation model
   Lars Goerigk                                  : TD-DFT with DH, B97 family of functionals
   V. Asgeirsson, H. Jonsson                     : NEB implementation
   FAccTs GmbH                                   : IRC, NEB, NEB-TS, DLPNO-Multilevel, CI-OPT
                                                   MM, QMMM, 2- and 3-layer-ONIOM, Crystal-QMMM,
                                                   LR-CPCM, SF, NACMEs, symmetry and pop. for TD-DFT,
                                                   nearIR, NL-DFT gradient (VV10), updates on ESD,
                                                   ML-optimized integration grids
   S Lehtola, MJT Oliveira, MAL Marques          : LibXC Library
   Liviu Ungur et al                             : ANISO software


 Your calculation uses the libint2 library for the computation of 2-el integrals
 For citations please refer to: http://libint.valeyev.net

 Your ORCA version has been built with support for libXC version: 5.1.0
 For citations please refer to: https://tddft.org/programs/libxc/

 This ORCA versions uses:
   CBLAS   interface :  Fast vector & matrix operations
   LAPACKE interface :  Fast linear algebra routines
   SCALAPACK package :  Parallel linear algebra routines
   Shared memory     :  Shared parallel matrices
   BLAS/LAPACK       :  OpenBLAS 0.3.15  USE64BITINT DYNAMIC_ARCH NO_AFFINITY Sandybridge SINGLE_THREADED
        Core in use  :  Sandybridge
   Copyright (c) 2011-2014, The OpenBLAS Project


================================================================================

----- Orbital basis set information -----
Your calculation utilizes the basis: cc-pVDZ 
       H, B-Ne : Obtained from the ccRepo (grant-hill.group.shef.ac.uk/ccrepo) Feb. 2017
                 T. H. Dunning, Jr., J. Chem. Phys. 90, 1007 (1989)
            He : Obtained from the ccRepo (grant-hill.group.shef.ac.uk/ccrepo) Feb. 2017
                 D. E. Woon, T. H. Dunning, Jr., J. Chem. Phys. 100, 2975 (1994)
  Li-Be, Na-Mg : Obtained from the ccRepo (grant-hill.group.shef.ac.uk/ccrepo) Feb. 2017
                 B. P. Prascher, D. E. Woon, K. A. Peterson, T. H. Dunning, Jr., A. K. Wilson, Theor. Chem. Acc. 128, 69 (2011)
         Al-Ar : Obtained from the ccRepo (grant-hill.group.shef.ac.uk/ccrepo) Feb. 2017
                 D. E. Woon, T. H. Dunning, Jr., J. Chem. Phys. 98, 1358 (1993)
            Ca : Obtained from the Peterson Research Group Website (tyr0.chem.wsu.edu/~kipeters) Feb. 2017
                 J. Koput, K. A. Peterson, J. Phys. Chem. 106, 9595 (2002)
         Sc-Zn : Obtained from the ccRepo (grant-hill.group.shef.ac.uk/ccrepo) Feb. 2017
                 N. B. Balabanov, K. A. Peterson, J. Chem. Phys. 123, 064107 (2005)
                 N. B. Balabanov, K. A. Peterson, J. Chem. Phys. 125, 074110 (2006)
         Ga-Kr : Obtained from the ccRepo (grant-hill.group.shef.ac.uk/ccrepo) Feb. 2017
                 A. K. Wilson, D. E. Woon, K. A. Peterson, T. H. Dunning, Jr., J. Chem. Phys. 110, 7667 (1999)

================================================================================
                                        WARNINGS
                       Please study these warnings very carefully!
================================================================================


WARNING: No MP2 level density has been requested!
         To caclulate MP2 level properties use
         %mp2 Density relaxed end
         or
         %mp2 Density unrelaxed end

WARNING: Post HF methods need fully converged wavefunctions
  ===> : Setting SCFConvForced true
         You can overwrite this default with %scf ConvForced false 


INFO   : the flag for use of the SHARK integral package has been found!

================================================================================
                                       INPUT FILE
================================================================================
NAME = /scratch/allen/tmpyp4_amber_gaff2/2.Mdgx/conf11/conf11/Conf94.orca
|  1> ! PAL2
|  2> ! mp2 cc-pvdz TightSCF  NoKeepInts
|  3> 
|  4> %scf
|  5>   MaxCore 2000
|  6> end
|  7> %mp2
|  8>   MaxCore 2000
|  9> end
| 10> * xyz 0 1
| 11>    C       -4.02100         5.84400        -1.07900
| 12>    C        1.47400         4.04100         0.05700
| 13>    C       -2.80200         4.09300         0.04900
| 14>    C       -3.16800         4.69200         1.26400
| 15>    C       -3.94300         5.83400         1.26900
| 16>    C       -5.21700         7.59900         0.14900
| 17>    C        0.13200         4.30700         0.06100
| 18>    C       -0.56900         3.05600         0.04700
| 19>    C        1.64900         2.61800         0.02300
| 20>    C       -3.25200         4.69800        -1.13500
| 21>    N       -4.35500         6.39600         0.10900
| 22>    N        0.38800         2.06700         0.02500
| 23>    N       -2.01000         0.39500        -0.07500
| 24>    N       -0.38800        -2.07400        -0.02700
| 25>    N        2.01000        -0.40100         0.06500
| 26>    C       -1.96000         2.86100         0.02400
| 27>    C       -2.62300         1.61500        -0.01800
| 28>    C       -5.57300        -4.32900         1.06600
| 29>    C       -4.07300         1.47100         0.05600
| 30>    C       -4.10600        -2.75600        -0.02600
| 31>    C       -4.99500        -2.75700        -1.11100
| 32>    C       -6.13200        -3.54200        -1.07600
| 33>    C       -7.65100        -5.11300         0.04000
| 34>    C       -4.32400         0.14100         0.03700
| 35>    C       -3.02500        -0.52000        -0.04800
| 36>    C       -4.42200        -3.56600         1.07500
| 37>    N       -6.40700        -4.31300         0.00100
| 38>    C       -2.86700        -1.92200        -0.04000
| 39>    C       -1.65000        -2.62400        -0.02700
| 40>    C        3.56800        -6.14200        -1.04000
| 41>    C       -1.47600        -4.04900        -0.03400
| 42>    C        2.80300        -4.09900        -0.00800
| 43>    C        3.65700        -4.38400         1.06900
| 44>    C        4.42700        -5.53000         1.05900
| 45>    C        5.24500        -7.58800         0.01400
| 46>    C       -0.13400        -4.31500        -0.02200
| 47>    C        0.56800        -3.06400        -0.02700
| 48>    C        2.77500        -5.01200        -1.07400
| 49>    N        4.37600        -6.39100         0.01700
| 50>    C        1.95900        -2.86900        -0.00900
| 51>    C        2.62100        -1.62200         0.00900
| 52>    C        5.54300         4.33900        -1.13000
| 53>    C        4.07000        -1.47900        -0.09400
| 54>    C        4.10400         2.75100        -0.02100
| 55>    C        5.02700         2.72900         1.03600
| 56>    C        6.16600         3.50900         0.97800
| 57>    C        7.61900         5.15300        -0.11500
| 58>    C        4.32100        -0.14800        -0.09200
| 59>    C        3.02500         0.51400         0.01500
| 60>    C        4.38700         3.58200        -1.11500
| 61>    C        2.86600         1.91600         0.01300
| 62>    N        6.41300         4.29600        -0.09500
| 63>    H       -4.37900         6.35100        -1.96700
| 64>    H        2.27400         4.76600         0.08100
| 65>    H       -2.86000         4.26700         2.21200
| 66>    H       -4.25800         6.32600         2.18000
| 67>    H       -6.25900         7.28700         0.24600
| 68>    H       -4.92700         8.21000         1.00300
| 69>    H       -5.07900         8.15900        -0.77600
| 70>    H       -0.33200         5.28200         0.06900
| 71>    H       -2.99100         4.29200        -2.10500
| 72>    H        0.18200         1.07200         0.00500
| 73>    H       -0.18300        -1.08000        -0.02100
| 74>    H       -5.86400        -4.96200         1.89500
| 75>    H       -4.79400         2.27200         0.13900
| 76>    H       -4.80000        -2.16000        -1.99400
| 77>    H       -6.84100        -3.58200        -1.89300
| 78>    H       -8.42800        -4.53600         0.54600
| 79>    H       -7.95600        -5.33700        -0.98100
| 80>    H       -7.45600        -6.03700         0.58400
| 81>    H       -5.28700        -0.34400         0.10000
| 82>    H       -3.78000        -3.60100         1.94700
| 83>    H        3.58700        -6.86800        -1.84300
| 84>    H       -2.27600        -4.77400        -0.05000
| 85>    H        3.71400        -3.72400         1.92600
| 86>    H        5.09200        -5.79500         1.87100
| 87>    H        6.20500        -7.32900        -0.43900
| 88>    H        5.39300        -7.91700         1.04200
| 89>    H        4.75900        -8.37300        -0.56400
| 90>    H        0.32900        -5.29000        -0.00800
| 91>    H        2.14600        -4.84200        -1.94000
| 92>    H        5.80800         4.98600        -1.95600
| 93>    H        4.78800        -2.28100        -0.18500
| 94>    H        4.86000         2.11400         1.91200
| 95>    H        6.90100         3.53100         1.77200
| 96>    H        7.38300         6.10900         0.35600
| 97>    H        8.41400         4.65200         0.43500
| 98>    H        7.92100         5.31000        -1.15000
| 99>    H        5.28300         0.33600        -0.17900
|100>    H        3.72000         3.63200        -1.96700
|101> *
|102> 
|103>                          ****END OF INPUT****
================================================================================

                       ****************************
                       * Single Point Calculation *
                       ****************************

---------------------------------
CARTESIAN COORDINATES (ANGSTROEM)
---------------------------------
  C     -4.021000    5.844000   -1.079000
  C      1.474000    4.041000    0.057000
  C     -2.802000    4.093000    0.049000
  C     -3.168000    4.692000    1.264000
  C     -3.943000    5.834000    1.269000
  C     -5.217000    7.599000    0.149000
  C      0.132000    4.307000    0.061000
  C     -0.569000    3.056000    0.047000
  C      1.649000    2.618000    0.023000
  C     -3.252000    4.698000   -1.135000
  N     -4.355000    6.396000    0.109000
  N      0.388000    2.067000    0.025000
  N     -2.010000    0.395000   -0.075000
  N     -0.388000   -2.074000   -0.027000
  N      2.010000   -0.401000    0.065000
  C     -1.960000    2.861000    0.024000
  C     -2.623000    1.615000   -0.018000
  C     -5.573000   -4.329000    1.066000
  C     -4.073000    1.471000    0.056000
  C     -4.106000   -2.756000   -0.026000
  C     -4.995000   -2.757000   -1.111000
  C     -6.132000   -3.542000   -1.076000
  C     -7.651000   -5.113000    0.040000
  C     -4.324000    0.141000    0.037000
  C     -3.025000   -0.520000   -0.048000
  C     -4.422000   -3.566000    1.075000
  N     -6.407000   -4.313000    0.001000
  C     -2.867000   -1.922000   -0.040000
  C     -1.650000   -2.624000   -0.027000
  C      3.568000   -6.142000   -1.040000
  C     -1.476000   -4.049000   -0.034000
  C      2.803000   -4.099000   -0.008000
  C      3.657000   -4.384000    1.069000
  C      4.427000   -5.530000    1.059000
  C      5.245000   -7.588000    0.014000
  C     -0.134000   -4.315000   -0.022000
  C      0.568000   -3.064000   -0.027000
  C      2.775000   -5.012000   -1.074000
  N      4.376000   -6.391000    0.017000
  C      1.959000   -2.869000   -0.009000
  C      2.621000   -1.622000    0.009000
  C      5.543000    4.339000   -1.130000
  C      4.070000   -1.479000   -0.094000
  C      4.104000    2.751000   -0.021000
  C      5.027000    2.729000    1.036000
  C      6.166000    3.509000    0.978000
  C      7.619000    5.153000   -0.115000
  C      4.321000   -0.148000   -0.092000
  C      3.025000    0.514000    0.015000
  C      4.387000    3.582000   -1.115000
  C      2.866000    1.916000    0.013000
  N      6.413000    4.296000   -0.095000
  H     -4.379000    6.351000   -1.967000
  H      2.274000    4.766000    0.081000
  H     -2.860000    4.267000    2.212000
  H     -4.258000    6.326000    2.180000
  H     -6.259000    7.287000    0.246000
  H     -4.927000    8.210000    1.003000
  H     -5.079000    8.159000   -0.776000
  H     -0.332000    5.282000    0.069000
  H     -2.991000    4.292000   -2.105000
  H      0.182000    1.072000    0.005000
  H     -0.183000   -1.080000   -0.021000
  H     -5.864000   -4.962000    1.895000
  H     -4.794000    2.272000    0.139000
  H     -4.800000   -2.160000   -1.994000
  H     -6.841000   -3.582000   -1.893000
  H     -8.428000   -4.536000    0.546000
  H     -7.956000   -5.337000   -0.981000
  H     -7.456000   -6.037000    0.584000
  H     -5.287000   -0.344000    0.100000
  H     -3.780000   -3.601000    1.947000
  H      3.587000   -6.868000   -1.843000
  H     -2.276000   -4.774000   -0.050000
  H      3.714000   -3.724000    1.926000
  H      5.092000   -5.795000    1.871000
  H      6.205000   -7.329000   -0.439000
  H      5.393000   -7.917000    1.042000
  H      4.759000   -8.373000   -0.564000
  H      0.329000   -5.290000   -0.008000
  H      2.146000   -4.842000   -1.940000
  H      5.808000    4.986000   -1.956000
  H      4.788000   -2.281000   -0.185000
  H      4.860000    2.114000    1.912000
  H      6.901000    3.531000    1.772000
  H      7.383000    6.109000    0.356000
  H      8.414000    4.652000    0.435000
  H      7.921000    5.310000   -1.150000
  H      5.283000    0.336000   -0.179000
  H      3.720000    3.632000   -1.967000

----------------------------
CARTESIAN COORDINATES (A.U.)
----------------------------
  NO LB      ZA    FRAG     MASS         X           Y           Z
   0 C     6.0000    0    12.011   -7.598589   11.043560   -2.039014
   1 C     6.0000    0    12.011    2.785456    7.636383    0.107714
   2 C     6.0000    0    12.011   -5.295013    7.734649    0.092597
   3 C     6.0000    0    12.011   -5.986652    8.866595    2.388614
   4 C     6.0000    0    12.011   -7.451190   11.024662    2.398062
   5 C     6.0000    0    12.011   -9.858701   14.360029    0.281569
   6 C     6.0000    0    12.011    0.249444    8.139050    0.115273
   7 C     6.0000    0    12.011   -1.075254    5.775003    0.088817
   8 C     6.0000    0    12.011    3.116158    4.947303    0.043464
   9 C     6.0000    0    12.011   -6.145389    8.877933   -2.144839
  10 N     7.0000    0    14.007   -8.229757   12.086688    0.205980
  11 N     7.0000    0    14.007    0.733214    3.906064    0.047243
  12 N     7.0000    0    14.007   -3.798350    0.746442   -0.141729
  13 N     7.0000    0    14.007   -0.733214   -3.919292   -0.051023
  14 N     7.0000    0    14.007    3.798350   -0.757780    0.122832
  15 C     6.0000    0    12.011   -3.703863    5.406506    0.045353
  16 C     6.0000    0    12.011   -4.956752    3.051908   -0.034015
  17 C     6.0000    0    12.011  -10.531444   -8.180624    2.014448
  18 C     6.0000    0    12.011   -7.696855    2.779787    0.105825
  19 C     6.0000    0    12.011   -7.759216   -5.208085   -0.049133
  20 C     6.0000    0    12.011   -9.439182   -5.209975   -2.099486
  21 C     6.0000    0    12.011  -11.587801   -6.693410   -2.033345
  22 C     6.0000    0    12.011  -14.458295   -9.662170    0.075589
  23 C     6.0000    0    12.011   -8.171176    0.266451    0.069920
  24 C     6.0000    0    12.011   -5.716422   -0.982658   -0.090707
  25 C     6.0000    0    12.011   -8.356369   -6.738763    2.031456
  26 N     7.0000    0    14.007  -12.107475   -8.150389    0.001890
  27 C     6.0000    0    12.011   -5.417845   -3.632054   -0.075589
  28 C     6.0000    0    12.011   -3.118048   -4.958641   -0.051023
  29 C     6.0000    0    12.011    6.742543  -11.606698   -1.965315
  30 C     6.0000    0    12.011   -2.789236   -7.651501   -0.064251
  31 C     6.0000    0    12.011    5.296902   -7.745987   -0.015118
  32 C     6.0000    0    12.011    6.910728   -8.284559    2.020117
  33 C     6.0000    0    12.011    8.365818  -10.450186    2.001220
  34 C     6.0000    0    12.011    9.911614  -14.339242    0.026456
  35 C     6.0000    0    12.011   -0.253223   -8.154168   -0.041574
  36 C     6.0000    0    12.011    1.073364   -5.790121   -0.051023
  37 C     6.0000    0    12.011    5.243990   -9.471307   -2.029566
  38 N     7.0000    0    14.007    8.269442  -12.077240    0.032125
  39 C     6.0000    0    12.011    3.701973   -5.421624   -0.017008
  40 C     6.0000    0    12.011    4.952972   -3.065136    0.017008
  41 C     6.0000    0    12.011   10.474752    8.199522   -2.135391
  42 C     6.0000    0    12.011    7.691185   -2.794905   -0.177634
  43 C     6.0000    0    12.011    7.755436    5.198637   -0.039684
  44 C     6.0000    0    12.011    9.499653    5.157063    1.957756
  45 C     6.0000    0    12.011   11.652051    6.631049    1.848152
  46 C     6.0000    0    12.011   14.397823    9.737759   -0.217319
  47 C     6.0000    0    12.011    8.165507   -0.279679   -0.173855
  48 C     6.0000    0    12.011    5.716422    0.971319    0.028346
  49 C     6.0000    0    12.011    8.290229    6.768999   -2.107045
  50 C     6.0000    0    12.011    5.415955    3.620715    0.024566
  51 N     7.0000    0    14.007   12.118814    8.118263   -0.179524
  52 H     1.0000    0     1.008   -8.275111   12.001651   -3.717091
  53 H     1.0000    0     1.008    4.297237    9.006435    0.153068
  54 H     1.0000    0     1.008   -5.404617    8.063461    4.180074
  55 H     1.0000    0     1.008   -8.046454   11.954408    4.119603
  56 H     1.0000    0     1.008  -11.827796   13.770434    0.464873
  57 H     1.0000    0     1.008   -9.310681   15.514652    1.895395
  58 H     1.0000    0     1.008   -9.597919   15.418276   -1.466427
  59 H     1.0000    0     1.008   -0.627389    9.981533    0.130391
  60 H     1.0000    0     1.008   -5.652171    8.110705   -3.977874
  61 H     1.0000    0     1.008    0.343930    2.025786    0.009449
  62 H     1.0000    0     1.008   -0.345820   -2.040904   -0.039684
  63 H     1.0000    0     1.008  -11.081354   -9.376821    3.581031
  64 H     1.0000    0     1.008   -9.059347    4.293458    0.262672
  65 H     1.0000    0     1.008   -9.070685   -4.081808   -3.768114
  66 H     1.0000    0     1.008  -12.927616   -6.768999   -3.577252
  67 H     1.0000    0     1.008  -15.926612   -8.571798    1.031790
  68 H     1.0000    0     1.008  -15.034661  -10.085468   -1.853821
  69 H     1.0000    0     1.008  -14.089798  -11.408277    1.103600
  70 H     1.0000    0     1.008   -9.990982   -0.650066    0.188973
  71 H     1.0000    0     1.008   -7.143165   -6.804904    3.679297
  72 H     1.0000    0     1.008    6.778448  -12.978639   -3.482765
  73 H     1.0000    0     1.008   -4.301017   -9.021553   -0.094486
  74 H     1.0000    0     1.008    7.018443   -7.037340    3.639613
  75 H     1.0000    0     1.008    9.622485  -10.950963    3.535678
  76 H     1.0000    0     1.008   11.725751  -13.849803   -0.829590
  77 H     1.0000    0     1.008   10.191293  -14.960962    1.969095
  78 H     1.0000    0     1.008    8.993207  -15.822677   -1.065806
  79 H     1.0000    0     1.008    0.621720   -9.996651   -0.015118
  80 H     1.0000    0     1.008    4.055352   -9.150054   -3.666069
  81 H     1.0000    0     1.008   10.975529    9.422175   -3.696304
  82 H     1.0000    0     1.008    9.048009   -4.310465   -0.349599
  83 H     1.0000    0     1.008    9.184069    3.994881    3.613156
  84 H     1.0000    0     1.008   13.041000    6.672623    3.348595
  85 H     1.0000    0     1.008   13.951848   11.544337    0.672743
  86 H     1.0000    0     1.008   15.900156    8.791006    0.822031
  87 H     1.0000    0     1.008   14.968521   10.034446   -2.173185
  88 H     1.0000    0     1.008    9.983423    0.634948   -0.338261
  89 H     1.0000    0     1.008    7.029781    6.863485   -3.717091

--------------------------------
INTERNAL COORDINATES (ANGSTROEM)
--------------------------------
 C      0   0   0     0.000000000000     0.00000000     0.00000000
 C      1   0   0     5.893753472958     0.00000000     0.00000000
 C      1   2   0     2.413368185752    38.46629834     0.00000000
 C      3   1   2     1.403204190416    87.89338061   106.64858082
 C      4   3   1     1.380149991849   120.18693641     0.14200657
 C      5   4   3     2.447999387255   152.51908847     1.61684545
 C      2   1   3     1.368114030335    13.22924598   333.17303917
 C      7   2   3     1.434084376876   108.05010202     0.84668783
 C      2   1   3     1.434123425651   114.37736298    37.86560788
 C      1   2   3     1.381236040653    40.08570185   311.45838141
 N      1   2   3     1.351889048702   100.71230929    77.21777736
 N      9   2   1     1.376127174356   106.58526707   346.65731511
 N     12   9   2     2.925062050624   168.53581413   171.12065651
 N     13  12   9     2.954513327098    91.55032014    11.12112580
 N     14  13  12     2.925371258490    88.43092389   359.84326247
 C      8   7   2     1.404790019896   127.24786865   181.11170171
 C     13  12   9     1.366535034311    81.72106996   188.00453233
 C     14  13  12     5.758810554272    80.56209567   166.76250791
 C     17  13  12     1.459010623676   111.08861209   183.82872609
 C     18  14  13     2.412235892279    27.27532823    36.33507194
 C     20  18  14     1.402692767501    87.95206320   148.94598259
 C     21  20  18     1.382106725257   120.14573887   359.70382047
 C     18  14  13     2.446510985056   144.15733107    82.80075377
 C     19  17  13     1.353610726908   106.29293361   359.75308708
 C     13  12   9     1.366813447402   172.21332906    33.46711076
 C     18  14  13     1.380960173213    15.08449437   309.23336894
 N     22  21  20     1.352773077792   120.73759875     0.27865223
 C     25  13  17     1.410897586645   125.60330303   182.37774668
 C     14  13  12     1.376642291955    80.24689249   177.85461986
 C     14  13  12     5.764089607215   164.51507311   312.20821879
 C     29  14  13     1.435600919476   106.58649366   178.76395472
 C     30  14  13     2.413316804732    27.10625047    82.12560436
 C     32  30  14     1.403734305344    87.90059683   149.76154742
 C     33  32  30     1.380694028378   120.14881443   359.74174632
 C     34  33  32     2.448777858443   152.49203239     2.45173620
 C     31  29  14     1.368160809262   108.16950133     0.70383075
 C     14  13  12     1.376239804685   169.26375223   353.09862627
 C     30  14  13     1.380907310430    14.68948582   353.70041132
 N     34  33  32     1.352658863128   120.85575621     0.19603406
 C     37  14  29     1.404717053360   126.01551127   180.90772073
 C     15  14  13     1.366491126938    81.61824056   183.09049352
 C      2   1   3     4.249062720177   144.83862966   160.58723301
 C     41  15  14     1.459677704153   111.05201287   175.08990246
 C     42   2   1     2.412953791518    41.78584867   206.47818803
 C     44  42   2     1.403446472082    87.95153797   233.97558675
 C     45  44  42     1.381696421071   120.11137308     0.19721020
 C     42   2   1     2.450019795838   135.97209175   116.79303713
 C     43  41  15     1.354461516618   106.26758155     0.30894352
 C     15  14  13     1.367461151185   171.87382904   332.35056460
 C     42   2   1     1.381886391857    32.59078432   255.33346722
 C      9   2   1     1.404988612053   126.98745415   167.66165264
 N     42   2   1     1.352765315936   113.57249190   144.52962632
 H      1   2   3     1.083400664574   127.53367640   213.25019703
 H      2   1   3     1.079907866440   119.31353657   206.39424666
 H      4   3   1     1.083601864155   121.06130331   179.52164287
 H      5   4   3     1.082224560801   122.86533651   179.40184342
 H      6   5   4     1.092024267130   104.47461942   100.05066381
 H      6   5   4     1.089374591222    84.67427525   209.52601938
 H      6   5   4     1.090077520179   133.84754590   322.39714857
 H      7   2  54     1.079807853278   126.66122480     1.30600390
 H     10   1   2     1.083446814569   118.77215757   249.07512744
 H     12   9   2     1.016297692608   125.29023241   180.00180175
 H     14  13  12     1.014936943854    44.97226959   359.42596618
 H     18  14  13     1.082871645210   128.03556573   234.20482432
 H     19  17  13     1.080893611786   126.41830519   178.11313280
 H     21  20  18     1.083569563987   121.05669627   180.67006309
 H     22  21  20     1.082483256222   122.73097286   180.59748951
 H     23  18  14     1.092105306278   103.92715769   234.93429879
 H     23  18  14     1.088871893291   134.19244188    12.25587044
 H     23  18  14     1.089833473518    84.85857450   125.45241208
 H     24  19  17     1.080075460327   127.28078426   178.44613241
 H     26  18  14     1.083408048706   118.76995697   244.94906660
 H     30  14  13     1.082703098730   127.99711412   279.66882698
 H     31  29  14     1.079759695488   125.22293469   180.92530585
 H     33  32  30     1.083188810873   121.01964473   180.74284758
 H     34  33  32     1.082494341787   122.70821597   180.59516895
 H     35  34  33     1.092652735319   105.73575241    97.19771933
 H     35  34  33     1.089462711615    84.05943581   206.43036958
 H     35  34  33     1.089268102902   133.08365142   318.50306270
 H     36  31  29     1.079439669458   126.61599965   178.98859863
 H     38  30  73     1.083742127999   118.77264435   359.90091293
 H     42   2   1     1.082178358682   119.31790784     1.16115678
 H     43  41  15     1.080281907652   126.36969097   182.06329380
 H     45  44  42     1.083277434455   121.10105945   179.58025624
 H     46  45  44     1.082194529648   122.72144639   179.46906377
 H     47  42   2     1.091546151109   106.65128841   315.16475048
 H     47  42   2     1.088818625851   132.46019523    94.52397119
 H     47  42   2     1.089531091801    83.63838232   206.04504406
 H     48  43  41     1.080402239909   127.23657387   181.62955349
 H     50  42   2     1.083186502870   118.77001737    94.71359229

---------------------------
INTERNAL COORDINATES (A.U.)
---------------------------
 C      0   0   0     0.000000000000     0.00000000     0.00000000
 C      1   0   0    11.137579964737     0.00000000     0.00000000
 C      1   2   0     4.560604931390    38.46629834     0.00000000
 C      3   1   2     2.651671629856    87.89338061   106.64858082
 C      4   3   1     2.608105508328   120.18693641     0.14200657
 C      5   4   3     4.626048417919   152.51908847     1.61684545
 C      2   1   3     2.585360837309    13.22924598   333.17303917
 C      7   2   3     2.710026725231   108.05010202     0.84668783
 C      2   1   3     2.710100516721   114.37736298    37.86560788
 C      1   2   3     2.610157843137    40.08570185   311.45838141
 N      1   2   3     2.554700065494   100.71230929    77.21777736
 N      9   2   1     2.600503484979   106.58526707   346.65731511
 N     12   9   2     5.527566200405   168.53581413   171.12065651
 N     13  12   9     5.583221047236    91.55032014    11.12112580
 N     14  13  12     5.528150518591    88.43092389   359.84326247
 C      8   7   2     2.654668413270   127.24786865   181.11170171
 C     13  12   9     2.582376967257    81.72106996   188.00453233
 C     14  13  12    10.882574804710    80.56209567   166.76250791
 C     17  13  12     2.757130505230   111.08861209   183.82872609
 C     18  14  13     4.558465206823    27.27532823    36.33507194
 C     20  18  14     2.650705180609    87.95206320   148.94598259
 C     21  20  18     2.611803198586   120.14573887   359.70382047
 C     18  14  13     4.623235745386   144.15733107    82.80075377
 C     19  17  13     2.557953565794   106.29293361   359.75308708
 C     13  12   9     2.582903091751   172.21332906    33.46711076
 C     18  14  13     2.609636529225    15.08449437   309.23336894
 N     22  21  20     2.556370638369   120.73759875     0.27865223
 C     25  13  17     2.666210041769   125.60330303   182.37774668
 C     14  13  12     2.601476916169    80.24689249   177.85461986
 C     14  13  12    10.892550769017   164.51507311   312.20821879
 C     29  14  13     2.712892575415   106.58649366   178.76395472
 C     30  14  13     4.560507835333    27.10625047    82.12560436
 C     32  30  14     2.652673401891    87.90059683   149.76154742
 C     33  32  30     2.609133588376   120.14881443   359.74174632
 C     34  33  32     4.627519515267   152.49203239     2.45173620
 C     31  29  14     2.585449236669   108.16950133     0.70383075
 C     14  13  12     2.600716325456   169.26375223   353.09862627
 C     30  14  13     2.609536633043    14.68948582   353.70041132
 N     34  33  32     2.556154803934   120.85575621     0.19603406
 C     37  14  29     2.654530526499   126.01551127   180.90772073
 C     15  14  13     2.582293994346    81.61824056   183.09049352
 C      2   1   3     8.029564866989   144.83862966   160.58723301
 C     41  15  14     2.758391104639   111.05201287   175.08990246
 C     42   2   1     4.559821839776    41.78584867   206.47818803
 C     44  42   2     2.652129475853    87.95153797   233.97558675
 C     45  44  42     2.611027836043   120.11137308     0.19721020
 C     42   2   1     4.629866436820   135.97209175   116.79303713
 C     43  41  15     2.559561325344   106.26758155     0.30894352
 C     15  14  13     2.584127074516   171.87382904   332.35056460
 C     42   2   1     2.611386828803    32.59078432   255.33346722
 C      9   2   1     2.655043698059   126.98745415   167.66165264
 N     42   2   1     2.556355970587   113.57249190   144.52962632
 H      1   2   3     2.047330549354   127.53367640   213.25019703
 H      2   1   3     2.040730117440   119.31353657   206.39424666
 H      4   3   1     2.047710761459   121.06130331   179.52164287
 H      5   4   3     2.045108035316   122.86533651   179.40184342
 H      6   5   4     2.063626796471   104.47461942   100.05066381
 H      6   5   4     2.058619634662    84.67427525   209.52601938
 H      6   5   4     2.059947977883   133.84754590   322.39714857
 H      7   2  54     2.040541119952   126.66122480     1.30600390
 H     10   1   2     2.047417760205   118.77215757   249.07512744
 H     12   9   2     1.920524309565   125.29023241   180.00180175
 H     14  13  12     1.917952867083    44.97226959   359.42596618
 H     18  14  13     2.046330847636   128.03556573   234.20482432
 H     19  17  13     2.042592906181   126.41830519   178.11313280
 H     21  20  18     2.047649722989   121.05669627   180.67006309
 H     22  21  20     2.045596898814   122.73097286   180.59748951
 H     23  18  14     2.063779938267   103.92715769   234.93429879
 H     23  18  14     2.057669673245   134.19244188    12.25587044
 H     23  18  14     2.059486796529    84.85857450   125.45241208
 H     24  19  17     2.041046823986   127.28078426   178.44613241
 H     26  18  14     2.047344503340   118.76995697   244.94906660
 H     30  14  13     2.046012340948   127.99711412   279.66882698
 H     31  29  14     2.040450114918   125.22293469   180.92530585
 H     33  32  30     2.046930203877   121.01964473   180.74284758
 H     34  33  32     2.045617847496   122.70821597   180.59516895
 H     35  34  33     2.064814429233   105.73575241    97.19771933
 H     35  34  33     2.058786158072    84.05943581   206.43036958
 H     35  34  33     2.058418400901   133.08365142   318.50306270
 H     36  31  29     2.039845353366   126.61599965   178.98859863
 H     38  30  73     2.047975821711   118.77264435   359.90091293
 H     42   2   1     2.045020725966   119.31790784     1.16115678
 H     43  41  15     2.041436952892   126.36969097   182.06329380
 H     45  44  42     2.047097678177   121.10105945   179.58025624
 H     46  45  44     2.045051284662   122.72144639   179.46906377
 H     47  42   2     2.062723288131   106.65128841   315.16475048
 H     47  42   2     2.057569012371   132.46019523    94.52397119
 H     47  42   2     2.058915377895    83.63838232   206.04504406
 H     48  43  41     2.041664347903   127.23657387   181.62955349
 H     50  42   2     2.046925842384   118.77001737    94.71359229

---------------------
BASIS SET INFORMATION
---------------------
There are 3 groups of distinct atoms

 Group   1 Type C   : 17s4p1d contracted to 3s2p1d pattern {881/31/1}
 Group   2 Type N   : 17s4p1d contracted to 3s2p1d pattern {881/31/1}
 Group   3 Type H   : 4s1p contracted to 2s1p pattern {31/1}

Atom   0C    basis set group =>   1
Atom   1N    basis set group =>   2
Atom   2C    basis set group =>   1
Atom   3N    basis set group =>   2
Atom   4C    basis set group =>   1
Atom   5N    basis set group =>   2
Atom   6C    basis set group =>   1
Atom   7N    basis set group =>   2
Atom   8C    basis set group =>   1
Atom   9N    basis set group =>   2
Atom  10C    basis set group =>   1
Atom  11N    basis set group =>   2
Atom  12C    basis set group =>   1
Atom  13N    basis set group =>   2
Atom  14C    basis set group =>   1
Atom  15N    basis set group =>   2
Atom  16C    basis set group =>   1
Atom  17C    basis set group =>   1
Atom  18C    basis set group =>   1
Atom  19C    basis set group =>   1
Atom  20C    basis set group =>   1
Atom  21C    basis set group =>   1
Atom  22C    basis set group =>   1
Atom  23C    basis set group =>   1
Atom  24C    basis set group =>   1
Atom  25C    basis set group =>   1
Atom  26C    basis set group =>   1
Atom  27C    basis set group =>   1
Atom  28C    basis set group =>   1
Atom  29C    basis set group =>   1
Atom  30C    basis set group =>   1
Atom  31C    basis set group =>   1
Atom  32C    basis set group =>   1
Atom  33C    basis set group =>   1
Atom  34C    basis set group =>   1
Atom  35C    basis set group =>   1
Atom  36C    basis set group =>   1
Atom  37C    basis set group =>   1
Atom  38C    basis set group =>   1
Atom  39C    basis set group =>   1
Atom  40C    basis set group =>   1
Atom  41C    basis set group =>   1
Atom  42C    basis set group =>   1
Atom  43C    basis set group =>   1
Atom  44C    basis set group =>   1
Atom  45C    basis set group =>   1
Atom  46C    basis set group =>   1
Atom  47C    basis set group =>   1
Atom  48C    basis set group =>   1
Atom  49C    basis set group =>   1
Atom  50C    basis set group =>   1
Atom  51C    basis set group =>   1
Atom  52H    basis set group =>   3
Atom  53H    basis set group =>   3
Atom  54H    basis set group =>   3
Atom  55H    basis set group =>   3
Atom  56H    basis set group =>   3
Atom  57H    basis set group =>   3
Atom  58H    basis set group =>   3
Atom  59H    basis set group =>   3
Atom  60H    basis set group =>   3
Atom  61H    basis set group =>   3
Atom  62H    basis set group =>   3
Atom  63H    basis set group =>   3
Atom  64H    basis set group =>   3
Atom  65H    basis set group =>   3
Atom  66H    basis set group =>   3
Atom  67H    basis set group =>   3
Atom  68H    basis set group =>   3
Atom  69H    basis set group =>   3
Atom  70H    basis set group =>   3
Atom  71H    basis set group =>   3
Atom  72H    basis set group =>   3
Atom  73H    basis set group =>   3
Atom  74H    basis set group =>   3
Atom  75H    basis set group =>   3
Atom  76H    basis set group =>   3
Atom  77H    basis set group =>   3
Atom  78H    basis set group =>   3
Atom  79H    basis set group =>   3
Atom  80H    basis set group =>   3
Atom  81H    basis set group =>   3
Atom  82H    basis set group =>   3
Atom  83H    basis set group =>   3
Atom  84H    basis set group =>   3
Atom  85H    basis set group =>   3
Atom  86H    basis set group =>   3
Atom  87H    basis set group =>   3
Atom  88H    basis set group =>   3
Atom  89H    basis set group =>   3


           ************************************************************
           *        Program running with 16 parallel MPI-processes    *
           *              working on a common directory               *
           ************************************************************
------------------------------------------------------------------------------
                           ORCA GTO INTEGRAL CALCULATION
------------------------------------------------------------------------------
------------------------------------------------------------------------------
                   ___                                                        
                  /   \      - P O W E R E D   B Y -                         
                 /     \                                                     
                 |  |  |   _    _      __       _____    __    __             
                 |  |  |  | |  | |    /  \     |  _  \  |  |  /  |          
                  \  \/   | |  | |   /    \    | | | |  |  | /  /          
                 / \  \   | |__| |  /  /\  \   | |_| |  |  |/  /          
                |  |  |   |  __  | /  /__\  \  |    /   |      \           
                |  |  |   | |  | | |   __   |  |    \   |  |\   \          
                \     /   | |  | | |  |  |  |  | |\  \  |  | \   \       
                 \___/    |_|  |_| |__|  |__|  |_| \__\ |__|  \__/        
                                                                              
                      - O R C A' S   B I G   F R I E N D -                    
                                      &                                       
                       - I N T E G R A L  F E E D E R -                       
                                                                              
 v1 FN, 2020, v2 2021                                                         
------------------------------------------------------------------------------


Reading SHARK input file /scratch/allen/tmpyp4_amber_gaff2/conf1/conf1/Conf94.orca.SHARKINP.tmp ... ok
----------------------
SHARK INTEGRAL PACKAGE
----------------------

Number of atoms                             ...     90
Number of basis functions                   ...   1230
Number of shells                            ...    738
Maximum angular momentum                    ...      2
Integral batch strategy                     ... SHARK/LIBINT Hybrid
RI-J (if used) integral strategy            ... SPLIT-RIJ (Revised 2003 algorithm where possible)
Printlevel                                  ...      1
Contraction scheme used                     ... PARTIAL GENERAL contraction
Coulomb Range Separation                    ... NOT USED
Exchange Range Separation                   ... NOT USED
Finite Nucleus Model                        ... NOT USED
Auxiliary Coulomb fitting basis             ... NOT available
Auxiliary J/K fitting basis                 ... NOT available
Auxiliary Correlation fitting basis         ... NOT available
Auxiliary 'external' fitting basis          ... NOT available
Integral threshold                          ...     2.500000e-11
Primitive cut-off                           ...     2.500000e-12
Primitive pair pre-selection threshold      ...     2.500000e-12

Calculating pre-screening integrals         ... done (  0.1 sec) Dimension = 738
Calculating pre-screening integrals (ORCA)  ... done (  0.3 sec) Dimension = 426
Organizing shell pair data                  ... done (  0.8 sec)
Shell pair information
Total number of shell pairs                 ...    272691
Shell pairs after pre-screening             ...     71624
Total number of primitive shell pairs       ...    422091
Primitive shell pairs kept                  ...     92360
          la=0 lb=0:  29421 shell pairs
          la=1 lb=0:  25968 shell pairs
          la=1 lb=1:   4689 shell pairs
          la=2 lb=0:   7899 shell pairs
          la=2 lb=1:   3116 shell pairs
          la=2 lb=2:    531 shell pairs

Calculating one electron integrals          ... done (  0.3 sec)
Calculating Nuclear repulsion               ... done (  0.0 sec) ENN=   6221.857541356475 Eh

SHARK setup successfully completed in   2.2 seconds

Maximum memory used throughout the entire GTOINT-calculation: 98.9 MB


           ************************************************************
           *        Program running with 16 parallel MPI-processes    *
           *              working on a common directory               *
           ************************************************************
-------------------------------------------------------------------------------
                                 ORCA SCF
-------------------------------------------------------------------------------

------------
SCF SETTINGS
------------
Hamiltonian:
 Ab initio Hamiltonian  Method          .... Hartree-Fock(GTOs)


General Settings:
 Integral files         IntName         .... /scratch/allen/tmpyp4_amber_gaff2/conf1/conf1/Conf94.orca
 Hartree-Fock type      HFTyp           .... RHF
 Total Charge           Charge          ....    0
 Multiplicity           Mult            ....    1
 Number of Electrons    NEL             ....  358
 Basis Dimension        Dim             ....  918
 Nuclear Repulsion      ENuc            ....   6221.8575413565 Eh

Convergence Acceleration:
 DIIS                   CNVDIIS         .... on
   Start iteration      DIISMaxIt       ....    12
   Startup error        DIISStart       ....  0.200000
   # of expansion vecs  DIISMaxEq       ....     5
   Bias factor          DIISBfac        ....   1.050
   Max. coefficient     DIISMaxC        ....  10.000
 Trust-Rad. Augm. Hess. CNVTRAH         .... auto
   Auto Start mean grad. ratio tolernc. ....  1.125000
   Auto Start start iteration           ....    20
   Auto Start num. interpolation iter.  ....    10
   Max. Number of Micro iterations      ....    16
   Max. Number of Macro iterations      .... Maxiter - #DIIS iter
   Number of Davidson start vectors     ....     2
   Converg. threshold I  (grad. norm)   ....   1.000e-05
   Converg. threshold II (energy diff.) ....   1.000e-08
   Grad. Scal. Fac. for Micro threshold ....   0.100
   Minimum threshold for Micro iter.    ....   0.010
   NR start threshold (gradient norm)   ....   0.001
   Initial trust radius                 ....   0.400
   Minimum AH scaling param. (alpha)    ....   1.000
   Maximum AH scaling param. (alpha)    .... 1000.000
   Orbital update algorithm             .... Taylor
   White noise on init. David. guess    .... on
   Maximum white noise                  ....   0.010
   Quad. conv. algorithm                .... NR
 SOSCF                  CNVSOSCF        .... on
   Start iteration      SOSCFMaxIt      ....   150
   Startup grad/error   SOSCFStart      ....  0.003300
 Level Shifting         CNVShift        .... on
   Level shift para.    LevelShift      ....    0.2500
   Turn off err/grad.   ShiftErr        ....    0.0010
 Zerner damping         CNVZerner       .... off
 Static damping         CNVDamp         .... on
   Fraction old density DampFac         ....    0.7000
   Max. Damping (<1)    DampMax         ....    0.9800
   Min. Damping (>=0)   DampMin         ....    0.0000
   Turn off err/grad.   DampErr         ....    0.1000
 Fernandez-Rico         CNVRico         .... off

SCF Procedure:
 Maximum # iterations   MaxIter         ....   125
 SCF integral mode      SCFMode         .... Direct
   Integral package                     .... SHARK and LIBINT hybrid scheme
 Reset frequency        DirectResetFreq ....    20
 Integral Threshold     Thresh          ....  2.500e-11 Eh
 Primitive CutOff       TCut            ....  2.500e-12 Eh

Convergence Tolerance:
 Convergence Check Mode ConvCheckMode   .... Total+1el-Energy
 Convergence forced     ConvForced      .... 1
 Energy Change          TolE            ....  1.000e-08 Eh
 1-El. energy change                    ....  1.000e-05 Eh
 Orbital Gradient       TolG            ....  1.000e-05
 Orbital Rotation angle TolX            ....  1.000e-05
 DIIS Error             TolErr          ....  5.000e-07


Diagonalization of the overlap matrix:
Smallest eigenvalue                        ... 2.264e-04
Time for diagonalization                   ...    0.396 sec
Threshold for overlap eigenvalues          ... 1.000e-08
Number of eigenvalues below threshold      ... 0
Time for construction of square roots      ...    0.250 sec
Total time needed                          ...    0.651 sec

Time for model grid setup =    1.053 sec

------------------------------
INITIAL GUESS: MODEL POTENTIAL
------------------------------
Loading Hartree-Fock densities                     ... done
Calculating cut-offs                               ... done
Initializing the effective Hamiltonian             ... done
Setting up the integral package (SHARK)            ... done
Starting the Coulomb interaction                   ... done (   1.1 sec)
Reading the grid                                   ... done
Mapping shells                                     ... done
Starting the XC term evaluation                    ... done (   0.2 sec)
Transforming the Hamiltonian                       ... done (   0.2 sec)
Diagonalizing the Hamiltonian                      ... done (   0.3 sec)
Back transforming the eigenvectors                 ... done (   0.1 sec)
Now organizing SCF variables                       ... done
                      ------------------
                      INITIAL GUESS DONE (   3.1 sec)
                      ------------------
--------------
SCF ITERATIONS
--------------
ITER       Energy         Delta-E        Max-DP      RMS-DP      [F,P]     Damp
               ***  Starting incremental Fock matrix formation  ***
  0  -2121.6414782941   0.000000000000 0.06934010  0.00121189  0.2351220 0.7000
  1  -2122.3104980694  -0.669019775274 0.05271602  0.00098186  0.1454529 0.7000
                               ***Turning on DIIS***
  2  -2122.7266917438  -0.416193674444 0.11738620  0.00221908  0.0807567 0.0000
  3  -2117.7656325185   4.961059225308 0.03458426  0.00068543  0.0442671 0.0000
  4  -2123.4130654821  -5.647432963544 0.00932795  0.00023053  0.0073854 0.0000
  5  -2123.5809099735  -0.167844491421 0.00549230  0.00013873  0.0051626 0.0000
  6  -2123.5597540713   0.021155902170 0.00464988  0.00009504  0.0024660 0.0000
  7  -2123.6640460791  -0.104292007756 0.00417207  0.00008024  0.0019463 0.0000
  8  -2123.6920233396  -0.027977260565 0.00406602  0.00008187  0.0018333 0.0000
                      *** Initiating the SOSCF procedure ***
                           *** Shutting down DIIS ***
                      *** Re-Reading the Fockian *** 
                      *** Removing any level shift *** 
ITER      Energy       Delta-E        Grad      Rot      Max-DP    RMS-DP
  9  -2123.65078168   0.0412416608  0.003122  0.003122  0.002961  0.000060
               *** Restarting incremental Fock matrix formation ***
 10  -2123.60780777   0.0429739133  0.002173  0.021067  0.006143  0.000101
 11  -2123.60848549  -0.0006777241  0.001433  0.070611  0.017882  0.000339
 12  -2123.60968709  -0.0012015971  0.001098  0.016807  0.005640  0.000085
 13  -2123.61001235  -0.0003252674  0.000871  0.018847  0.006335  0.000104
 14  -2123.61024664  -0.0002342827  0.000511  0.013005  0.003936  0.000054
 15  -2123.61033528  -0.0000886476  0.000341  0.013394  0.003626  0.000056
 16  -2123.61039872  -0.0000634353  0.000326  0.007986  0.001714  0.000029
 17  -2123.61042120  -0.0000224837  0.000167  0.002179  0.000643  0.000011
 18  -2123.61042725  -0.0000060486  0.000136  0.002403  0.000411  0.000009
 19  -2123.61043036  -0.0000031070  0.000084  0.002903  0.000485  0.000009
 20  -2123.61043259  -0.0000022284  0.000075  0.004131  0.000666  0.000012
 21  -2123.61043441  -0.0000018237  0.000050  0.003392  0.000599  0.000011
 22  -2123.61043553  -0.0000011147  0.000040  0.002027  0.000402  0.000006
 23  -2123.61043607  -0.0000005433  0.000033  0.000946  0.000282  0.000004
 24  -2123.61043637  -0.0000003006  0.000029  0.000787  0.000223  0.000003
 25  -2123.61043655  -0.0000001849  0.000022  0.000759  0.000211  0.000003
 26  -2123.61043667  -0.0000001205  0.000014  0.000524  0.000150  0.000002
 27  -2123.61043674  -0.0000000700  0.000010  0.000255  0.000076  0.000001
 28  -2123.61043678  -0.0000000325  0.000004  0.000045  0.000018  0.000000
 29  -2123.61043678  -0.0000000068  0.000003  0.000020  0.000008  0.000000
               *** Restarting incremental Fock matrix formation ***
                  ***Gradient check signals convergence***
              ***Rediagonalizing the Fockian in SOSCF/NRSCF***

               *****************************************************
               *                     SUCCESS                       *
               *           SCF CONVERGED AFTER  30 CYCLES          *
               *****************************************************


----------------
TOTAL SCF ENERGY
----------------

Total Energy       :        -2123.61043674 Eh          -57786.37779 eV

Components:
Nuclear Repulsion  :         6221.85754136 Eh          169305.35102 eV
Electronic Energy  :        -8345.46797809 Eh         -227091.72880 eV
One Electron Energy:       -15285.20737365 Eh         -415931.63819 eV
Two Electron Energy:         6939.73939556 Eh          188839.90939 eV

Virial components:
Potential Energy   :        -4245.59645928 Eh         -115528.55302 eV
Kinetic Energy     :         2121.98602254 Eh           57742.17523 eV
Virial Ratio       :            2.00076552


---------------
SCF CONVERGENCE
---------------

  Last Energy change         ...    4.7019e-08  Tolerance :   1.0000e-08
  Last MAX-Density change    ...    7.2610e-06  Tolerance :   1.0000e-07
  Last RMS-Density change    ...    1.2763e-07  Tolerance :   5.0000e-09
  Last Orbital Gradient      ...    1.4305e-06  Tolerance :   1.0000e-05
  Last Orbital Rotation      ...    2.0837e-05  Tolerance :   1.0000e-05

             **** THE GBW FILE WAS UPDATED (/scratch/allen/tmpyp4_amber_gaff2/conf1/conf1/Conf94.orca.gbw) ****
             **** DENSITY /scratch/allen/tmpyp4_amber_gaff2/conf1/conf1/Conf94.orca.scfp WAS UPDATED ****
             **** ENERGY FILE WAS UPDATED (/scratch/allen/tmpyp4_amber_gaff2/conf1/conf1/Conf94.orca.en.tmp) ****
             **** THE GBW FILE WAS UPDATED (/scratch/allen/tmpyp4_amber_gaff2/conf1/conf1/Conf94.orca.gbw) ****
             **** DENSITY /scratch/allen/tmpyp4_amber_gaff2/conf1/conf1/Conf94.orca.scfp WAS UPDATED ****
----------------
ORBITAL ENERGIES
----------------

  NO   OCC          E(Eh)            E(eV) 
   0   2.0000     -15.719041      -427.7368 
   1   2.0000     -15.628753      -425.2800 
   2   2.0000     -15.618385      -424.9979 
   3   2.0000     -15.576902      -423.8691 
   4   2.0000     -15.520533      -422.3352 
   5   2.0000     -15.504284      -421.8930 
   6   2.0000     -15.451352      -420.4527 
   7   2.0000     -15.426775      -419.7839 
   8   2.0000     -11.357288      -309.0475 
   9   2.0000     -11.355291      -308.9932 
  10   2.0000     -11.349770      -308.8429 
  11   2.0000     -11.312860      -307.8386 
  12   2.0000     -11.296550      -307.3947 
  13   2.0000     -11.290879      -307.2404 
  14   2.0000     -11.289482      -307.2024 
  15   2.0000     -11.285966      -307.1068 
  16   2.0000     -11.285855      -307.1037 
  17   2.0000     -11.281274      -306.9791 
  18   2.0000     -11.280655      -306.9622 
  19   2.0000     -11.271160      -306.7039 
  20   2.0000     -11.263375      -306.4920 
  21   2.0000     -11.243432      -305.9494 
  22   2.0000     -11.239661      -305.8467 
  23   2.0000     -11.232499      -305.6518 
  24   2.0000     -11.226993      -305.5020 
  25   2.0000     -11.226093      -305.4775 
  26   2.0000     -11.222695      -305.3851 
  27   2.0000     -11.218752      -305.2778 
  28   2.0000     -11.218464      -305.2699 
  29   2.0000     -11.210965      -305.0659 
  30   2.0000     -11.209224      -305.0185 
  31   2.0000     -11.195286      -304.6392 
  32   2.0000     -11.194103      -304.6070 
  33   2.0000     -11.193040      -304.5781 
  34   2.0000     -11.188476      -304.4539 
  35   2.0000     -11.187719      -304.4333 
  36   2.0000     -11.183469      -304.3177 
  37   2.0000     -11.180128      -304.2268 
  38   2.0000     -11.179963      -304.2223 
  39   2.0000     -11.177620      -304.1585 
  40   2.0000     -11.170049      -303.9525 
  41   2.0000     -11.165004      -303.8152 
  42   2.0000     -11.164955      -303.8139 
  43   2.0000     -11.161818      -303.7285 
  44   2.0000     -11.160380      -303.6894 
  45   2.0000     -11.144509      -303.2575 
  46   2.0000     -11.143870      -303.2401 
  47   2.0000     -11.141010      -303.1623 
  48   2.0000     -11.137494      -303.0666 
  49   2.0000     -11.131108      -302.8929 
  50   2.0000     -11.116494      -302.4952 
  51   2.0000     -11.110900      -302.3429 
  52   2.0000      -1.390995       -37.8509 
  53   2.0000      -1.316959       -35.8363 
  54   2.0000      -1.307414       -35.5765 
  55   2.0000      -1.272134       -34.6165 
  56   2.0000      -1.224268       -33.3140 
  57   2.0000      -1.200384       -32.6641 
  58   2.0000      -1.178043       -32.0562 
  59   2.0000      -1.164641       -31.6915 
  60   2.0000      -1.136774       -30.9332 
  61   2.0000      -1.108882       -30.1742 
  62   2.0000      -1.106250       -30.1026 
  63   2.0000      -1.097177       -29.8557 
  64   2.0000      -1.066279       -29.0149 
  65   2.0000      -1.057038       -28.7635 
  66   2.0000      -1.041404       -28.3381 
  67   2.0000      -1.032360       -28.0919 
  68   2.0000      -1.015167       -27.6241 
  69   2.0000      -1.003947       -27.3188 
  70   2.0000      -0.999334       -27.1933 
  71   2.0000      -0.994801       -27.0699 
  72   2.0000      -0.985394       -26.8139 
  73   2.0000      -0.976242       -26.5649 
  74   2.0000      -0.964325       -26.2406 
  75   2.0000      -0.961603       -26.1666 
  76   2.0000      -0.950821       -25.8731 
  77   2.0000      -0.940451       -25.5910 
  78   2.0000      -0.934702       -25.4345 
  79   2.0000      -0.919686       -25.0259 
  80   2.0000      -0.912278       -24.8243 
  81   2.0000      -0.890955       -24.2441 
  82   2.0000      -0.886574       -24.1249 
  83   2.0000      -0.868486       -23.6327 
  84   2.0000      -0.859879       -23.3985 
  85   2.0000      -0.846498       -23.0344 
  86   2.0000      -0.829065       -22.5600 
  87   2.0000      -0.826646       -22.4942 
  88   2.0000      -0.820198       -22.3187 
  89   2.0000      -0.794338       -21.6150 
  90   2.0000      -0.785808       -21.3829 
  91   2.0000      -0.771867       -21.0036 
  92   2.0000      -0.739653       -20.1270 
  93   2.0000      -0.733520       -19.9601 
  94   2.0000      -0.728728       -19.8297 
  95   2.0000      -0.723805       -19.6957 
  96   2.0000      -0.716360       -19.4932 
  97   2.0000      -0.709268       -19.3002 
  98   2.0000      -0.707265       -19.2456 
  99   2.0000      -0.704468       -19.1696 
 100   2.0000      -0.695776       -18.9330 
 101   2.0000      -0.688255       -18.7284 
 102   2.0000      -0.684134       -18.6162 
 103   2.0000      -0.675445       -18.3798 
 104   2.0000      -0.672583       -18.3019 
 105   2.0000      -0.670718       -18.2512 
 106   2.0000      -0.666840       -18.1456 
 107   2.0000      -0.661777       -18.0079 
 108   2.0000      -0.652146       -17.7458 
 109   2.0000      -0.649017       -17.6606 
 110   2.0000      -0.648366       -17.6429 
 111   2.0000      -0.641906       -17.4672 
 112   2.0000      -0.640377       -17.4256 
 113   2.0000      -0.634289       -17.2599 
 114   2.0000      -0.634057       -17.2536 
 115   2.0000      -0.629361       -17.1258 
 116   2.0000      -0.627017       -17.0620 
 117   2.0000      -0.615026       -16.7357 
 118   2.0000      -0.610845       -16.6219 
 119   2.0000      -0.609103       -16.5745 
 120   2.0000      -0.608547       -16.5594 
 121   2.0000      -0.600544       -16.3416 
 122   2.0000      -0.592193       -16.1144 
 123   2.0000      -0.589242       -16.0341 
 124   2.0000      -0.584184       -15.8964 
 125   2.0000      -0.578338       -15.7374 
 126   2.0000      -0.574849       -15.6424 
 127   2.0000      -0.570696       -15.5294 
 128   2.0000      -0.570164       -15.5149 
 129   2.0000      -0.570056       -15.5120 
 130   2.0000      -0.556313       -15.1380 
 131   2.0000      -0.543221       -14.7818 
 132   2.0000      -0.541879       -14.7453 
 133   2.0000      -0.538558       -14.6549 
 134   2.0000      -0.533541       -14.5184 
 135   2.0000      -0.529202       -14.4003 
 136   2.0000      -0.519285       -14.1305 
 137   2.0000      -0.515651       -14.0316 
 138   2.0000      -0.513539       -13.9741 
 139   2.0000      -0.512281       -13.9399 
 140   2.0000      -0.509856       -13.8739 
 141   2.0000      -0.503247       -13.6941 
 142   2.0000      -0.501138       -13.6367 
 143   2.0000      -0.497504       -13.5378 
 144   2.0000      -0.495247       -13.4764 
 145   2.0000      -0.492889       -13.4122 
 146   2.0000      -0.488616       -13.2959 
 147   2.0000      -0.473406       -12.8820 
 148   2.0000      -0.470306       -12.7977 
 149   2.0000      -0.465816       -12.6755 
 150   2.0000      -0.462746       -12.5919 
 151   2.0000      -0.460066       -12.5190 
 152   2.0000      -0.451941       -12.2979 
 153   2.0000      -0.440918       -11.9980 
 154   2.0000      -0.432742       -11.7755 
 155   2.0000      -0.431008       -11.7283 
 156   2.0000      -0.418245       -11.3810 
 157   2.0000      -0.416599       -11.3362 
 158   2.0000      -0.411154       -11.1881 
 159   2.0000      -0.409539       -11.1441 
 160   2.0000      -0.381613       -10.3842 
 161   2.0000      -0.369306       -10.0493 
 162   2.0000      -0.353493        -9.6190 
 163   2.0000      -0.351770        -9.5722 
 164   2.0000      -0.345497        -9.4015 
 165   2.0000      -0.341621        -9.2960 
 166   2.0000      -0.338002        -9.1975 
 167   2.0000      -0.317186        -8.6311 
 168   2.0000      -0.311855        -8.4860 
 169   2.0000      -0.304727        -8.2920 
 170   2.0000      -0.298134        -8.1126 
 171   2.0000      -0.282440        -7.6856 
 172   2.0000      -0.275658        -7.5010 
 173   2.0000      -0.266514        -7.2522 
 174   2.0000      -0.228879        -6.2281 
 175   2.0000      -0.182989        -4.9794 
 176   2.0000      -0.173159        -4.7119 
 177   2.0000      -0.062604        -1.7035 
 178   2.0000      -0.050809        -1.3826 
 179   0.0000       0.036152         0.9837 
 180   0.0000       0.054516         1.4834 
 181   0.0000       0.074173         2.0183 
 182   0.0000       0.098639         2.6841 
 183   0.0000       0.102299         2.7837 
 184   0.0000       0.123545         3.3618 
 185   0.0000       0.141256         3.8438 
 186   0.0000       0.149264         4.0617 
 187   0.0000       0.161061         4.3827 
 188   0.0000       0.165576         4.5055 
 189   0.0000       0.167034         4.5452 
 190   0.0000       0.167228         4.5505 
 191   0.0000       0.173307         4.7159 
 192   0.0000       0.180099         4.9007 
 193   0.0000       0.195620         5.3231 
 194   0.0000       0.200399         5.4531 
 195   0.0000       0.205840         5.6012 
 196   0.0000       0.212099         5.7715 
 197   0.0000       0.212572         5.7844 
 198   0.0000       0.217545         5.9197 
 199   0.0000       0.218103         5.9349 
 200   0.0000       0.229972         6.2579 
 201   0.0000       0.236689         6.4406 
 202   0.0000       0.237965         6.4753 
 203   0.0000       0.239765         6.5243 
 204   0.0000       0.241321         6.5667 
 205   0.0000       0.245682         6.6854 
 206   0.0000       0.247781         6.7425 
 207   0.0000       0.249487         6.7889 
 208   0.0000       0.251342         6.8394 
 209   0.0000       0.258250         7.0273 
 210   0.0000       0.263675         7.1750 
 211   0.0000       0.267177         7.2703 
 212   0.0000       0.268197         7.2980 
 213   0.0000       0.273957         7.4547 
 214   0.0000       0.279013         7.5923 
 215   0.0000       0.280838         7.6420 
 216   0.0000       0.283657         7.7187 
 217   0.0000       0.285314         7.7638 
 218   0.0000       0.287478         7.8227 
 219   0.0000       0.289405         7.8751 
 220   0.0000       0.290406         7.9024 
 221   0.0000       0.294499         8.0137 
 222   0.0000       0.299135         8.1399 
 223   0.0000       0.299703         8.1553 
 224   0.0000       0.300417         8.1748 
 225   0.0000       0.305424         8.3110 
 226   0.0000       0.306885         8.3508 
 227   0.0000       0.307086         8.3562 
 228   0.0000       0.317731         8.6459 
 229   0.0000       0.320476         8.7206 
 230   0.0000       0.327367         8.9081 
 231   0.0000       0.330226         8.9859 
 232   0.0000       0.333087         9.0637 
 233   0.0000       0.336605         9.1595 
 234   0.0000       0.340318         9.2605 
 235   0.0000       0.356653         9.7050 
 236   0.0000       0.358226         9.7478 
 237   0.0000       0.361588         9.8393 
 238   0.0000       0.374252        10.1839 
 239   0.0000       0.387785        10.5522 
 240   0.0000       0.394812        10.7434 
 241   0.0000       0.398964        10.8564 
 242   0.0000       0.408290        11.1101 
 243   0.0000       0.417364        11.3570 
 244   0.0000       0.423833        11.5331 
 245   0.0000       0.430558        11.7161 
 246   0.0000       0.436452        11.8765 
 247   0.0000       0.438561        11.9339 
 248   0.0000       0.443387        12.0652 
 249   0.0000       0.444801        12.1036 
 250   0.0000       0.451956        12.2984 
 251   0.0000       0.456112        12.4114 
 252   0.0000       0.458168        12.4674 
 253   0.0000       0.468960        12.7611 
 254   0.0000       0.471213        12.8224 
 255   0.0000       0.476398        12.9634 
 256   0.0000       0.479523        13.0485 
 257   0.0000       0.483267        13.1504 
 258   0.0000       0.485470        13.2103 
 259   0.0000       0.493444        13.4273 
 260   0.0000       0.501606        13.6494 
 261   0.0000       0.503850        13.7105 
 262   0.0000       0.506861        13.7924 
 263   0.0000       0.509415        13.8619 
 264   0.0000       0.512063        13.9339 
 265   0.0000       0.517021        14.0689 
 266   0.0000       0.520533        14.1644 
 267   0.0000       0.525226        14.2921 
 268   0.0000       0.531898        14.4737 
 269   0.0000       0.539455        14.6793 
 270   0.0000       0.543433        14.7876 
 271   0.0000       0.544953        14.8289 
 272   0.0000       0.546295        14.8654 
 273   0.0000       0.548802        14.9337 
 274   0.0000       0.553101        15.0507 
 275   0.0000       0.560397        15.2492 
 276   0.0000       0.568399        15.4669 
 277   0.0000       0.571841        15.5606 
 278   0.0000       0.578201        15.7336 
 279   0.0000       0.585925        15.9438 
 280   0.0000       0.588442        16.0123 
 281   0.0000       0.593679        16.1548 
 282   0.0000       0.597227        16.2514 
 283   0.0000       0.598699        16.2914 
 284   0.0000       0.599825        16.3221 
 285   0.0000       0.602912        16.4061 
 286   0.0000       0.605032        16.4638 
 287   0.0000       0.609181        16.5767 
 288   0.0000       0.613398        16.6914 
 289   0.0000       0.618300        16.8248 
 290   0.0000       0.625476        17.0201 
 291   0.0000       0.630593        17.1593 
 292   0.0000       0.632856        17.2209 
 293   0.0000       0.637800        17.3554 
 294   0.0000       0.641566        17.4579 
 295   0.0000       0.647261        17.6129 
 296   0.0000       0.648321        17.6417 
 297   0.0000       0.655070        17.8254 
 298   0.0000       0.660660        17.9775 
 299   0.0000       0.662399        18.0248 
 300   0.0000       0.664138        18.0721 
 301   0.0000       0.668174        18.1819 
 302   0.0000       0.669292        18.2124 
 303   0.0000       0.674506        18.3542 
 304   0.0000       0.677943        18.4478 
 305   0.0000       0.679825        18.4990 
 306   0.0000       0.683421        18.5968 
 307   0.0000       0.686533        18.6815 
 308   0.0000       0.691310        18.8115 
 309   0.0000       0.693591        18.8736 
 310   0.0000       0.698905        19.0182 
 311   0.0000       0.702177        19.1072 
 312   0.0000       0.704468        19.1696 
 313   0.0000       0.707252        19.2453 
 314   0.0000       0.712914        19.3994 
 315   0.0000       0.714948        19.4547 
 316   0.0000       0.715644        19.4737 
 317   0.0000       0.717402        19.5215 
 318   0.0000       0.719478        19.5780 
 319   0.0000       0.722918        19.6716 
 320   0.0000       0.725984        19.7550 
 321   0.0000       0.729016        19.8375 
 322   0.0000       0.731789        19.9130 
 323   0.0000       0.738189        20.0871 
 324   0.0000       0.738798        20.1037 
 325   0.0000       0.742742        20.2110 
 326   0.0000       0.744421        20.2567 
 327   0.0000       0.749256        20.3883 
 328   0.0000       0.753101        20.4929 
 329   0.0000       0.755036        20.5456 
 330   0.0000       0.757858        20.6224 
 331   0.0000       0.762095        20.7377 
 332   0.0000       0.762904        20.7597 
 333   0.0000       0.765245        20.8234 
 334   0.0000       0.766895        20.8683 
 335   0.0000       0.768506        20.9121 
 336   0.0000       0.769354        20.9352 
 337   0.0000       0.774983        21.0884 
 338   0.0000       0.783078        21.3086 
 339   0.0000       0.785855        21.3842 
 340   0.0000       0.790486        21.5102 
 341   0.0000       0.791054        21.5257 
 342   0.0000       0.793296        21.5867 
 343   0.0000       0.794558        21.6210 
 344   0.0000       0.797341        21.6967 
 345   0.0000       0.798121        21.7180 
 346   0.0000       0.804752        21.8984 
 347   0.0000       0.806806        21.9543 
 348   0.0000       0.812241        22.1022 
 349   0.0000       0.814464        22.1627 
 350   0.0000       0.817278        22.2393 
 351   0.0000       0.819857        22.3094 
 352   0.0000       0.824209        22.4279 
 353   0.0000       0.825989        22.4763 
 354   0.0000       0.827614        22.5205 
 355   0.0000       0.829820        22.5806 
 356   0.0000       0.831782        22.6339 
 357   0.0000       0.836918        22.7737 
 358   0.0000       0.840080        22.8597 
 359   0.0000       0.840800        22.8793 
 360   0.0000       0.845295        23.0016 
 361   0.0000       0.845567        23.0090 
 362   0.0000       0.849187        23.1075 
 363   0.0000       0.850859        23.1530 
 364   0.0000       0.852240        23.1906 
 365   0.0000       0.858029        23.3482 
 366   0.0000       0.858769        23.3683 
 367   0.0000       0.859405        23.3856 
 368   0.0000       0.860865        23.4253 
 369   0.0000       0.864523        23.5249 
 370   0.0000       0.866692        23.5839 
 371   0.0000       0.869813        23.6688 
 372   0.0000       0.870416        23.6852 
 373   0.0000       0.871312        23.7096 
 374   0.0000       0.875480        23.8230 
 375   0.0000       0.877791        23.8859 
 376   0.0000       0.878802        23.9134 
 377   0.0000       0.880018        23.9465 
 378   0.0000       0.883840        24.0505 
 379   0.0000       0.887610        24.1531 
 380   0.0000       0.890733        24.2381 
 381   0.0000       0.891508        24.2592 
 382   0.0000       0.901860        24.5408 
 383   0.0000       0.903204        24.5774 
 384   0.0000       0.904386        24.6096 
 385   0.0000       0.908079        24.7101 
 386   0.0000       0.909962        24.7613 
 387   0.0000       0.915959        24.9245 
 388   0.0000       0.917769        24.9738 
 389   0.0000       0.918835        25.0028 
 390   0.0000       0.920730        25.0543 
 391   0.0000       0.925206        25.1761 
 392   0.0000       0.928132        25.2558 
 393   0.0000       0.933080        25.3904 
 394   0.0000       0.933602        25.4046 
 395   0.0000       0.935526        25.4570 
 396   0.0000       0.936485        25.4831 
 397   0.0000       0.940290        25.5866 
 398   0.0000       0.941165        25.6104 
 399   0.0000       0.942775        25.6542 
 400   0.0000       0.945715        25.7342 
 401   0.0000       0.948422        25.8079 
 402   0.0000       0.952143        25.9091 
 403   0.0000       0.956221        26.0201 
 404   0.0000       0.958376        26.0787 
 405   0.0000       0.960534        26.1375 
 406   0.0000       0.962729        26.1972 
 407   0.0000       0.967480        26.3265 
 408   0.0000       0.969113        26.3709 
 409   0.0000       0.974924        26.5290 
 410   0.0000       0.980854        26.6904 
 411   0.0000       0.985021        26.8038 
 412   0.0000       0.987589        26.8737 
 413   0.0000       0.995738        27.0954 
 414   0.0000       0.996629        27.1197 
 415   0.0000       1.000126        27.2148 
 416   0.0000       1.004583        27.3361 
 417   0.0000       1.006380        27.3850 
 418   0.0000       1.008813        27.4512 
 419   0.0000       1.016718        27.6663 
 420   0.0000       1.021500        27.7964 
 421   0.0000       1.025188        27.8968 
 422   0.0000       1.031755        28.0755 
 423   0.0000       1.037764        28.2390 
 424   0.0000       1.038940        28.2710 
 425   0.0000       1.045503        28.4496 
 426   0.0000       1.056378        28.7455 
 427   0.0000       1.063737        28.9457 
 428   0.0000       1.065909        29.0048 
 429   0.0000       1.070692        29.1350 
 430   0.0000       1.074234        29.2314 
 431   0.0000       1.083287        29.4777 
 432   0.0000       1.085057        29.5259 
 433   0.0000       1.088151        29.6101 
 434   0.0000       1.094368        29.7793 
 435   0.0000       1.097737        29.8709 
 436   0.0000       1.105047        30.0699 
 437   0.0000       1.107069        30.1249 
 438   0.0000       1.112510        30.2729 
 439   0.0000       1.115417        30.3521 
 440   0.0000       1.117226        30.4013 
 441   0.0000       1.118608        30.4389 
 442   0.0000       1.123843        30.5813 
 443   0.0000       1.129035        30.7226 
 444   0.0000       1.132935        30.8287 
 445   0.0000       1.134662        30.8757 
 446   0.0000       1.141756        31.0688 
 447   0.0000       1.144033        31.1307 
 448   0.0000       1.145534        31.1716 
 449   0.0000       1.148760        31.2594 
 450   0.0000       1.155056        31.4307 
 451   0.0000       1.156620        31.4732 
 452   0.0000       1.158937        31.5363 
 453   0.0000       1.160415        31.5765 
 454   0.0000       1.165752        31.7217 
 455   0.0000       1.168177        31.7877 
 456   0.0000       1.175911        31.9982 
 457   0.0000       1.177697        32.0468 
 458   0.0000       1.184237        32.2247 
 459   0.0000       1.186625        32.2897 
 460   0.0000       1.188510        32.3410 
 461   0.0000       1.191242        32.4153 
 462   0.0000       1.199782        32.6477 
 463   0.0000       1.203186        32.7403 
 464   0.0000       1.205025        32.7904 
 465   0.0000       1.207886        32.8683 
 466   0.0000       1.210690        32.9445 
 467   0.0000       1.212882        33.0042 
 468   0.0000       1.217619        33.1331 
 469   0.0000       1.219397        33.1815 
 470   0.0000       1.226860        33.3845 
 471   0.0000       1.228892        33.4399 
 472   0.0000       1.233125        33.5550 
 473   0.0000       1.237883        33.6845 
 474   0.0000       1.238923        33.7128 
 475   0.0000       1.242761        33.8172 
 476   0.0000       1.246480        33.9185 
 477   0.0000       1.249856        34.0103 
 478   0.0000       1.257526        34.2190 
 479   0.0000       1.258012        34.2323 
 480   0.0000       1.258406        34.2430 
 481   0.0000       1.264169        34.3998 
 482   0.0000       1.265791        34.4439 
 483   0.0000       1.270162        34.5629 
 484   0.0000       1.274020        34.6678 
 485   0.0000       1.282088        34.8874 
 486   0.0000       1.284820        34.9617 
 487   0.0000       1.287523        35.0353 
 488   0.0000       1.289217        35.0814 
 489   0.0000       1.291118        35.1331 
 490   0.0000       1.295425        35.2503 
 491   0.0000       1.300325        35.3837 
 492   0.0000       1.302651        35.4469 
 493   0.0000       1.305912        35.5357 
 494   0.0000       1.309748        35.6400 
 495   0.0000       1.314820        35.7781 
 496   0.0000       1.319883        35.9159 
 497   0.0000       1.323099        36.0034 
 498   0.0000       1.325463        36.0677 
 499   0.0000       1.331158        36.2227 
 500   0.0000       1.332403        36.2565 
 501   0.0000       1.336735        36.3744 
 502   0.0000       1.339920        36.4611 
 503   0.0000       1.342772        36.5387 
 504   0.0000       1.346229        36.6328 
[...]
      pz      :     0.021743  p :     0.079239
      px      :     0.042803
      py      :     0.014694
 77 H s       :     0.896288  s :     0.896288
      pz      :     0.047067  p :     0.078281
      px      :     0.015002
      py      :     0.016212
 78 H s       :     0.896691  s :     0.896691
      pz      :     0.025417  p :     0.078189
      px      :     0.020723
      py      :     0.032049
 79 H s       :     0.906957  s :     0.906957
      pz      :     0.022661  p :     0.087336
      px      :     0.021912
      py      :     0.042764
 80 H s       :     0.880752  s :     0.880752
      pz      :     0.038078  p :     0.083092
      px      :     0.029440
      py      :     0.015574
 81 H s       :     0.889016  s :     0.889016
      pz      :     0.037521  p :     0.083236
      px      :     0.016072
      py      :     0.029642
 82 H s       :     0.914207  s :     0.914207
      pz      :     0.022555  p :     0.087184
      px      :     0.030861
      py      :     0.033767
 83 H s       :     0.872367  s :     0.872367
      pz      :     0.039150  p :     0.083588
      px      :     0.015249
      py      :     0.029189
 84 H s       :     0.889090  s :     0.889090
      pz      :     0.035802  p :     0.084521
      px      :     0.031806
      py      :     0.016912
 85 H s       :     0.896482  s :     0.896482
      pz      :     0.022506  p :     0.079582
      px      :     0.014168
      py      :     0.042908
 86 H s       :     0.890864  s :     0.890864
      pz      :     0.024692  p :     0.078884
      px      :     0.032985
      py      :     0.021208
 87 H s       :     0.891535  s :     0.891535
      pz      :     0.047779  p :     0.078564
      px      :     0.015664
      py      :     0.015121
 88 H s       :     0.918803  s :     0.918803
      pz      :     0.022605  p :     0.086827
      px      :     0.041906
      py      :     0.022316
 89 H s       :     0.875816  s :     0.875816
      pz      :     0.037783  p :     0.084038
      px      :     0.030451
      py      :     0.015804


                      *****************************
                      * MAYER POPULATION ANALYSIS *
                      *****************************

  NA   - Mulliken gross atomic population
  ZA   - Total nuclear charge
  QA   - Mulliken gross atomic charge
  VA   - Mayer's total valence
  BVA  - Mayer's bonded valence
  FA   - Mayer's free valence

  ATOM       NA         ZA         QA         VA         BVA        FA
  0 C      5.7612     6.0000     0.2388     3.7991     3.7991    -0.0000
  1 N      7.4104     7.0000    -0.4104     3.4851     3.4851    -0.0000
  2 C      6.0665     6.0000    -0.0665     3.9207     3.9207    -0.0000
  3 N      7.3443     7.0000    -0.3443     3.4192     3.4192    -0.0000
  4 C      6.0678     6.0000    -0.0678     3.9526     3.9526     0.0000
  5 N      7.5660     7.0000    -0.5660     3.0656     3.0656    -0.0000
  6 C      6.0244     6.0000    -0.0244     3.9574     3.9574     0.0000
  7 N      7.3368     7.0000    -0.3368     3.4457     3.4457    -0.0000
  8 C      5.7661     6.0000     0.2339     3.7989     3.7989    -0.0000
  9 N      7.5664     7.0000    -0.5664     3.0928     3.0928    -0.0000
 10 C      5.8970     6.0000     0.1030     3.8572     3.8572    -0.0000
 11 N      7.4401     7.0000    -0.4401     3.3710     3.3710     0.0000
 12 C      6.0580     6.0000    -0.0580     3.9085     3.9085    -0.0000
 13 N      7.4519     7.0000    -0.4519     3.3128     3.3128     0.0000
 14 C      5.7813     6.0000     0.2187     3.8114     3.8114    -0.0000
 15 N      7.4419     7.0000    -0.4419     3.3617     3.3617     0.0000
 16 C      5.7418     6.0000     0.2582     3.8064     3.8064    -0.0000
 17 C      6.0322     6.0000    -0.0322     3.9608     3.9608     0.0000
 18 C      6.1738     6.0000    -0.1738     3.6704     3.6704    -0.0000
 19 C      5.7706     6.0000     0.2294     3.9044     3.9044    -0.0000
 20 C      5.8140     6.0000     0.1860     3.8207     3.8207    -0.0000
 21 C      6.0666     6.0000    -0.0666     3.8894     3.8894     0.0000
 22 C      6.0922     6.0000    -0.0922     3.9849     3.9849    -0.0000
 23 C      6.0692     6.0000    -0.0692     3.9884     3.9884     0.0000
 24 C      5.7822     6.0000     0.2178     3.8310     3.8310     0.0000
 25 C      5.8849     6.0000     0.1151     3.8943     3.8943     0.0000
 26 C      6.0650     6.0000    -0.0650     3.9097     3.9097    -0.0000
 27 C      5.7503     6.0000     0.2497     3.9036     3.9036     0.0000
 28 C      6.0388     6.0000    -0.0388     3.9912     3.9912     0.0000
 29 C      6.1974     6.0000    -0.1974     3.7284     3.7284    -0.0000
 30 C      5.7806     6.0000     0.2194     3.7770     3.7770     0.0000
 31 C      5.8137     6.0000     0.1863     3.8341     3.8341    -0.0000
 32 C      6.0641     6.0000    -0.0641     3.9130     3.9130     0.0000
 33 C      6.1042     6.0000    -0.1042     3.9838     3.9838     0.0000
 34 C      6.0503     6.0000    -0.0503     4.0001     4.0001    -0.0000
 35 C      5.8237     6.0000     0.1763     3.8301     3.8301    -0.0000
 36 C      5.8784     6.0000     0.1216     3.9120     3.9120     0.0000
 37 C      6.0710     6.0000    -0.0710     3.9131     3.9131    -0.0000
 38 C      5.7546     6.0000     0.2454     3.7940     3.7940     0.0000
 39 C      6.0659     6.0000    -0.0659     3.9995     3.9995    -0.0000
 40 C      6.2056     6.0000    -0.2056     3.7535     3.7535    -0.0000
 41 C      5.7844     6.0000     0.2156     3.8730     3.8730     0.0000
 42 C      5.7874     6.0000     0.2126     3.8333     3.8333    -0.0000
 43 C      6.0778     6.0000    -0.0778     3.9050     3.9050     0.0000
 44 C      6.0928     6.0000    -0.0928     3.9828     3.9828     0.0000
 45 C      6.0371     6.0000    -0.0371     3.9966     3.9966    -0.0000
 46 C      5.8179     6.0000     0.1821     3.8196     3.8196    -0.0000
 47 C      5.8831     6.0000     0.1169     3.8977     3.8977     0.0000
 48 C      6.0828     6.0000    -0.0828     3.8970     3.8970    -0.0000
 49 C      5.7940     6.0000     0.2060     3.8604     3.8604     0.0000
 50 C      6.0689     6.0000    -0.0689     3.9903     3.9903    -0.0000
 51 C      6.1889     6.0000    -0.1889     3.7431     3.7431     0.0000
 52 H      0.9159     1.0000     0.0841     0.9817     0.9817     0.0000
 53 H      1.0062     1.0000    -0.0062     1.0028     1.0028     0.0000
 54 H      0.9305     1.0000     0.0695     1.0044     1.0044    -0.0000
 55 H      0.9176     1.0000     0.0824     0.9827     0.9827    -0.0000
 56 H      0.9129     1.0000     0.0871     0.9727     0.9727    -0.0000
 57 H      0.9222     1.0000     0.0778     0.9848     0.9848     0.0000
 58 H      0.9240     1.0000     0.0760     0.9871     0.9871     0.0000
 59 H      1.0300     1.0000    -0.0300     0.9958     0.9958    -0.0000
 60 H      0.9321     1.0000     0.0679     1.0049     1.0049    -0.0000
 61 H      0.8225     1.0000     0.1775     1.0439     1.0439    -0.0000
 62 H      0.8326     1.0000     0.1674     1.0433     1.0433    -0.0000
 63 H      0.9481     1.0000     0.0519     0.9864     0.9864    -0.0000
 64 H      1.0359     1.0000    -0.0359     0.9931     0.9931     0.0000
 65 H      0.9603     1.0000     0.0397     1.0076     1.0076     0.0000
 66 H      0.9458     1.0000     0.0542     0.9847     0.9847    -0.0000
 67 H      0.9426     1.0000     0.0574     0.9715     0.9715     0.0000
 68 H      0.9445     1.0000     0.0555     0.9863     0.9863    -0.0000
 69 H      0.9413     1.0000     0.0587     0.9830     0.9830     0.0000
 70 H      1.0122     1.0000    -0.0122     0.9986     0.9986     0.0000
 71 H      0.9539     1.0000     0.0461     1.0077     1.0077     0.0000
 72 H      0.9641     1.0000     0.0359     0.9861     0.9861     0.0000
 73 H      1.0195     1.0000    -0.0195     0.9960     0.9960     0.0000
 74 H      0.9721     1.0000     0.0279     1.0090     1.0090    -0.0000
 75 H      0.9655     1.0000     0.0345     0.9868     0.9868     0.0000
 76 H      0.9551     1.0000     0.0449     0.9700     0.9700     0.0000
 77 H      0.9550     1.0000     0.0450     0.9841     0.9841     0.0000
 78 H      0.9557     1.0000     0.0443     0.9834     0.9834     0.0000
 79 H      1.0115     1.0000    -0.0115     1.0021     1.0021    -0.0000
 80 H      0.9724     1.0000     0.0276     1.0061     1.0061    -0.0000
 81 H      0.9502     1.0000     0.0498     0.9852     0.9852     0.0000
 82 H      1.0231     1.0000    -0.0231     0.9952     0.9952     0.0000
 83 H      0.9576     1.0000     0.0424     1.0109     1.0109    -0.0000
 84 H      0.9514     1.0000     0.0486     0.9865     0.9865    -0.0000
 85 H      0.9464     1.0000     0.0536     0.9713     0.9713    -0.0000
 86 H      0.9438     1.0000     0.0562     0.9841     0.9841    -0.0000
 87 H      0.9459     1.0000     0.0541     0.9852     0.9852     0.0000
 88 H      1.0313     1.0000    -0.0313     0.9907     0.9907    -0.0000
 89 H      0.9618     1.0000     0.0382     1.0057     1.0057    -0.0000

  Mayer bond orders larger than 0.100000
B(  0-C ,  1-N ) :   1.2146 B(  0-C , 17-C ) :   1.5090 B(  0-C , 52-H ) :   0.9665 
B(  1-N ,  8-C ) :   1.2058 B(  1-N , 10-C ) :   0.9236 B(  2-C , 12-C ) :   1.5828 
B(  2-C , 16-C ) :   1.2701 B(  2-C , 53-H ) :   0.9793 B(  3-N , 14-C ) :   1.1739 
B(  3-N , 16-C ) :   1.2022 B(  3-N , 61-H ) :   0.8951 B(  4-C ,  6-C ) :   1.3631 
B(  4-C , 17-C ) :   1.3633 B(  4-C , 18-C ) :   1.0469 B(  5-N , 19-C ) :   1.3636 
B(  5-N , 27-C ) :   1.4490 B(  6-C ,  8-C ) :   1.5109 B(  6-C , 54-H ) :   0.9704 
B(  7-N , 30-C ) :   1.1832 B(  7-N , 38-C ) :   1.2164 B(  7-N , 62-H ) :   0.9015 
B(  8-C , 55-H ) :   0.9675 B(  9-N , 41-C ) :   1.4354 B(  9-N , 49-C ) :   1.3925 
B( 10-C , 56-H ) :   0.9767 B( 10-C , 57-H ) :   0.9806 B( 10-C , 58-H ) :   0.9815 
B( 11-N , 20-C ) :   1.0954 B( 11-N , 24-C ) :   1.1346 B( 11-N , 25-C ) :   0.9626 
B( 12-C , 14-C ) :   1.2706 B( 12-C , 59-H ) :   0.9768 B( 13-N , 31-C ) :   1.0810 
B( 13-N , 35-C ) :   1.0702 B( 13-N , 36-C ) :   0.9832 B( 14-C , 18-C ) :   1.2652 
B( 15-N , 42-C ) :   1.1263 B( 15-N , 46-C ) :   1.0879 B( 15-N , 47-C ) :   0.9667 
B( 16-C , 51-C ) :   1.2506 B( 17-C , 60-H ) :   0.9709 B( 18-C , 19-C ) :   1.3145 
B( 19-C , 21-C ) :   1.1605 B( 20-C , 28-C ) :   1.6296 B( 20-C , 63-H ) :   0.9710 
B( 21-C , 26-C ) :   1.6844 B( 21-C , 64-H ) :   0.9716 B( 22-C , 23-C ) :   1.2542 
B( 22-C , 28-C ) :   1.2799 B( 22-C , 29-C ) :   1.2571 B( 23-C , 24-C ) :   1.6357 
B( 23-C , 65-H ) :   0.9723 B( 24-C , 66-H ) :   0.9691 B( 25-C , 67-H ) :   0.9762 
B( 25-C , 68-H ) :   0.9834 B( 25-C , 69-H ) :   0.9818 B( 26-C , 27-C ) :   1.1701 
B( 26-C , 70-H ) :   0.9758 B( 27-C , 29-C ) :   1.2438 B( 28-C , 71-H ) :   0.9709 
B( 29-C , 30-C ) :   1.1743 B( 30-C , 32-C ) :   1.3518 B( 31-C , 39-C ) :   1.6867 
B( 31-C , 72-H ) :   0.9709 B( 32-C , 37-C ) :   1.5084 B( 32-C , 73-H ) :   0.9771 
B( 33-C , 34-C ) :   1.2312 B( 33-C , 39-C ) :   1.2232 B( 33-C , 40-C ) :   1.3619 
B( 34-C , 35-C ) :   1.6853 B( 34-C , 74-H ) :   0.9709 B( 35-C , 75-H ) :   0.9709 
B( 36-C , 76-H ) :   0.9755 B( 36-C , 77-H ) :   0.9826 B( 36-C , 78-H ) :   0.9838 
B( 37-C , 38-C ) :   1.3450 B( 37-C , 79-H ) :   0.9793 B( 38-C , 40-C ) :   1.1778 
B( 39-C , 80-H ) :   0.9721 B( 40-C , 41-C ) :   1.1662 B( 41-C , 43-C ) :   1.2586 
B( 42-C , 50-C ) :   1.6429 B( 42-C , 81-H ) :   0.9696 B( 43-C , 48-C ) :   1.5924 
B( 43-C , 82-H ) :   0.9757 B( 44-C , 45-C ) :   1.2810 B( 44-C , 50-C ) :   1.2479 
B( 44-C , 51-C ) :   1.2474 B( 45-C , 46-C ) :   1.6334 B( 45-C , 83-H ) :   0.9702 
B( 46-C , 84-H ) :   0.9709 B( 47-C , 85-H ) :   0.9759 B( 47-C , 86-H ) :   0.9826 
B( 47-C , 87-H ) :   0.9830 B( 48-C , 49-C ) :   1.2528 B( 48-C , 88-H ) :   0.9725 
B( 49-C , 51-C ) :   1.1873 B( 50-C , 89-H ) :   0.9723 

-------
TIMINGS
-------

Total SCF time: 0 days 0 hours 34 min 2 sec 

Total time                  ....    2042.633 sec
Sum of individual times     ....    2037.964 sec  ( 99.8%)

Fock matrix formation       ....    2014.572 sec  ( 98.6%)
Diagonalization             ....       5.783 sec  (  0.3%)
Density matrix formation    ....       0.721 sec  (  0.0%)
Population analysis         ....       0.518 sec  (  0.0%)
Initial guess               ....       2.036 sec  (  0.1%)
Orbital Transformation      ....       0.000 sec  (  0.0%)
Orbital Orthonormalization  ....       0.000 sec  (  0.0%)
DIIS solution               ....       2.861 sec  (  0.1%)
SOSCF solution              ....      10.421 sec  (  0.5%)

Maximum memory used throughout the entire SCF-calculation: 302.6 MB


           ************************************************************
           *        Program running with 16 parallel MPI-processes    *
           *              working on a common directory               *
           ************************************************************

------------------------------------------------------------------------------
                                ORCA  MP2 
------------------------------------------------------------------------------

Freezing NCore=104 chemical core electrons

----------
MP2 ENERGY (disk based algorithm)
----------

Dimension of the basis                    ...  918
Memory devoted to MP2                     ... 2000 MB   
Data format for buffers                   ... DOUBLE
Compression type for matrix containers    ... UNCOMPRESSED

-------------------------------
PARTIAL EXCHANGE TRANSFORMATION
-------------------------------

Transformation type                        ... one-operator
Generation of integrals (i,mue|j,nue)      ... ON
Generation of integrals (mue,kappa|nue,tau)... OFF
Generation of integrals (i,mue|a,nue)      ... OFF
Dimension of the basis                     ...  918
Number of internal MOs                     ...  127 (  52- 178)
Pair cutoff                                ... 2.500e-12 Eh
Number of AO pairs in the trafo            ... 421821
Total Number of distinct AO pairs          ... 421821
Memory devoted for trafo                   ... 2000.0 MB 
Max. Number of MO pairs treated together   ...  311      
Number Format for Storage                  ... Double (8 Byte)
Integral package used                      ... LIBINT

Starting integral evaluation:
    ... done with AO integral generation
Closing buffer AOK     (37.70 GB; CompressionRatio= 1.34)
Collecting buffer AOK 
Number of MO pairs included in the trafo   ... 8128
------------------------
SORTING OF (i,mue|j,nue)
------------------------

IBATCH = 1 of  2
IBATCH = 2 of  2
Closing buffer KAO     (51.03 GB; CompressionRatio= 1.00)
Collecting buffer KAO 
N(AO-Batches) Done                         ...  85522756 
N(AO-Batches) Skipped                      ...  81982350 
N(IJ)-pairs Skipped                        ...         0 
TOTAL TIME for half transformation         ...  3082.942 sec
AO-integral generation                     ...   210.258 sec
Half transformation                        ...   372.576 sec
K-integral sorting                         ...  2321.356 sec
Process 10:   Internal MO 132
Process  1:   Internal MO  60
Process  7:   Internal MO 108

Finished integral transformation - now doing MP2 part

Process 13:   Internal MO 156
OPERATOR COMBINATION   0   0: ij=( 52..178, 52..178)
Process  4:   Internal MO  84
Process  0:   Internal MO  54
Process  2:   Internal MO  69
Process  1:   Internal MO  63
Process  0:   Internal MO  57
Process  5:   Internal MO  93
Process  2:   Internal MO  72
Process  8:   Internal MO 117
Process  3:   Internal MO  78
Process  1:   Internal MO  66
Process  6:   Internal MO 102
Process 14:   Internal MO 165
Process 11:   Internal MO 141
Process  9:   Internal MO 126
Process  2:   Internal MO  75
Process  7:   Internal MO 111
Process 12:   Internal MO 150
Process  4:   Internal MO  87
Process  3:   Internal MO  81
Process  5:   Internal MO  96
Process 10:   Internal MO 135
Process  6:   Internal MO 105
Process 15:   Internal MO 174
Process  7:   Internal MO 114
Process  4:   Internal MO  90
Process  9:   Internal MO 129
Process  5:   Internal MO  99
Process  8:   Internal MO 120
Process 13:   Internal MO 159
Process 11:   Internal MO 144
Process 10:   Internal MO 138
Process 14:   Internal MO 168
Process 12:   Internal MO 153
Process  8:   Internal MO 123
Process 15:   Internal MO 177
Process 11:   Internal MO 147
Process 13:   Internal MO 162
Process 14:   Internal MO 171
-----------------------------------------------
 MP2 CORRELATION ENERGY   :     -7.259814993 Eh
-----------------------------------------------


-------
TIMINGS
-------
Total time                : 3439.210 sec
Integral trafo            : 3085.047 sec ( 89.7%)
K(i,j)                    :   11.490 sec (  0.3%)
T(i,j)                    :    0.075 sec (  0.0%)

---------------------------------------
MP2 TOTAL ENERGY:    -2130.870251730 Eh
---------------------------------------

Maximum memory used throughout the entire MP2-calculation: 2275.2 MB

-------------------------   --------------------
FINAL SINGLE POINT ENERGY     -2130.870251729721
-------------------------   --------------------


                            ***************************************
                            *     ORCA property calculations      *
                            ***************************************


  WARNING: The energy has been calculated at the MP2 level but the densities
           used in the property calculations are still SCF densities
           MP2 response densities have not been calculated 
           use %mp2 Density relaxed end
           or  %mp2 Density unrelaxed end

                                    ---------------------
                                    Active property flags
                                    ---------------------
   (+) Dipole Moment


------------------------------------------------------------------------------
                       ORCA ELECTRIC PROPERTIES CALCULATION
------------------------------------------------------------------------------

Dipole Moment Calculation                       ... on
Quadrupole Moment Calculation                   ... off
Polarizability Calculation                      ... off
GBWName                                         ... /scratch/allen/tmpyp4_amber_gaff2/conf1/conf1/Conf94.orca.gbw
Electron density                                ... /scratch/allen/tmpyp4_amber_gaff2/conf1/conf1/Conf94.orca.scfp
The origin for moment calculation is the CENTER OF MASS  = ( 0.001847, -0.002873  0.003937)

-------------
DIPOLE MOMENT
-------------
                                X             Y             Z
Electronic contribution:     -4.67458       5.48387      -0.15350
Nuclear contribution   :     -0.02630       0.16858       0.21001
                        -----------------------------------------
Total Dipole Moment    :     -4.70088       5.65245       0.05651
                        -----------------------------------------
Magnitude (a.u.)       :      7.35198
Magnitude (Debye)      :     18.68725



--------------------
Rotational spectrum 
--------------------
 
Rotational constants in cm-1:     0.001498     0.001472     0.000763 
Rotational constants in MHz :    44.899559    44.138545    22.868772 

 Dipole components along the rotational axes: 
x,y,z [a.u.] :     6.525998     3.385356     0.048426 
x,y,z [Debye]:    16.587769     8.604892     0.123089 

 

Timings for individual modules:

Sum of individual times         ...     5504.920 sec (=  91.749 min)
GTO integral calculation        ...        3.314 sec (=   0.055 min)   0.1 %
SCF iterations                  ...     2043.679 sec (=  34.061 min)  37.1 %
MP2 module                      ...     3457.927 sec (=  57.632 min)  62.8 %
                             ****ORCA TERMINATED NORMALLY****
TOTAL RUN TIME: 0 days 1 hours 31 minutes 48 seconds 221 msec
# of primitive gaussian functions

