
                                 *****************
                                 * O   R   C   A *
                                 *****************

                                            #,                                       
                                            ###                                      
                                            ####                                     
                                            #####                                    
                                            ######                                   
                                           ########,                                 
                                     ,,################,,,,,                         
                               ,,#################################,,                 
                          ,,##########################################,,             
                       ,#########################################, ''#####,          
                    ,#############################################,,   '####,        
                  ,##################################################,,,,####,       
                ,###########''''           ''''###############################       
              ,#####''   ,,,,##########,,,,          '''####'''          '####       
            ,##' ,,,,###########################,,,                        '##       
           ' ,,###''''                  '''############,,,                           
         ,,##''                                '''############,,,,        ,,,,,,###''
      ,#''                                            '''#######################'''  
     '                                                          ''''####''''         
             ,#######,   #######,   ,#######,      ##                                
            ,#'     '#,  ##    ##  ,#'     '#,    #''#        ######   ,####,        
            ##       ##  ##   ,#'  ##            #'  '#       #        #'  '#        
            ##       ##  #######   ##           ,######,      #####,   #    #        
            '#,     ,#'  ##    ##  '#,     ,#' ,#      #,         ##   #,  ,#        
             '#######'   ##     ##  '#######'  #'      '#     #####' # '####'        



                  #######################################################
                  #                        -***-                        #
                  #          Department of theory and spectroscopy      #
                  #    Directorship and core code : Frank Neese         #
                  #        Max Planck Institute fuer Kohlenforschung    #
                  #                Kaiser Wilhelm Platz 1               #
                  #                 D-45470 Muelheim/Ruhr               #
                  #                      Germany                        #
                  #                                                     #
                  #                  All rights reserved                #
                  #                        -***-                        #
                  #######################################################


                         Program Version 5.0.4 -  RELEASE  -


 With contributions from (in alphabetic order):
   Daniel Aravena         : Magnetic Suceptibility
   Michael Atanasov       : Ab Initio Ligand Field Theory (pilot matlab implementation)
   Alexander A. Auer      : GIAO ZORA, VPT2 properties, NMR spectrum
   Ute Becker             : Parallelization
   Giovanni Bistoni       : ED, misc. LED, open-shell LED, HFLD
   Martin Brehm           : Molecular dynamics
   Dmytro Bykov           : SCF Hessian
   Vijay G. Chilkuri      : MRCI spin determinant printing, contributions to CSF-ICE
   Dipayan Datta          : RHF DLPNO-CCSD density
   Achintya Kumar Dutta   : EOM-CC, STEOM-CC
   Dmitry Ganyushin       : Spin-Orbit,Spin-Spin,Magnetic field MRCI
   Miquel Garcia          : C-PCM and meta-GGA Hessian, CC/C-PCM, Gaussian charge scheme
   Yang Guo               : DLPNO-NEVPT2, F12-NEVPT2, CIM, IAO-localization
   Andreas Hansen         : Spin unrestricted coupled pair/coupled cluster methods
   Benjamin Helmich-Paris : MC-RPA, TRAH-SCF, COSX integrals
   Lee Huntington         : MR-EOM, pCC
   Robert Izsak           : Overlap fitted RIJCOSX, COSX-SCS-MP3, EOM
   Marcus Kettner         : VPT2
   Christian Kollmar      : KDIIS, OOCD, Brueckner-CCSD(T), CCSD density, CASPT2, CASPT2-K
   Simone Kossmann        : Meta GGA functionals, TD-DFT gradient, OOMP2, MP2 Hessian
   Martin Krupicka        : Initial AUTO-CI
   Lucas Lang             : DCDCAS
   Marvin Lechner         : AUTO-CI (C++ implementation), FIC-MRCC
   Dagmar Lenk            : GEPOL surface, SMD
   Dimitrios Liakos       : Extrapolation schemes; Compound Job, initial MDCI parallelization
   Dimitrios Manganas     : Further ROCIS development; embedding schemes
   Dimitrios Pantazis     : SARC Basis sets
   Anastasios Papadopoulos: AUTO-CI, single reference methods and gradients
   Taras Petrenko         : DFT Hessian,TD-DFT gradient, ASA, ECA, R-Raman, ABS, FL, XAS/XES, NRVS
   Peter Pinski           : DLPNO-MP2, DLPNO-MP2 Gradient
   Christoph Reimann      : Effective Core Potentials
   Marius Retegan         : Local ZFS, SOC
   Christoph Riplinger    : Optimizer, TS searches, QM/MM, DLPNO-CCSD(T), (RO)-DLPNO pert. Triples
   Tobias Risthaus        : Range-separated hybrids, TD-DFT gradient, RPA, STAB
   Michael Roemelt        : Original ROCIS implementation
   Masaaki Saitow         : Open-shell DLPNO-CCSD energy and density
   Barbara Sandhoefer     : DKH picture change effects
   Avijit Sen             : IP-ROCIS
   Kantharuban Sivalingam : CASSCF convergence, NEVPT2, FIC-MRCI
   Bernardo de Souza      : ESD, SOC TD-DFT
   Georgi Stoychev        : AutoAux, RI-MP2 NMR, DLPNO-MP2 response
   Willem Van den Heuvel  : Paramagnetic NMR
   Boris Wezisla          : Elementary symmetry handling
   Frank Wennmohs         : Technical directorship


 We gratefully acknowledge several colleagues who have allowed us to
 interface, adapt or use parts of their codes:
   Stefan Grimme, W. Hujo, H. Kruse, P. Pracht,  : VdW corrections, initial TS optimization,
                  C. Bannwarth, S. Ehlert          DFT functionals, gCP, sTDA/sTD-DF
   Ed Valeev, F. Pavosevic, A. Kumar             : LibInt (2-el integral package), F12 methods
   Garnet Chan, S. Sharma, J. Yang, R. Olivares  : DMRG
   Ulf Ekstrom                                   : XCFun DFT Library
   Mihaly Kallay                                 : mrcc  (arbitrary order and MRCC methods)
   Jiri Pittner, Ondrej Demel                    : Mk-CCSD
   Frank Weinhold                                : gennbo (NPA and NBO analysis)
   Christopher J. Cramer and Donald G. Truhlar   : smd solvation model
   Lars Goerigk                                  : TD-DFT with DH, B97 family of functionals
   V. Asgeirsson, H. Jonsson                     : NEB implementation
   FAccTs GmbH                                   : IRC, NEB, NEB-TS, DLPNO-Multilevel, CI-OPT
                                                   MM, QMMM, 2- and 3-layer-ONIOM, Crystal-QMMM,
                                                   LR-CPCM, SF, NACMEs, symmetry and pop. for TD-DFT,
                                                   nearIR, NL-DFT gradient (VV10), updates on ESD,
                                                   ML-optimized integration grids
   S Lehtola, MJT Oliveira, MAL Marques          : LibXC Library
   Liviu Ungur et al                             : ANISO software


 Your calculation uses the libint2 library for the computation of 2-el integrals
 For citations please refer to: http://libint.valeyev.net

 Your ORCA version has been built with support for libXC version: 5.1.0
 For citations please refer to: https://tddft.org/programs/libxc/

 This ORCA versions uses:
   CBLAS   interface :  Fast vector & matrix operations
   LAPACKE interface :  Fast linear algebra routines
   SCALAPACK package :  Parallel linear algebra routines
   Shared memory     :  Shared parallel matrices
   BLAS/LAPACK       :  OpenBLAS 0.3.15  USE64BITINT DYNAMIC_ARCH NO_AFFINITY Sandybridge SINGLE_THREADED
        Core in use  :  Sandybridge
   Copyright (c) 2011-2014, The OpenBLAS Project


================================================================================

----- Orbital basis set information -----
Your calculation utilizes the basis: cc-pVDZ 
       H, B-Ne : Obtained from the ccRepo (grant-hill.group.shef.ac.uk/ccrepo) Feb. 2017
                 T. H. Dunning, Jr., J. Chem. Phys. 90, 1007 (1989)
            He : Obtained from the ccRepo (grant-hill.group.shef.ac.uk/ccrepo) Feb. 2017
                 D. E. Woon, T. H. Dunning, Jr., J. Chem. Phys. 100, 2975 (1994)
  Li-Be, Na-Mg : Obtained from the ccRepo (grant-hill.group.shef.ac.uk/ccrepo) Feb. 2017
                 B. P. Prascher, D. E. Woon, K. A. Peterson, T. H. Dunning, Jr., A. K. Wilson, Theor. Chem. Acc. 128, 69 (2011)
         Al-Ar : Obtained from the ccRepo (grant-hill.group.shef.ac.uk/ccrepo) Feb. 2017
                 D. E. Woon, T. H. Dunning, Jr., J. Chem. Phys. 98, 1358 (1993)
            Ca : Obtained from the Peterson Research Group Website (tyr0.chem.wsu.edu/~kipeters) Feb. 2017
                 J. Koput, K. A. Peterson, J. Phys. Chem. 106, 9595 (2002)
         Sc-Zn : Obtained from the ccRepo (grant-hill.group.shef.ac.uk/ccrepo) Feb. 2017
                 N. B. Balabanov, K. A. Peterson, J. Chem. Phys. 123, 064107 (2005)
                 N. B. Balabanov, K. A. Peterson, J. Chem. Phys. 125, 074110 (2006)
         Ga-Kr : Obtained from the ccRepo (grant-hill.group.shef.ac.uk/ccrepo) Feb. 2017
                 A. K. Wilson, D. E. Woon, K. A. Peterson, T. H. Dunning, Jr., J. Chem. Phys. 110, 7667 (1999)

================================================================================
                                        WARNINGS
                       Please study these warnings very carefully!
================================================================================


WARNING: No MP2 level density has been requested!
         To caclulate MP2 level properties use
         %mp2 Density relaxed end
         or
         %mp2 Density unrelaxed end

WARNING: Post HF methods need fully converged wavefunctions
  ===> : Setting SCFConvForced true
         You can overwrite this default with %scf ConvForced false 


INFO   : the flag for use of the SHARK integral package has been found!

================================================================================
                                       INPUT FILE
================================================================================
NAME = /scratch/allen/tmpyp4_amber_gaff2/2.Mdgx/conf11/conf11/Conf187.orca
|  1> ! PAL2
|  2> ! mp2 cc-pvdz TightSCF  NoKeepInts
|  3> 
|  4> %scf
|  5>   MaxCore 2000
|  6> end
|  7> %mp2
|  8>   MaxCore 2000
|  9> end
| 10> * xyz 0 1
| 11>    C       -4.95200         5.18200         0.17800
| 12>    C        1.47400         4.04100         0.05700
| 13>    C       -2.80200         4.09300         0.04900
| 14>    C       -2.22000         5.36600        -0.05200
| 15>    C       -3.01500         6.49500        -0.03200
| 16>    C       -5.18000         7.62400         0.13400
| 17>    C        0.13200         4.30700         0.06100
| 18>    C       -0.56900         3.05600         0.04700
| 19>    C        1.64900         2.61800         0.02300
| 20>    C       -4.19900         4.02400         0.16800
| 21>    N       -4.36000         6.39400         0.07800
| 22>    N        0.38800         2.06700         0.02500
| 23>    N       -2.01000         0.39500        -0.07500
| 24>    N       -0.38800        -2.07400        -0.02700
| 25>    N        2.01000        -0.40100         0.06500
| 26>    C       -1.96000         2.86100         0.02400
| 27>    C       -2.62300         1.61500        -0.01800
| 28>    C       -5.57300        -4.32900         1.06600
| 29>    C       -4.07300         1.47100         0.05600
| 30>    C       -4.10600        -2.75600        -0.02600
| 31>    C       -4.99500        -2.75700        -1.11100
| 32>    C       -6.13200        -3.54200        -1.07600
| 33>    C       -7.65100        -5.11300         0.04000
| 34>    C       -4.32400         0.14100         0.03700
| 35>    C       -3.02500        -0.52000        -0.04800
| 36>    C       -4.42200        -3.56600         1.07500
| 37>    N       -6.40700        -4.31300         0.00100
| 38>    C       -2.86700        -1.92200        -0.04000
| 39>    C       -1.65000        -2.62400        -0.02700
| 40>    C        3.56800        -6.14200        -1.04000
| 41>    C       -1.47600        -4.04900        -0.03400
| 42>    C        2.80300        -4.09900        -0.00800
| 43>    C        3.65700        -4.38400         1.06900
| 44>    C        4.42700        -5.53000         1.05900
| 45>    C        5.24500        -7.58800         0.01400
| 46>    C       -0.13400        -4.31500        -0.02200
| 47>    C        0.56800        -3.06400        -0.02700
| 48>    C        2.77500        -5.01200        -1.07400
| 49>    N        4.37600        -6.39100         0.01700
| 50>    C        1.95900        -2.86900        -0.00900
| 51>    C        2.62100        -1.62200         0.00900
| 52>    C        5.54300         4.33900        -1.13000
| 53>    C        4.07000        -1.47900        -0.09400
| 54>    C        4.10400         2.75100        -0.02100
| 55>    C        5.02700         2.72900         1.03600
| 56>    C        6.16600         3.50900         0.97800
| 57>    C        7.61900         5.15300        -0.11500
| 58>    C        4.32100        -0.14800        -0.09200
| 59>    C        3.02500         0.51400         0.01500
| 60>    C        4.38700         3.58200        -1.11500
| 61>    C        2.86600         1.91600         0.01300
| 62>    N        6.41300         4.29600        -0.09500
| 63>    H       -6.03200         5.17600         0.25500
| 64>    H        2.27400         4.76600         0.08100
| 65>    H       -1.14700         5.48500        -0.13700
| 66>    H       -2.61100         7.49700        -0.09800
| 67>    H       -5.22600         7.97400         1.16800
| 68>    H       -4.71900         8.38300        -0.49800
| 69>    H       -6.18100         7.39500        -0.22900
| 70>    H       -0.33200         5.28200         0.06900
| 71>    H       -4.70900         3.07000         0.23600
| 72>    H        0.18200         1.07200         0.00500
| 73>    H       -0.18300        -1.08000        -0.02100
| 74>    H       -5.86400        -4.96200         1.89500
| 75>    H       -4.79400         2.27200         0.13900
| 76>    H       -4.80000        -2.16000        -1.99400
| 77>    H       -6.84100        -3.58200        -1.89300
| 78>    H       -8.42800        -4.53600         0.54600
| 79>    H       -7.95600        -5.33700        -0.98100
| 80>    H       -7.45600        -6.03700         0.58400
| 81>    H       -5.28700        -0.34400         0.10000
| 82>    H       -3.78000        -3.60100         1.94700
| 83>    H        3.58700        -6.86800        -1.84300
| 84>    H       -2.27600        -4.77400        -0.05000
| 85>    H        3.71400        -3.72400         1.92600
| 86>    H        5.09200        -5.79500         1.87100
| 87>    H        6.20500        -7.32900        -0.43900
| 88>    H        5.39300        -7.91700         1.04200
| 89>    H        4.75900        -8.37300        -0.56400
| 90>    H        0.32900        -5.29000        -0.00800
| 91>    H        2.14600        -4.84200        -1.94000
| 92>    H        5.80800         4.98600        -1.95600
| 93>    H        4.78800        -2.28100        -0.18500
| 94>    H        4.86000         2.11400         1.91200
| 95>    H        6.90100         3.53100         1.77200
| 96>    H        7.38300         6.10900         0.35600
| 97>    H        8.41400         4.65200         0.43500
| 98>    H        7.92100         5.31000        -1.15000
| 99>    H        5.28300         0.33600        -0.17900
|100>    H        3.72000         3.63200        -1.96700
|101> *
|102> 
|103>                          ****END OF INPUT****
================================================================================

                       ****************************
                       * Single Point Calculation *
                       ****************************

---------------------------------
CARTESIAN COORDINATES (ANGSTROEM)
---------------------------------
  C     -4.952000    5.182000    0.178000
  C      1.474000    4.041000    0.057000
  C     -2.802000    4.093000    0.049000
  C     -2.220000    5.366000   -0.052000
  C     -3.015000    6.495000   -0.032000
  C     -5.180000    7.624000    0.134000
  C      0.132000    4.307000    0.061000
  C     -0.569000    3.056000    0.047000
  C      1.649000    2.618000    0.023000
  C     -4.199000    4.024000    0.168000
  N     -4.360000    6.394000    0.078000
  N      0.388000    2.067000    0.025000
  N     -2.010000    0.395000   -0.075000
  N     -0.388000   -2.074000   -0.027000
  N      2.010000   -0.401000    0.065000
  C     -1.960000    2.861000    0.024000
  C     -2.623000    1.615000   -0.018000
  C     -5.573000   -4.329000    1.066000
  C     -4.073000    1.471000    0.056000
  C     -4.106000   -2.756000   -0.026000
  C     -4.995000   -2.757000   -1.111000
  C     -6.132000   -3.542000   -1.076000
  C     -7.651000   -5.113000    0.040000
  C     -4.324000    0.141000    0.037000
  C     -3.025000   -0.520000   -0.048000
  C     -4.422000   -3.566000    1.075000
  N     -6.407000   -4.313000    0.001000
  C     -2.867000   -1.922000   -0.040000
  C     -1.650000   -2.624000   -0.027000
  C      3.568000   -6.142000   -1.040000
  C     -1.476000   -4.049000   -0.034000
  C      2.803000   -4.099000   -0.008000
  C      3.657000   -4.384000    1.069000
  C      4.427000   -5.530000    1.059000
  C      5.245000   -7.588000    0.014000
  C     -0.134000   -4.315000   -0.022000
  C      0.568000   -3.064000   -0.027000
  C      2.775000   -5.012000   -1.074000
  N      4.376000   -6.391000    0.017000
  C      1.959000   -2.869000   -0.009000
  C      2.621000   -1.622000    0.009000
  C      5.543000    4.339000   -1.130000
  C      4.070000   -1.479000   -0.094000
  C      4.104000    2.751000   -0.021000
  C      5.027000    2.729000    1.036000
  C      6.166000    3.509000    0.978000
  C      7.619000    5.153000   -0.115000
  C      4.321000   -0.148000   -0.092000
  C      3.025000    0.514000    0.015000
  C      4.387000    3.582000   -1.115000
  C      2.866000    1.916000    0.013000
  N      6.413000    4.296000   -0.095000
  H     -6.032000    5.176000    0.255000
  H      2.274000    4.766000    0.081000
  H     -1.147000    5.485000   -0.137000
  H     -2.611000    7.497000   -0.098000
  H     -5.226000    7.974000    1.168000
  H     -4.719000    8.383000   -0.498000
  H     -6.181000    7.395000   -0.229000
  H     -0.332000    5.282000    0.069000
  H     -4.709000    3.070000    0.236000
  H      0.182000    1.072000    0.005000
  H     -0.183000   -1.080000   -0.021000
  H     -5.864000   -4.962000    1.895000
  H     -4.794000    2.272000    0.139000
  H     -4.800000   -2.160000   -1.994000
  H     -6.841000   -3.582000   -1.893000
  H     -8.428000   -4.536000    0.546000
  H     -7.956000   -5.337000   -0.981000
  H     -7.456000   -6.037000    0.584000
  H     -5.287000   -0.344000    0.100000
  H     -3.780000   -3.601000    1.947000
  H      3.587000   -6.868000   -1.843000
  H     -2.276000   -4.774000   -0.050000
  H      3.714000   -3.724000    1.926000
  H      5.092000   -5.795000    1.871000
  H      6.205000   -7.329000   -0.439000
  H      5.393000   -7.917000    1.042000
  H      4.759000   -8.373000   -0.564000
  H      0.329000   -5.290000   -0.008000
  H      2.146000   -4.842000   -1.940000
  H      5.808000    4.986000   -1.956000
  H      4.788000   -2.281000   -0.185000
  H      4.860000    2.114000    1.912000
  H      6.901000    3.531000    1.772000
  H      7.383000    6.109000    0.356000
  H      8.414000    4.652000    0.435000
  H      7.921000    5.310000   -1.150000
  H      5.283000    0.336000   -0.179000
  H      3.720000    3.632000   -1.967000

----------------------------
CARTESIAN COORDINATES (A.U.)
----------------------------
  NO LB      ZA    FRAG     MASS         X           Y           Z
   0 C     6.0000    0    12.011   -9.357924    9.792561    0.336371
   1 C     6.0000    0    12.011    2.785456    7.636383    0.107714
   2 C     6.0000    0    12.011   -5.295013    7.734649    0.092597
   3 C     6.0000    0    12.011   -4.195192   10.140270   -0.098266
   4 C     6.0000    0    12.011   -5.697524   12.273771   -0.060471
   5 C     6.0000    0    12.011   -9.788781   14.407272    0.253223
   6 C     6.0000    0    12.011    0.249444    8.139050    0.115273
   7 C     6.0000    0    12.011   -1.075254    5.775003    0.088817
   8 C     6.0000    0    12.011    3.116158    4.947303    0.043464
   9 C     6.0000    0    12.011   -7.934960    7.604258    0.317474
  10 N     7.0000    0    14.007   -8.239206   12.082909    0.147399
  11 N     7.0000    0    14.007    0.733214    3.906064    0.047243
  12 N     7.0000    0    14.007   -3.798350    0.746442   -0.141729
  13 N     7.0000    0    14.007   -0.733214   -3.919292   -0.051023
  14 N     7.0000    0    14.007    3.798350   -0.757780    0.122832
  15 C     6.0000    0    12.011   -3.703863    5.406506    0.045353
  16 C     6.0000    0    12.011   -4.956752    3.051908   -0.034015
  17 C     6.0000    0    12.011  -10.531444   -8.180624    2.014448
  18 C     6.0000    0    12.011   -7.696855    2.779787    0.105825
  19 C     6.0000    0    12.011   -7.759216   -5.208085   -0.049133
  20 C     6.0000    0    12.011   -9.439182   -5.209975   -2.099486
  21 C     6.0000    0    12.011  -11.587801   -6.693410   -2.033345
  22 C     6.0000    0    12.011  -14.458295   -9.662170    0.075589
  23 C     6.0000    0    12.011   -8.171176    0.266451    0.069920
  24 C     6.0000    0    12.011   -5.716422   -0.982658   -0.090707
  25 C     6.0000    0    12.011   -8.356369   -6.738763    2.031456
  26 N     7.0000    0    14.007  -12.107475   -8.150389    0.001890
  27 C     6.0000    0    12.011   -5.417845   -3.632054   -0.075589
  28 C     6.0000    0    12.011   -3.118048   -4.958641   -0.051023
  29 C     6.0000    0    12.011    6.742543  -11.606698   -1.965315
  30 C     6.0000    0    12.011   -2.789236   -7.651501   -0.064251
  31 C     6.0000    0    12.011    5.296902   -7.745987   -0.015118
  32 C     6.0000    0    12.011    6.910728   -8.284559    2.020117
  33 C     6.0000    0    12.011    8.365818  -10.450186    2.001220
  34 C     6.0000    0    12.011    9.911614  -14.339242    0.026456
  35 C     6.0000    0    12.011   -0.253223   -8.154168   -0.041574
  36 C     6.0000    0    12.011    1.073364   -5.790121   -0.051023
  37 C     6.0000    0    12.011    5.243990   -9.471307   -2.029566
  38 N     7.0000    0    14.007    8.269442  -12.077240    0.032125
  39 C     6.0000    0    12.011    3.701973   -5.421624   -0.017008
  40 C     6.0000    0    12.011    4.952972   -3.065136    0.017008
  41 C     6.0000    0    12.011   10.474752    8.199522   -2.135391
  42 C     6.0000    0    12.011    7.691185   -2.794905   -0.177634
  43 C     6.0000    0    12.011    7.755436    5.198637   -0.039684
  44 C     6.0000    0    12.011    9.499653    5.157063    1.957756
  45 C     6.0000    0    12.011   11.652051    6.631049    1.848152
  46 C     6.0000    0    12.011   14.397823    9.737759   -0.217319
  47 C     6.0000    0    12.011    8.165507   -0.279679   -0.173855
  48 C     6.0000    0    12.011    5.716422    0.971319    0.028346
  49 C     6.0000    0    12.011    8.290229    6.768999   -2.107045
  50 C     6.0000    0    12.011    5.415955    3.620715    0.024566
  51 N     7.0000    0    14.007   12.118814    8.118263   -0.179524
  52 H     1.0000    0     1.008  -11.398828    9.781222    0.481880
  53 H     1.0000    0     1.008    4.297237    9.006435    0.153068
  54 H     1.0000    0     1.008   -2.167516   10.365148   -0.258892
  55 H     1.0000    0     1.008   -4.934075   14.167277   -0.185193
  56 H     1.0000    0     1.008   -9.875709   15.068676    2.207200
  57 H     1.0000    0     1.008   -8.917618   15.841574   -0.941084
  58 H     1.0000    0     1.008  -11.680397   13.974525   -0.432747
  59 H     1.0000    0     1.008   -0.627389    9.981533    0.130391
  60 H     1.0000    0     1.008   -8.898720    5.801459    0.445975
  61 H     1.0000    0     1.008    0.343930    2.025786    0.009449
  62 H     1.0000    0     1.008   -0.345820   -2.040904   -0.039684
  63 H     1.0000    0     1.008  -11.081354   -9.376821    3.581031
  64 H     1.0000    0     1.008   -9.059347    4.293458    0.262672
  65 H     1.0000    0     1.008   -9.070685   -4.081808   -3.768114
  66 H     1.0000    0     1.008  -12.927616   -6.768999   -3.577252
  67 H     1.0000    0     1.008  -15.926612   -8.571798    1.031790
  68 H     1.0000    0     1.008  -15.034661  -10.085468   -1.853821
  69 H     1.0000    0     1.008  -14.089798  -11.408277    1.103600
  70 H     1.0000    0     1.008   -9.990982   -0.650066    0.188973
  71 H     1.0000    0     1.008   -7.143165   -6.804904    3.679297
  72 H     1.0000    0     1.008    6.778448  -12.978639   -3.482765
  73 H     1.0000    0     1.008   -4.301017   -9.021553   -0.094486
  74 H     1.0000    0     1.008    7.018443   -7.037340    3.639613
  75 H     1.0000    0     1.008    9.622485  -10.950963    3.535678
  76 H     1.0000    0     1.008   11.725751  -13.849803   -0.829590
  77 H     1.0000    0     1.008   10.191293  -14.960962    1.969095
  78 H     1.0000    0     1.008    8.993207  -15.822677   -1.065806
  79 H     1.0000    0     1.008    0.621720   -9.996651   -0.015118
  80 H     1.0000    0     1.008    4.055352   -9.150054   -3.666069
  81 H     1.0000    0     1.008   10.975529    9.422175   -3.696304
  82 H     1.0000    0     1.008    9.048009   -4.310465   -0.349599
  83 H     1.0000    0     1.008    9.184069    3.994881    3.613156
  84 H     1.0000    0     1.008   13.041000    6.672623    3.348595
  85 H     1.0000    0     1.008   13.951848   11.544337    0.672743
  86 H     1.0000    0     1.008   15.900156    8.791006    0.822031
  87 H     1.0000    0     1.008   14.968521   10.034446   -2.173185
  88 H     1.0000    0     1.008    9.983423    0.634948   -0.338261
  89 H     1.0000    0     1.008    7.029781    6.863485   -3.717091

--------------------------------
INTERNAL COORDINATES (ANGSTROEM)
--------------------------------
 C      0   0   0     0.000000000000     0.00000000     0.00000000
 C      1   0   0     6.527633414952     0.00000000     0.00000000
 C      1   2   0     2.413516521593    16.90138230     0.00000000
 C      3   1   2     1.403372366836    87.93633479   349.30516575
 C      4   3   1     1.380965604206   120.11964058     0.13916358
 C      5   4   3     2.447329565057   152.54868855     1.59344298
 C      2   1   3     1.368114030335     1.45131574   134.89558120
 C      7   2   4     1.434084376876   108.05010202   167.66414873
 C      2   1   3     1.434123425651   107.09787720   354.03740652
 C      1   2   7     1.381330156045    46.89728906   142.37884493
 N      1   2   7     1.352556098652    74.00134726   326.05940644
 N      9   2   1     1.376127174356   106.58526707     0.20196366
 N     12   9   2     2.925062050624   168.53581413   171.12065651
 N     13  12   9     2.954513327098    91.55032014    11.12112580
 N     14  13  12     2.925371258490    88.43092389   359.84326247
 C      8   7   2     1.404790019896   127.24786865   181.11170171
 C     13  12   9     1.366535034311    81.72106996   188.00453233
 C     14  13  12     5.758810554272    80.56209567   166.76250791
 C     17  13  12     1.459010623676   111.08861209   183.82872609
 C     18  14  13     2.412235892279    27.27532823    36.33507194
 C     20  18  14     1.402692767501    87.95206320   148.94598259
 C     21  20  18     1.382106725257   120.14573887   359.70382047
 C     18  14  13     2.446510985056   144.15733107    82.80075377
 C     19  17  13     1.353610726908   106.29293361   359.75308708
 C     13  12   9     1.366813447402   172.21332906    33.46711076
 C     18  14  13     1.380960173213    15.08449437   309.23336894
 N     22  21  20     1.352773077792   120.73759875     0.27865223
 C     25  13  17     1.410897586645   125.60330303   182.37774668
 C     14  13  12     1.376642291955    80.24689249   177.85461986
 C     14  13  12     5.764089607215   164.51507311   312.20821879
 C     29  14  13     1.435600919476   106.58649366   178.76395472
 C     30  14  13     2.413316804732    27.10625047    82.12560436
 C     32  30  14     1.403734305344    87.90059683   149.76154742
 C     33  32  30     1.380694028378   120.14881443   359.74174632
 C     34  33  32     2.448777858443   152.49203239     2.45173620
 C     31  29  14     1.368160809262   108.16950133     0.70383075
 C     14  13  12     1.376239804685   169.26375223   353.09862627
 C     30  14  13     1.380907310430    14.68948582   353.70041132
 N     34  33  32     1.352658863128   120.85575621     0.19603406
 C     37  14  29     1.404717053360   126.01551127   180.90772073
 C     15  14  13     1.366491126938    81.61824056   183.09049352
 C      2   1   3     4.249062720177   159.33055371   125.00447803
 C     41  15  14     1.459677704153   111.05201287   175.08990246
 C     42   2   1     2.412953791518    41.78584867   202.63893718
 C     44  42   2     1.403446472082    87.95153797   233.97558675
 C     45  44  42     1.381696421071   120.11137308     0.19721020
 C     42   2   1     2.450019795838   135.97209175   112.95378628
 C     43  41  15     1.354461516618   106.26758155     0.30894352
 C     15  14  13     1.367461151185   171.87382904   332.35056460
 C     42   2   1     1.381886391857    32.59078432   251.49421637
 C      9   2   1     1.404988612053   126.98745415   181.20630119
 N     42   2   1     1.352765315936   113.57249190   140.69037547
 H      1   2   7     1.082758052383   169.19543117   158.34914274
 H      2   1   3     1.079907866440   127.69864908   175.37395063
 H      4   3   1     1.082919664610   121.08071174   179.55072739
 H      5   4   3     1.082393643736   122.75625687   179.43735202
 H      6   5   4     1.092598736957   104.43097082   100.15053197
 H      6   5   4     1.089966054517    84.70718560   209.56172493
 H      6   5   4     1.089133141540   133.90375293   322.35297436
 H     55   4   3     0.864794773342   152.78483407   319.61221824
 H     10   1   2     1.083900364425   118.74449808   176.73505620
 H     12   9   2     1.016297692608   125.29023241   180.00180175
 H     14  13  12     1.014936943854    44.97226959   359.42596618
 H     18  14  13     1.082871645210   128.03556573   234.20482432
 H     61  10   1     0.808355119981   155.62002592   156.98414426
 H     21  20  18     1.083569563987   121.05669627   180.67006309
 H     22  21  20     1.082483256222   122.73097286   180.59748951
 H     23  18  14     1.092105306278   103.92715769   234.93429879
 H     23  18  14     1.088871893291   134.19244188    12.25587044
 H     23  18  14     1.089833473518    84.85857450   125.45241208
 H     24  19  17     1.080075460327   127.28078426   178.44613241
 H     26  18  14     1.083408048706   118.76995697   244.94906660
 H     30  14  13     1.082703098730   127.99711412   279.66882698
 H     31  29  14     1.079759695488   125.22293469   180.92530585
 H     33  32  30     1.083188810873   121.01964473   180.74284758
 H     34  33  32     1.082494341787   122.70821597   180.59516895
 H     35  34  33     1.092652735319   105.73575241    97.19771933
 H     35  34  33     1.089462711615    84.05943581   206.43036958
 H     35  34  33     1.089268102902   133.08365142   318.50306270
 H     36  31  29     1.079439669458   126.61599965   178.98859863
 H     38  30  73     1.083742127999   118.77264435   359.90091293
 H     42   2   1     1.082178358682   119.31790784   357.32190593
 H     43  41  15     1.080281907652   126.36969097   182.06329380
 H     45  44  42     1.083277434455   121.10105945   179.58025624
 H     46  45  44     1.082194529648   122.72144639   179.46906377
 H     47  42   2     1.091546151109   106.65128841   315.16475048
 H     47  42   2     1.088818625851   132.46019523    94.52397119
 H     47  42   2     1.089531091801    83.63838232   206.04504406
 H     48  43  41     1.080402239909   127.23657387   181.62955349
 H     50  42   2     1.083186502870   118.77001737    94.71359229

---------------------------
INTERNAL COORDINATES (A.U.)
---------------------------
 C      0   0   0     0.000000000000     0.00000000     0.00000000
 C      1   0   0    12.335439456893     0.00000000     0.00000000
 C      1   2   0     4.560885245504    16.90138230     0.00000000
 C      3   1   2     2.651989437234    87.93633479   349.30516575
 C      4   3   1     2.609646792314   120.11964058     0.13916358
 C      5   4   3     4.624782637406   152.54868855     1.59344298
 C      2   1   3     2.585360837309     1.45131574   134.89558120
 C      7   2   4     2.710026725231   108.05010202   167.66414873
 C      2   1   3     2.710100516721   107.09787720   354.03740652
 C      1   2   7     2.610335695452    46.89728906   142.37884493
 N      1   2   7     2.555960607217    74.00134726   326.05940644
 N      9   2   1     2.600503484979   106.58526707     0.20196366
 N     12   9   2     5.527566200405   168.53581413   171.12065651
 N     13  12   9     5.583221047236    91.55032014    11.12112580
 N     14  13  12     5.528150518591    88.43092389   359.84326247
 C      8   7   2     2.654668413270   127.24786865   181.11170171
 C     13  12   9     2.582376967257    81.72106996   188.00453233
 C     14  13  12    10.882574804710    80.56209567   166.76250791
 C     17  13  12     2.757130505230   111.08861209   183.82872609
 C     18  14  13     4.558465206823    27.27532823    36.33507194
 C     20  18  14     2.650705180609    87.95206320   148.94598259
 C     21  20  18     2.611803198586   120.14573887   359.70382047
 C     18  14  13     4.623235745386   144.15733107    82.80075377
 C     19  17  13     2.557953565794   106.29293361   359.75308708
 C     13  12   9     2.582903091751   172.21332906    33.46711076
 C     18  14  13     2.609636529225    15.08449437   309.23336894
 N     22  21  20     2.556370638369   120.73759875     0.27865223
 C     25  13  17     2.666210041769   125.60330303   182.37774668
 C     14  13  12     2.601476916169    80.24689249   177.85461986
 C     14  13  12    10.892550769017   164.51507311   312.20821879
 C     29  14  13     2.712892575415   106.58649366   178.76395472
 C     30  14  13     4.560507835333    27.10625047    82.12560436
 C     32  30  14     2.652673401891    87.90059683   149.76154742
 C     33  32  30     2.609133588376   120.14881443   359.74174632
 C     34  33  32     4.627519515267   152.49203239     2.45173620
 C     31  29  14     2.585449236669   108.16950133     0.70383075
 C     14  13  12     2.600716325456   169.26375223   353.09862627
 C     30  14  13     2.609536633043    14.68948582   353.70041132
 N     34  33  32     2.556154803934   120.85575621     0.19603406
 C     37  14  29     2.654530526499   126.01551127   180.90772073
 C     15  14  13     2.582293994346    81.61824056   183.09049352
 C      2   1   3     8.029564866989   159.33055371   125.00447803
 C     41  15  14     2.758391104639   111.05201287   175.08990246
 C     42   2   1     4.559821839776    41.78584867   202.63893718
 C     44  42   2     2.652129475853    87.95153797   233.97558675
 C     45  44  42     2.611027836043   120.11137308     0.19721020
 C     42   2   1     4.629866436820   135.97209175   112.95378628
 C     43  41  15     2.559561325344   106.26758155     0.30894352
 C     15  14  13     2.584127074516   171.87382904   332.35056460
 C     42   2   1     2.611386828803    32.59078432   251.49421637
 C      9   2   1     2.655043698059   126.98745415   181.20630119
 N     42   2   1     2.556355970587   113.57249190   140.69037547
 H      1   2   7     2.046116188302   169.19543117   158.34914274
 H      2   1   3     2.040730117440   127.69864908   175.37395063
 H      4   3   1     2.046421591152   121.08071174   179.55072739
 H      5   4   3     2.045427555758   122.75625687   179.43735202
 H      6   5   4     2.064712387117   104.43097082   100.15053197
 H      6   5   4     2.059737338308    84.70718560   209.56172493
 H      6   5   4     2.058163360887   133.90375293   322.35297436
 H     55   4   3     1.634225283663   152.78483407   319.61221824
 H     10   1   2     2.048274845220   118.74449808   176.73505620
 H     12   9   2     1.920524309565   125.29023241   180.00180175
 H     14  13  12     1.917952867083    44.97226959   359.42596618
 H     18  14  13     2.046330847636   128.03556573   234.20482432
 H     61  10   1     1.527569795718   155.62002592   156.98414426
 H     21  20  18     2.047649722989   121.05669627   180.67006309
 H     22  21  20     2.045596898814   122.73097286   180.59748951
 H     23  18  14     2.063779938267   103.92715769   234.93429879
 H     23  18  14     2.057669673245   134.19244188    12.25587044
 H     23  18  14     2.059486796529    84.85857450   125.45241208
 H     24  19  17     2.041046823986   127.28078426   178.44613241
 H     26  18  14     2.047344503340   118.76995697   244.94906660
 H     30  14  13     2.046012340948   127.99711412   279.66882698
 H     31  29  14     2.040450114918   125.22293469   180.92530585
 H     33  32  30     2.046930203877   121.01964473   180.74284758
 H     34  33  32     2.045617847496   122.70821597   180.59516895
 H     35  34  33     2.064814429233   105.73575241    97.19771933
 H     35  34  33     2.058786158072    84.05943581   206.43036958
 H     35  34  33     2.058418400901   133.08365142   318.50306270
 H     36  31  29     2.039845353366   126.61599965   178.98859863
 H     38  30  73     2.047975821711   118.77264435   359.90091293
 H     42   2   1     2.045020725966   119.31790784   357.32190593
 H     43  41  15     2.041436952892   126.36969097   182.06329380
 H     45  44  42     2.047097678177   121.10105945   179.58025624
 H     46  45  44     2.045051284662   122.72144639   179.46906377
 H     47  42   2     2.062723288131   106.65128841   315.16475048
 H     47  42   2     2.057569012371   132.46019523    94.52397119
 H     47  42   2     2.058915377895    83.63838232   206.04504406
 H     48  43  41     2.041664347903   127.23657387   181.62955349
 H     50  42   2     2.046925842384   118.77001737    94.71359229

---------------------
BASIS SET INFORMATION
---------------------
There are 3 groups of distinct atoms

 Group   1 Type C   : 17s4p1d contracted to 3s2p1d pattern {881/31/1}
 Group   2 Type N   : 17s4p1d contracted to 3s2p1d pattern {881/31/1}
 Group   3 Type H   : 4s1p contracted to 2s1p pattern {31/1}

Atom   0C    basis set group =>   1
Atom   1N    basis set group =>   2
Atom   2C    basis set group =>   1
Atom   3N    basis set group =>   2
Atom   4C    basis set group =>   1
Atom   5N    basis set group =>   2
Atom   6C    basis set group =>   1
Atom   7N    basis set group =>   2
Atom   8C    basis set group =>   1
Atom   9N    basis set group =>   2
Atom  10C    basis set group =>   1
Atom  11N    basis set group =>   2
Atom  12C    basis set group =>   1
Atom  13N    basis set group =>   2
Atom  14C    basis set group =>   1
Atom  15N    basis set group =>   2
Atom  16C    basis set group =>   1
Atom  17C    basis set group =>   1
Atom  18C    basis set group =>   1
Atom  19C    basis set group =>   1
Atom  20C    basis set group =>   1
Atom  21C    basis set group =>   1
Atom  22C    basis set group =>   1
Atom  23C    basis set group =>   1
Atom  24C    basis set group =>   1
Atom  25C    basis set group =>   1
Atom  26C    basis set group =>   1
Atom  27C    basis set group =>   1
Atom  28C    basis set group =>   1
Atom  29C    basis set group =>   1
Atom  30C    basis set group =>   1
Atom  31C    basis set group =>   1
Atom  32C    basis set group =>   1
Atom  33C    basis set group =>   1
Atom  34C    basis set group =>   1
Atom  35C    basis set group =>   1
Atom  36C    basis set group =>   1
Atom  37C    basis set group =>   1
Atom  38C    basis set group =>   1
Atom  39C    basis set group =>   1
Atom  40C    basis set group =>   1
Atom  41C    basis set group =>   1
Atom  42C    basis set group =>   1
Atom  43C    basis set group =>   1
Atom  44C    basis set group =>   1
Atom  45C    basis set group =>   1
Atom  46C    basis set group =>   1
Atom  47C    basis set group =>   1
Atom  48C    basis set group =>   1
Atom  49C    basis set group =>   1
Atom  50C    basis set group =>   1
Atom  51C    basis set group =>   1
Atom  52H    basis set group =>   3
Atom  53H    basis set group =>   3
Atom  54H    basis set group =>   3
Atom  55H    basis set group =>   3
Atom  56H    basis set group =>   3
Atom  57H    basis set group =>   3
Atom  58H    basis set group =>   3
Atom  59H    basis set group =>   3
Atom  60H    basis set group =>   3
Atom  61H    basis set group =>   3
Atom  62H    basis set group =>   3
Atom  63H    basis set group =>   3
Atom  64H    basis set group =>   3
Atom  65H    basis set group =>   3
Atom  66H    basis set group =>   3
Atom  67H    basis set group =>   3
Atom  68H    basis set group =>   3
Atom  69H    basis set group =>   3
Atom  70H    basis set group =>   3
Atom  71H    basis set group =>   3
Atom  72H    basis set group =>   3
Atom  73H    basis set group =>   3
Atom  74H    basis set group =>   3
Atom  75H    basis set group =>   3
Atom  76H    basis set group =>   3
Atom  77H    basis set group =>   3
Atom  78H    basis set group =>   3
Atom  79H    basis set group =>   3
Atom  80H    basis set group =>   3
Atom  81H    basis set group =>   3
Atom  82H    basis set group =>   3
Atom  83H    basis set group =>   3
Atom  84H    basis set group =>   3
Atom  85H    basis set group =>   3
Atom  86H    basis set group =>   3
Atom  87H    basis set group =>   3
Atom  88H    basis set group =>   3
Atom  89H    basis set group =>   3


           ************************************************************
           *        Program running with 16 parallel MPI-processes    *
           *              working on a common directory               *
           ************************************************************
------------------------------------------------------------------------------
                           ORCA GTO INTEGRAL CALCULATION
------------------------------------------------------------------------------
------------------------------------------------------------------------------
                   ___                                                        
                  /   \      - P O W E R E D   B Y -                         
                 /     \                                                     
                 |  |  |   _    _      __       _____    __    __             
                 |  |  |  | |  | |    /  \     |  _  \  |  |  /  |          
                  \  \/   | |  | |   /    \    | | | |  |  | /  /          
                 / \  \   | |__| |  /  /\  \   | |_| |  |  |/  /          
                |  |  |   |  __  | /  /__\  \  |    /   |      \           
                |  |  |   | |  | | |   __   |  |    \   |  |\   \          
                \     /   | |  | | |  |  |  |  | |\  \  |  | \   \       
                 \___/    |_|  |_| |__|  |__|  |_| \__\ |__|  \__/        
                                                                              
                      - O R C A' S   B I G   F R I E N D -                    
                                      &                                       
                       - I N T E G R A L  F E E D E R -                       
                                                                              
 v1 FN, 2020, v2 2021                                                         
------------------------------------------------------------------------------


Reading SHARK input file /scratch/allen/tmpyp4_amber_gaff2/conf1/conf1/Conf187.orca.SHARKINP.tmp ... ok
----------------------
SHARK INTEGRAL PACKAGE
----------------------

Number of atoms                             ...     90
Number of basis functions                   ...   1230
Number of shells                            ...    738
Maximum angular momentum                    ...      2
Integral batch strategy                     ... SHARK/LIBINT Hybrid
RI-J (if used) integral strategy            ... SPLIT-RIJ (Revised 2003 algorithm where possible)
Printlevel                                  ...      1
Contraction scheme used                     ... PARTIAL GENERAL contraction
Coulomb Range Separation                    ... NOT USED
Exchange Range Separation                   ... NOT USED
Finite Nucleus Model                        ... NOT USED
Auxiliary Coulomb fitting basis             ... NOT available
Auxiliary J/K fitting basis                 ... NOT available
Auxiliary Correlation fitting basis         ... NOT available
Auxiliary 'external' fitting basis          ... NOT available
Integral threshold                          ...     2.500000e-11
Primitive cut-off                           ...     2.500000e-12
Primitive pair pre-selection threshold      ...     2.500000e-12

Calculating pre-screening integrals         ... done (  0.1 sec) Dimension = 738
Calculating pre-screening integrals (ORCA)  ... done (  0.3 sec) Dimension = 426
Organizing shell pair data                  ... done (  0.7 sec)
Shell pair information
Total number of shell pairs                 ...    272691
Shell pairs after pre-screening             ...     71732
Total number of primitive shell pairs       ...    422091
Primitive shell pairs kept                  ...     92643
          la=0 lb=0:  29440 shell pairs
          la=1 lb=0:  26038 shell pairs
          la=1 lb=1:   4699 shell pairs
          la=2 lb=0:   7896 shell pairs
          la=2 lb=1:   3130 shell pairs
          la=2 lb=2:    529 shell pairs

Calculating one electron integrals          ... done (  0.2 sec)
Calculating Nuclear repulsion               ... done (  0.0 sec) ENN=   6235.716184276311 Eh

SHARK setup successfully completed in   2.2 seconds

Maximum memory used throughout the entire GTOINT-calculation: 99.1 MB


           ************************************************************
           *        Program running with 16 parallel MPI-processes    *
           *              working on a common directory               *
           ************************************************************
-------------------------------------------------------------------------------
                                 ORCA SCF
-------------------------------------------------------------------------------

------------
SCF SETTINGS
------------
Hamiltonian:
 Ab initio Hamiltonian  Method          .... Hartree-Fock(GTOs)


General Settings:
 Integral files         IntName         .... /scratch/allen/tmpyp4_amber_gaff2/conf1/conf1/Conf187.orca
 Hartree-Fock type      HFTyp           .... RHF
 Total Charge           Charge          ....    0
 Multiplicity           Mult            ....    1
 Number of Electrons    NEL             ....  358
 Basis Dimension        Dim             ....  918
 Nuclear Repulsion      ENuc            ....   6235.7161842763 Eh

Convergence Acceleration:
 DIIS                   CNVDIIS         .... on
   Start iteration      DIISMaxIt       ....    12
   Startup error        DIISStart       ....  0.200000
   # of expansion vecs  DIISMaxEq       ....     5
   Bias factor          DIISBfac        ....   1.050
   Max. coefficient     DIISMaxC        ....  10.000
 Trust-Rad. Augm. Hess. CNVTRAH         .... auto
   Auto Start mean grad. ratio tolernc. ....  1.125000
   Auto Start start iteration           ....    20
   Auto Start num. interpolation iter.  ....    10
   Max. Number of Micro iterations      ....    16
   Max. Number of Macro iterations      .... Maxiter - #DIIS iter
   Number of Davidson start vectors     ....     2
   Converg. threshold I  (grad. norm)   ....   1.000e-05
   Converg. threshold II (energy diff.) ....   1.000e-08
   Grad. Scal. Fac. for Micro threshold ....   0.100
   Minimum threshold for Micro iter.    ....   0.010
   NR start threshold (gradient norm)   ....   0.001
   Initial trust radius                 ....   0.400
   Minimum AH scaling param. (alpha)    ....   1.000
   Maximum AH scaling param. (alpha)    .... 1000.000
   Orbital update algorithm             .... Taylor
   White noise on init. David. guess    .... on
   Maximum white noise                  ....   0.010
   Quad. conv. algorithm                .... NR
 SOSCF                  CNVSOSCF        .... on
   Start iteration      SOSCFMaxIt      ....   150
   Startup grad/error   SOSCFStart      ....  0.003300
 Level Shifting         CNVShift        .... on
   Level shift para.    LevelShift      ....    0.2500
   Turn off err/grad.   ShiftErr        ....    0.0010
 Zerner damping         CNVZerner       .... off
 Static damping         CNVDamp         .... on
   Fraction old density DampFac         ....    0.7000
   Max. Damping (<1)    DampMax         ....    0.9800
   Min. Damping (>=0)   DampMin         ....    0.0000
   Turn off err/grad.   DampErr         ....    0.1000
 Fernandez-Rico         CNVRico         .... off

SCF Procedure:
 Maximum # iterations   MaxIter         ....   125
 SCF integral mode      SCFMode         .... Direct
   Integral package                     .... SHARK and LIBINT hybrid scheme
 Reset frequency        DirectResetFreq ....    20
 Integral Threshold     Thresh          ....  2.500e-11 Eh
 Primitive CutOff       TCut            ....  2.500e-12 Eh

Convergence Tolerance:
 Convergence Check Mode ConvCheckMode   .... Total+1el-Energy
 Convergence forced     ConvForced      .... 1
 Energy Change          TolE            ....  1.000e-08 Eh
 1-El. energy change                    ....  1.000e-05 Eh
 Orbital Gradient       TolG            ....  1.000e-05
 Orbital Rotation angle TolX            ....  1.000e-05
 DIIS Error             TolErr          ....  5.000e-07


Diagonalization of the overlap matrix:
Smallest eigenvalue                        ... 1.658e-04
Time for diagonalization                   ...    0.435 sec
Threshold for overlap eigenvalues          ... 1.000e-08
Number of eigenvalues below threshold      ... 0
Time for construction of square roots      ...    0.268 sec
Total time needed                          ...    0.710 sec

Time for model grid setup =    1.292 sec

------------------------------
INITIAL GUESS: MODEL POTENTIAL
------------------------------
Loading Hartree-Fock densities                     ... done
Calculating cut-offs                               ... done
Initializing the effective Hamiltonian             ... done
Setting up the integral package (SHARK)            ... done
Starting the Coulomb interaction                   ... done (   1.5 sec)
Reading the grid                                   ... done
Mapping shells                                     ... done
Starting the XC term evaluation                    ... done (   0.2 sec)
Transforming the Hamiltonian                       ... done (   0.3 sec)
Diagonalizing the Hamiltonian                      ... done (   0.4 sec)
Back transforming the eigenvectors                 ... done (   0.1 sec)
Now organizing SCF variables                       ... done
                      ------------------
                      INITIAL GUESS DONE (   3.8 sec)
                      ------------------
--------------
SCF ITERATIONS
--------------
ITER       Energy         Delta-E        Max-DP      RMS-DP      [F,P]     Damp
               ***  Starting incremental Fock matrix formation  ***
  0  -2121.5579187156   0.000000000000 0.07652819  0.00130288  0.2310656 0.7000
  1  -2122.1961498216  -0.638231105935 0.05886739  0.00105405  0.1434405 0.7000
                               ***Turning on DIIS***
  2  -2122.5950701872  -0.398920365591 0.13760285  0.00239752  0.0803316 0.0000
  3  -2118.0495701503   4.545500036873 0.08375205  0.00070030  0.0433834 0.0000
  4  -2123.3016001867  -5.252030036365 0.02708205  0.00023414  0.0094032 0.0000
  5  -2123.4220137418  -0.120413555183 0.01192364  0.00013411  0.0048130 0.0000
  6  -2123.4059173305   0.016096411327 0.00672446  0.00008448  0.0022755 0.0000
  7  -2123.4975666472  -0.091649316661 0.00395698  0.00006594  0.0016425 0.0000
  8  -2123.5030687318  -0.005502084638 0.00335352  0.00006292  0.0015410 0.0000
  9  -2123.4773194744   0.025749257435 0.00270214  0.00004513  0.0012424 0.0000
 10  -2123.4845392484  -0.007219774050 0.00546045  0.00009489  0.0009769 0.0000
                      *** Initiating the SOSCF procedure ***
                           *** Shutting down DIIS ***
                      *** Re-Reading the Fockian *** 
                      *** Removing any level shift *** 
ITER      Energy       Delta-E        Grad      Rot      Max-DP    RMS-DP
 11  -2123.37930590   0.1052333514  0.000190  0.000190  0.000251  0.000005
               *** Restarting incremental Fock matrix formation ***
 12  -2123.44488858  -0.0655826834  0.000950  0.006358  0.001521  0.000035
 13  -2123.44500064  -0.0001120608  0.001152  0.031502  0.006954  0.000136
 14  -2123.44518419  -0.0001835461  0.000409  0.002151  0.000640  0.000013
 15  -2123.44519939  -0.0000152012  0.000172  0.001957  0.000474  0.000012
 16  -2123.44520555  -0.0000061585  0.000133  0.002024  0.000513  0.000008
 17  -2123.44520803  -0.0000024806  0.000115  0.001691  0.000278  0.000007
 18  -2123.44520907  -0.0000010397  0.000056  0.000815  0.000200  0.000003
 19  -2123.44520967  -0.0000006027  0.000042  0.001322  0.000215  0.000005
 20  -2123.44521005  -0.0000003808  0.000023  0.000751  0.000108  0.000003
 21  -2123.44521021  -0.0000001613  0.000025  0.000967  0.000140  0.000003
 22  -2123.44521037  -0.0000001615  0.000019  0.000963  0.000149  0.000003
 23  -2123.44521048  -0.0000001087  0.000014  0.000401  0.000068  0.000001
 24  -2123.44521052  -0.0000000412  0.000008  0.000304  0.000051  0.000001
 25  -2123.44521055  -0.0000000250  0.000007  0.000120  0.000037  0.000001
 26  -2123.44521056  -0.0000000126  0.000006  0.000075  0.000028  0.000000
 27  -2123.44521056   0.0000000007  0.000003  0.000057  0.000019  0.000000
                  ***Gradient check signals convergence***
              ***Rediagonalizing the Fockian in SOSCF/NRSCF***

               *****************************************************
               *                     SUCCESS                       *
               *           SCF CONVERGED AFTER  28 CYCLES          *
               *****************************************************


----------------
TOTAL SCF ENERGY
----------------

Total Energy       :        -2123.44521056 Eh          -57781.88175 eV

Components:
Nuclear Repulsion  :         6235.71618428 Eh          169682.46386 eV
Electronic Energy  :        -8359.16139484 Eh         -227464.34562 eV
One Electron Energy:       -15311.83497461 Eh         -416656.21205 eV
Two Electron Energy:         6952.67357977 Eh          189191.86643 eV

Virial components:
Potential Energy   :        -4246.08966057 Eh         -115541.97370 eV
Kinetic Energy     :         2122.64445001 Eh           57760.09195 eV
Virial Ratio       :            2.00037725


---------------
SCF CONVERGENCE
---------------

  Last Energy change         ...    1.8372e-10  Tolerance :   1.0000e-08
  Last MAX-Density change    ...    9.4164e-06  Tolerance :   1.0000e-07
  Last RMS-Density change    ...    1.7715e-07  Tolerance :   5.0000e-09
  Last Orbital Gradient      ...    1.6679e-06  Tolerance :   1.0000e-05
  Last Orbital Rotation      ...    4.2352e-05  Tolerance :   1.0000e-05

             **** THE GBW FILE WAS UPDATED (/scratch/allen/tmpyp4_amber_gaff2/conf1/conf1/Conf187.orca.gbw) ****
             **** DENSITY /scratch/allen/tmpyp4_amber_gaff2/conf1/conf1/Conf187.orca.scfp WAS UPDATED ****
             **** ENERGY FILE WAS UPDATED (/scratch/allen/tmpyp4_amber_gaff2/conf1/conf1/Conf187.orca.en.tmp) ****
             **** THE GBW FILE WAS UPDATED (/scratch/allen/tmpyp4_amber_gaff2/conf1/conf1/Conf187.orca.gbw) ****
             **** DENSITY /scratch/allen/tmpyp4_amber_gaff2/conf1/conf1/Conf187.orca.scfp WAS UPDATED ****
----------------
ORBITAL ENERGIES
----------------

  NO   OCC          E(Eh)            E(eV) 
   0   2.0000     -15.679635      -426.6646 
   1   2.0000     -15.633877      -425.4194 
   2   2.0000     -15.631745      -425.3614 
   3   2.0000     -15.588333      -424.1801 
   4   2.0000     -15.525021      -422.4573 
   5   2.0000     -15.515428      -422.1963 
   6   2.0000     -15.453606      -420.5140 
   7   2.0000     -15.439513      -420.1305 
   8   2.0000     -11.329292      -308.2857 
   9   2.0000     -11.328194      -308.2558 
  10   2.0000     -11.327816      -308.2455 
  11   2.0000     -11.299283      -307.4691 
  12   2.0000     -11.298320      -307.4429 
  13   2.0000     -11.292960      -307.2971 
  14   2.0000     -11.291127      -307.2472 
  15   2.0000     -11.286462      -307.1202 
  16   2.0000     -11.286412      -307.1189 
  17   2.0000     -11.281876      -306.9954 
  18   2.0000     -11.269614      -306.6618 
  19   2.0000     -11.263183      -306.4868 
  20   2.0000     -11.262192      -306.4598 
  21   2.0000     -11.250621      -306.1450 
  22   2.0000     -11.248749      -306.0940 
  23   2.0000     -11.237646      -305.7919 
  24   2.0000     -11.236517      -305.7612 
  25   2.0000     -11.231086      -305.6134 
  26   2.0000     -11.230384      -305.5943 
  27   2.0000     -11.229666      -305.5747 
  28   2.0000     -11.229497      -305.5702 
  29   2.0000     -11.211043      -305.0680 
  30   2.0000     -11.209457      -305.0248 
  31   2.0000     -11.194271      -304.6116 
  32   2.0000     -11.192255      -304.5567 
  33   2.0000     -11.191111      -304.5256 
  34   2.0000     -11.188179      -304.4458 
  35   2.0000     -11.188024      -304.4416 
  36   2.0000     -11.186700      -304.4056 
  37   2.0000     -11.174523      -304.0742 
  38   2.0000     -11.172411      -304.0167 
  39   2.0000     -11.171339      -303.9876 
  40   2.0000     -11.170660      -303.9691 
  41   2.0000     -11.168412      -303.9079 
  42   2.0000     -11.167349      -303.8790 
  43   2.0000     -11.161605      -303.7227 
  44   2.0000     -11.161287      -303.7140 
  45   2.0000     -11.156564      -303.5855 
  46   2.0000     -11.156430      -303.5819 
  47   2.0000     -11.150951      -303.4328 
  48   2.0000     -11.146948      -303.3239 
  49   2.0000     -11.135615      -303.0155 
  50   2.0000     -11.130005      -302.8628 
  51   2.0000     -11.118199      -302.5416 
  52   2.0000      -1.360231       -37.0138 
  53   2.0000      -1.321140       -35.9500 
  54   2.0000      -1.319542       -35.9065 
  55   2.0000      -1.280291       -34.8385 
  56   2.0000      -1.226103       -33.3640 
  57   2.0000      -1.210387       -32.9363 
  58   2.0000      -1.173246       -31.9257 
  59   2.0000      -1.150866       -31.3167 
  60   2.0000      -1.143478       -31.1156 
  61   2.0000      -1.110276       -30.2121 
  62   2.0000      -1.108825       -30.1727 
  63   2.0000      -1.081915       -29.4404 
  64   2.0000      -1.077604       -29.3231 
  65   2.0000      -1.045332       -28.4449 
  66   2.0000      -1.044197       -28.4140 
  67   2.0000      -1.040966       -28.3261 
  68   2.0000      -1.015169       -27.6242 
  69   2.0000      -1.014813       -27.6145 
  70   2.0000      -1.009142       -27.4601 
  71   2.0000      -0.993492       -27.0343 
  72   2.0000      -0.985645       -26.8208 
  73   2.0000      -0.981765       -26.7152 
  74   2.0000      -0.974140       -26.5077 
  75   2.0000      -0.962146       -26.1813 
  76   2.0000      -0.954706       -25.9789 
  77   2.0000      -0.946941       -25.7676 
  78   2.0000      -0.939499       -25.5651 
  79   2.0000      -0.916780       -24.9469 
  80   2.0000      -0.910487       -24.7756 
  81   2.0000      -0.898450       -24.4481 
  82   2.0000      -0.877239       -23.8709 
  83   2.0000      -0.872226       -23.7345 
  84   2.0000      -0.870834       -23.6966 
  85   2.0000      -0.861645       -23.4466 
  86   2.0000      -0.845648       -23.0112 
  87   2.0000      -0.838597       -22.8194 
  88   2.0000      -0.829331       -22.5672 
  89   2.0000      -0.796350       -21.6698 
  90   2.0000      -0.789361       -21.4796 
  91   2.0000      -0.775405       -21.0998 
  92   2.0000      -0.752934       -20.4884 
  93   2.0000      -0.734221       -19.9792 
  94   2.0000      -0.728761       -19.8306 
  95   2.0000      -0.726850       -19.7786 
  96   2.0000      -0.720565       -19.6076 
  97   2.0000      -0.717757       -19.5312 
  98   2.0000      -0.714055       -19.4304 
  99   2.0000      -0.699997       -19.0479 
 100   2.0000      -0.698299       -19.0017 
 101   2.0000      -0.694589       -18.9007 
 102   2.0000      -0.685333       -18.6489 
 103   2.0000      -0.684193       -18.6178 
 104   2.0000      -0.678942       -18.4749 
 105   2.0000      -0.674415       -18.3518 
 106   2.0000      -0.672745       -18.3063 
 107   2.0000      -0.661080       -17.9889 
 108   2.0000      -0.658226       -17.9112 
 109   2.0000      -0.652870       -17.7655 
 110   2.0000      -0.652025       -17.7425 
 111   2.0000      -0.646106       -17.5814 
 112   2.0000      -0.645661       -17.5693 
 113   2.0000      -0.638197       -17.3662 
 114   2.0000      -0.635582       -17.2951 
 115   2.0000      -0.628768       -17.1096 
 116   2.0000      -0.623158       -16.9570 
 117   2.0000      -0.620789       -16.8925 
 118   2.0000      -0.612943       -16.6790 
 119   2.0000      -0.612242       -16.6599 
 120   2.0000      -0.611683       -16.6447 
 121   2.0000      -0.611283       -16.6339 
 122   2.0000      -0.601536       -16.3686 
 123   2.0000      -0.589336       -16.0366 
 124   2.0000      -0.581621       -15.8267 
 125   2.0000      -0.580725       -15.8023 
 126   2.0000      -0.580370       -15.7927 
 127   2.0000      -0.570968       -15.5368 
 128   2.0000      -0.566680       -15.4202 
 129   2.0000      -0.559881       -15.2351 
 130   2.0000      -0.555852       -15.1255 
 131   2.0000      -0.547718       -14.9042 
 132   2.0000      -0.542719       -14.7681 
 133   2.0000      -0.540351       -14.7037 
 134   2.0000      -0.538849       -14.6628 
 135   2.0000      -0.536094       -14.5879 
 136   2.0000      -0.532023       -14.4771 
 137   2.0000      -0.518237       -14.1020 
 138   2.0000      -0.516745       -14.0614 
 139   2.0000      -0.514290       -13.9945 
 140   2.0000      -0.511714       -13.9244 
 141   2.0000      -0.510098       -13.8805 
 142   2.0000      -0.507351       -13.8057 
 143   2.0000      -0.505699       -13.7608 
 144   2.0000      -0.502320       -13.6688 
 145   2.0000      -0.495698       -13.4886 
 146   2.0000      -0.488395       -13.2899 
 147   2.0000      -0.481393       -13.0994 
 148   2.0000      -0.476515       -12.9666 
 149   2.0000      -0.467618       -12.7245 
 150   2.0000      -0.466155       -12.6847 
 151   2.0000      -0.456132       -12.4120 
 152   2.0000      -0.451284       -12.2800 
 153   2.0000      -0.445206       -12.1147 
 154   2.0000      -0.438186       -11.9236 
 155   2.0000      -0.427846       -11.6423 
 156   2.0000      -0.409108       -11.1324 
 157   2.0000      -0.390871       -10.6361 
 158   2.0000      -0.387733       -10.5508 
 159   2.0000      -0.385733       -10.4963 
 160   2.0000      -0.378248       -10.2926 
 161   2.0000      -0.373164       -10.1543 
 162   2.0000      -0.359871        -9.7926 
 163   2.0000      -0.356617        -9.7040 
 164   2.0000      -0.355781        -9.6813 
 165   2.0000      -0.341638        -9.2964 
 166   2.0000      -0.337536        -9.1848 
 167   2.0000      -0.324715        -8.8359 
 168   2.0000      -0.321769        -8.7558 
 169   2.0000      -0.305308        -8.3079 
 170   2.0000      -0.299237        -8.1427 
 171   2.0000      -0.286021        -7.7830 
 172   2.0000      -0.278250        -7.5716 
 173   2.0000      -0.263346        -7.1660 
 174   2.0000      -0.242330        -6.5941 
 175   2.0000      -0.189999        -5.1701 
 176   2.0000      -0.181384        -4.9357 
 177   2.0000      -0.080140        -2.1807 
 178   2.0000      -0.059623        -1.6224 
 179   0.0000       0.028476         0.7749 
 180   0.0000       0.065446         1.7809 
 181   0.0000       0.090295         2.4570 
 182   0.0000       0.106386         2.8949 
 183   0.0000       0.116818         3.1788 
 184   0.0000       0.137014         3.7283 
 185   0.0000       0.139542         3.7971 
 186   0.0000       0.141053         3.8382 
 187   0.0000       0.164355         4.4723 
 188   0.0000       0.165142         4.4937 
 189   0.0000       0.165713         4.5093 
 190   0.0000       0.174702         4.7539 
 191   0.0000       0.180472         4.9109 
 192   0.0000       0.183900         5.0042 
 193   0.0000       0.189124         5.1463 
 194   0.0000       0.204869         5.5748 
 195   0.0000       0.205622         5.5952 
 196   0.0000       0.208259         5.6670 
 197   0.0000       0.208691         5.6788 
 198   0.0000       0.216653         5.8954 
 199   0.0000       0.228538         6.2188 
 200   0.0000       0.232881         6.3370 
 201   0.0000       0.233920         6.3653 
 202   0.0000       0.238981         6.5030 
 203   0.0000       0.239802         6.5254 
 204   0.0000       0.246279         6.7016 
 205   0.0000       0.255114         6.9420 
 206   0.0000       0.256417         6.9775 
 207   0.0000       0.257403         7.0043 
 208   0.0000       0.259375         7.0580 
 209   0.0000       0.260942         7.1006 
 210   0.0000       0.264446         7.1959 
 211   0.0000       0.267063         7.2672 
 212   0.0000       0.268490         7.3060 
 213   0.0000       0.269654         7.3376 
 214   0.0000       0.273044         7.4299 
 215   0.0000       0.276486         7.5236 
 216   0.0000       0.279055         7.5935 
 217   0.0000       0.282598         7.6899 
 218   0.0000       0.285476         7.7682 
 219   0.0000       0.287790         7.8312 
 220   0.0000       0.288777         7.8580 
 221   0.0000       0.292910         7.9705 
 222   0.0000       0.294608         8.0167 
 223   0.0000       0.296754         8.0751 
 224   0.0000       0.297478         8.0948 
 225   0.0000       0.301977         8.2172 
 226   0.0000       0.305774         8.3205 
 227   0.0000       0.307549         8.3688 
 228   0.0000       0.319781         8.7017 
 229   0.0000       0.324863         8.8400 
 230   0.0000       0.327757         8.9187 
 231   0.0000       0.334694         9.1075 
 232   0.0000       0.343422         9.3450 
 233   0.0000       0.357077         9.7166 
 234   0.0000       0.371156        10.0997 
 235   0.0000       0.374406        10.1881 
 236   0.0000       0.389133        10.5888 
 237   0.0000       0.390232        10.6187 
 238   0.0000       0.398475        10.8431 
 239   0.0000       0.402423        10.9505 
 240   0.0000       0.409541        11.1442 
 241   0.0000       0.411303        11.1921 
 242   0.0000       0.415389        11.3033 
 243   0.0000       0.417641        11.3646 
 244   0.0000       0.429504        11.6874 
 245   0.0000       0.433579        11.7983 
 246   0.0000       0.440629        11.9901 
 247   0.0000       0.441573        12.0158 
 248   0.0000       0.442915        12.0523 
 249   0.0000       0.448641        12.2081 
 250   0.0000       0.452616        12.3163 
 251   0.0000       0.456183        12.4134 
 252   0.0000       0.465254        12.6602 
 253   0.0000       0.469253        12.7690 
 254   0.0000       0.472888        12.8679 
 255   0.0000       0.474263        12.9054 
 256   0.0000       0.475426        12.9370 
 257   0.0000       0.484381        13.1807 
 258   0.0000       0.488949        13.3050 
 259   0.0000       0.494790        13.4639 
 260   0.0000       0.503820        13.7096 
 261   0.0000       0.505290        13.7496 
 262   0.0000       0.505943        13.7674 
 263   0.0000       0.512847        13.9553 
 264   0.0000       0.515610        14.0305 
 265   0.0000       0.520414        14.1612 
 266   0.0000       0.524348        14.2682 
 267   0.0000       0.528456        14.3800 
 268   0.0000       0.535265        14.5653 
 269   0.0000       0.542149        14.7526 
 270   0.0000       0.553877        15.0718 
 271   0.0000       0.554894        15.0994 
 272   0.0000       0.558909        15.2087 
 273   0.0000       0.562395        15.3036 
 274   0.0000       0.567042        15.4300 
 275   0.0000       0.572067        15.5667 
 276   0.0000       0.573894        15.6165 
 277   0.0000       0.576800        15.6955 
 278   0.0000       0.581856        15.8331 
 279   0.0000       0.587331        15.9821 
 280   0.0000       0.590686        16.0734 
 281   0.0000       0.593848        16.1594 
 282   0.0000       0.595104        16.1936 
 283   0.0000       0.597076        16.2473 
 284   0.0000       0.598316        16.2810 
 285   0.0000       0.603285        16.4162 
 286   0.0000       0.605483        16.4760 
 287   0.0000       0.611201        16.6316 
 288   0.0000       0.617879        16.8133 
 289   0.0000       0.623878        16.9766 
 290   0.0000       0.625145        17.0111 
 291   0.0000       0.630007        17.1434 
 292   0.0000       0.635673        17.2975 
 293   0.0000       0.638461        17.3734 
 294   0.0000       0.646966        17.6048 
 295   0.0000       0.650870        17.7111 
 296   0.0000       0.655154        17.8276 
 297   0.0000       0.658099        17.9078 
 298   0.0000       0.662508        18.0278 
 299   0.0000       0.665562        18.1109 
 300   0.0000       0.670868        18.2552 
 301   0.0000       0.675711        18.3870 
 302   0.0000       0.679562        18.4918 
 303   0.0000       0.681151        18.5351 
 304   0.0000       0.684254        18.6195 
 305   0.0000       0.686713        18.6864 
 306   0.0000       0.689759        18.7693 
 307   0.0000       0.694868        18.9083 
 308   0.0000       0.696893        18.9634 
 309   0.0000       0.701386        19.0857 
 310   0.0000       0.703179        19.1345 
 311   0.0000       0.706060        19.2129 
 312   0.0000       0.707138        19.2422 
 313   0.0000       0.711168        19.3519 
 314   0.0000       0.711893        19.3716 
 315   0.0000       0.716532        19.4978 
 316   0.0000       0.717668        19.5287 
 317   0.0000       0.719459        19.5775 
 318   0.0000       0.721613        19.6361 
 319   0.0000       0.727589        19.7987 
 320   0.0000       0.728056        19.8114 
 321   0.0000       0.728374        19.8201 
 322   0.0000       0.731665        19.9096 
 323   0.0000       0.733119        19.9492 
 324   0.0000       0.736511        20.0415 
 325   0.0000       0.742435        20.2027 
 326   0.0000       0.745479        20.2855 
 327   0.0000       0.746751        20.3201 
 328   0.0000       0.752071        20.4649 
 329   0.0000       0.754454        20.5297 
 330   0.0000       0.756020        20.5724 
 331   0.0000       0.762393        20.7458 
 332   0.0000       0.766358        20.8537 
 333   0.0000       0.768096        20.9010 
 334   0.0000       0.772073        21.0092 
 335   0.0000       0.772838        21.0300 
 336   0.0000       0.780228        21.2311 
 337   0.0000       0.781848        21.2752 
 338   0.0000       0.785273        21.3684 
 339   0.0000       0.790124        21.5004 
 340   0.0000       0.792731        21.5713 
 341   0.0000       0.794091        21.6083 
 342   0.0000       0.799732        21.7618 
 343   0.0000       0.803476        21.8637 
 344   0.0000       0.806608        21.9489 
 345   0.0000       0.809281        22.0217 
 346   0.0000       0.810740        22.0613 
 347   0.0000       0.814170        22.1547 
 348   0.0000       0.816206        22.2101 
 349   0.0000       0.817953        22.2576 
 350   0.0000       0.819583        22.3020 
 351   0.0000       0.823708        22.4142 
 352   0.0000       0.824178        22.4270 
 353   0.0000       0.827887        22.5279 
 354   0.0000       0.830456        22.5979 
 355   0.0000       0.833780        22.6883 
 356   0.0000       0.835142        22.7254 
 357   0.0000       0.836532        22.7632 
 358   0.0000       0.838900        22.8276 
 359   0.0000       0.839909        22.8551 
 360   0.0000       0.842433        22.9238 
 361   0.0000       0.842969        22.9384 
 362   0.0000       0.846923        23.0459 
 363   0.0000       0.849535        23.1170 
 364   0.0000       0.854570        23.2540 
 365   0.0000       0.855899        23.2902 
 366   0.0000       0.860007        23.4020 
 367   0.0000       0.864027        23.5114 
 368   0.0000       0.867525        23.6065 
 369   0.0000       0.868544        23.6343 
 370   0.0000       0.872405        23.7393 
 371   0.0000       0.876369        23.8472 
 372   0.0000       0.876930        23.8625 
 373   0.0000       0.878019        23.8921 
 374   0.0000       0.880547        23.9609 
 375   0.0000       0.884457        24.0673 
 376   0.0000       0.889861        24.2143 
 377   0.0000       0.891796        24.2670 
 378   0.0000       0.892627        24.2896 
 379   0.0000       0.893960        24.3259 
 380   0.0000       0.897405        24.4196 
 381   0.0000       0.899205        24.4686 
 382   0.0000       0.901245        24.5241 
 383   0.0000       0.903038        24.5729 
 384   0.0000       0.906547        24.6684 
 385   0.0000       0.908090        24.7104 
 386   0.0000       0.909239        24.7416 
 387   0.0000       0.913372        24.8541 
 388   0.0000       0.916419        24.9370 
 389   0.0000       0.919492        25.0206 
 390   0.0000       0.923619        25.1330 
 391   0.0000       0.926670        25.2160 
 392   0.0000       0.929016        25.2798 
 393   0.0000       0.929580        25.2952 
 394   0.0000       0.930332        25.3156 
 395   0.0000       0.936414        25.4811 
 396   0.0000       0.937496        25.5106 
 397   0.0000       0.940007        25.5789 
 398   0.0000       0.945823        25.7371 
 399   0.0000       0.948834        25.8191 
 400   0.0000       0.950502        25.8645 
 401   0.0000       0.953757        25.9531 
 402   0.0000       0.955385        25.9974 
 403   0.0000       0.958171        26.0732 
 404   0.0000       0.961413        26.1614 
 405   0.0000       0.962950        26.2032 
 406   0.0000       0.971676        26.4406 
 407   0.0000       0.979622        26.6569 
 408   0.0000       0.982689        26.7403 
 409   0.0000       0.986952        26.8563 
 410   0.0000       0.989397        26.9229 
 411   0.0000       0.993778        27.0421 
 412   0.0000       0.999764        27.2050 
 413   0.0000       1.007576        27.4176 
 414   0.0000       1.013302        27.5733 
 415   0.0000       1.014189        27.5975 
 416   0.0000       1.019463        27.7410 
 417   0.0000       1.023800        27.8590 
 418   0.0000       1.032271        28.0895 
 419   0.0000       1.034531        28.1510 
 420   0.0000       1.038920        28.2705 
 421   0.0000       1.042173        28.3590 
 422   0.0000       1.046703        28.4822 
 423   0.0000       1.055010        28.7083 
 424   0.0000       1.063975        28.9522 
 425   0.0000       1.071095        29.1460 
 426   0.0000       1.075442        29.2643 
 427   0.0000       1.077894        29.3310 
 428   0.0000       1.080272        29.3957 
 429   0.0000       1.088154        29.6102 
 430   0.0000       1.089534        29.6477 
 431   0.0000       1.095071        29.7984 
 432   0.0000       1.100006        29.9327 
 433   0.0000       1.104732        30.0613 
 434   0.0000       1.108344        30.1596 
 435   0.0000       1.113223        30.2923 
 436   0.0000       1.115727        30.3605 
 437   0.0000       1.120251        30.4836 
 438   0.0000       1.121945        30.5297 
 439   0.0000       1.124599        30.6019 
 440   0.0000       1.128303        30.7027 
 441   0.0000       1.129546        30.7365 
 442   0.0000       1.134745        30.8780 
 443   0.0000       1.137127        30.9428 
 444   0.0000       1.138934        30.9920 
 445   0.0000       1.144536        31.1444 
 446   0.0000       1.146758        31.2049 
 447   0.0000       1.151415        31.3316 
 448   0.0000       1.154964        31.4282 
 449   0.0000       1.158503        31.5245 
 450   0.0000       1.159958        31.5641 
 451   0.0000       1.163906        31.6715 
 452   0.0000       1.167520        31.7698 
 453   0.0000       1.170479        31.8504 
 454   0.0000       1.173198        31.9243 
 455   0.0000       1.179721        32.1019 
 456   0.0000       1.183996        32.2182 
 457   0.0000       1.194555        32.5055 
 458   0.0000       1.196313        32.5533 
 459   0.0000       1.199134        32.6301 
 460   0.0000       1.202885        32.7322 
 461   0.0000       1.207769        32.8651 
 462   0.0000       1.209850        32.9217 
 463   0.0000       1.211468        32.9657 
 464   0.0000       1.213420        33.0188 
 465   0.0000       1.216862        33.1125 
 466   0.0000       1.222427        33.2639 
 467   0.0000       1.228965        33.4418 
 468   0.0000       1.231236        33.5036 
 469   0.0000       1.234117        33.5820 
 470   0.0000       1.237233        33.6668 
 471   0.0000       1.239979        33.7415 
 472   0.0000       1.243751        33.8442 
 473   0.0000       1.245688        33.8969 
 474   0.0000       1.247590        33.9486 
 475   0.0000       1.250975        34.0408 
 476   0.0000       1.251975        34.0680 
 477   0.0000       1.252860        34.0921 
 478   0.0000       1.260891        34.3106 
 479   0.0000       1.264115        34.3983 
 480   0.0000       1.266038        34.4507 
 481   0.0000       1.269279        34.5388 
 482   0.0000       1.270784        34.5798 
 483   0.0000       1.276376        34.7320 
 484   0.0000       1.281572        34.8734 
 485   0.0000       1.283785        34.9336 
 486   0.0000       1.287002        35.0211 
 487   0.0000       1.290481        35.1158 
 488   0.0000       1.293175        35.1891 
 489   0.0000       1.295477        35.2517 
 490   0.0000       1.299982        35.3743 
 491   0.0000       1.305671        35.5291 
 492   0.0000       1.309766        35.6405 
 493   0.0000       1.311809        35.6961 
 494   0.0000       1.318518        35.8787 
 495   0.0000       1.320930        35.9443 
 496   0.0000       1.322743        35.9937 
 497   0.0000       1.325609        36.0717 
 498   0.0000       1.329404        36.1749 
 499   0.0000       1.337212        36.3874 
 500   0.0000       1.337564        36.3970 
 501   0.0000       1.341234        36.4968 
 502   0.0000       1.343633        36.5621 
 503   0.0000       1.345151        36.6034 
 504   0.0000       1.348164        36.6854 
 505   0.0000       1.350252        36.7422 
 506   0.0000       1.352384        36.8002 
 507   0.0000       1.359347        36.9897 
 508   0.0000       1.360114        37.0106 
 509   0.0000       1.363907        37.1138 
[...]
      px      :     0.043613
      py      :     0.014047
 77 H s       :     0.884479  s :     0.884479
      pz      :     0.047980  p :     0.079295
      px      :     0.015024
      py      :     0.016291
 78 H s       :     0.884827  s :     0.884827
      pz      :     0.025885  p :     0.079265
      px      :     0.020454
      py      :     0.032926
 79 H s       :     0.910802  s :     0.910802
      pz      :     0.021811  p :     0.086308
      px      :     0.021655
      py      :     0.042842
 80 H s       :     0.864355  s :     0.864355
      pz      :     0.039394  p :     0.084837
      px      :     0.030291
      py      :     0.015153
 81 H s       :     0.886795  s :     0.886795
      pz      :     0.037827  p :     0.084129
      px      :     0.016181
      py      :     0.030121
 82 H s       :     0.916105  s :     0.916105
      pz      :     0.021966  p :     0.086729
      px      :     0.031651
      py      :     0.033111
 83 H s       :     0.873368  s :     0.873368
      pz      :     0.039278  p :     0.084104
      px      :     0.015275
      py      :     0.029551
 84 H s       :     0.886655  s :     0.886655
      pz      :     0.035770  p :     0.083427
      px      :     0.031696
      py      :     0.015960
 85 H s       :     0.892815  s :     0.892815
      pz      :     0.022491  p :     0.079786
      px      :     0.014068
      py      :     0.043227
 86 H s       :     0.890975  s :     0.890975
      pz      :     0.024731  p :     0.078829
      px      :     0.032981
      py      :     0.021117
 87 H s       :     0.889831  s :     0.889831
      pz      :     0.048018  p :     0.078742
      px      :     0.015586
      py      :     0.015138
 88 H s       :     0.910580  s :     0.910580
      pz      :     0.021619  p :     0.087014
      px      :     0.042938
      py      :     0.022457
 89 H s       :     0.871118  s :     0.871118
      pz      :     0.037958  p :     0.083856
      px      :     0.030506
      py      :     0.015392


                      *****************************
                      * MAYER POPULATION ANALYSIS *
                      *****************************

  NA   - Mulliken gross atomic population
  ZA   - Total nuclear charge
  QA   - Mulliken gross atomic charge
  VA   - Mayer's total valence
  BVA  - Mayer's bonded valence
  FA   - Mayer's free valence

  ATOM       NA         ZA         QA         VA         BVA        FA
  0 C      5.7785     6.0000     0.2215     3.8517     3.8517    -0.0000
  1 N      7.4551     7.0000    -0.4551     3.3508     3.3508    -0.0000
  2 C      6.0694     6.0000    -0.0694     3.9224     3.9224     0.0000
  3 N      7.3416     7.0000    -0.3416     3.4540     3.4540     0.0000
  4 C      6.1188     6.0000    -0.1188     4.1788     4.1788     0.0000
  5 N      7.5686     7.0000    -0.5686     3.0963     3.0963    -0.0000
  6 C      6.1024     6.0000    -0.1024     3.9347     3.9347     0.0000
  7 N      7.3410     7.0000    -0.3410     3.4323     3.4323    -0.0000
  8 C      5.7763     6.0000     0.2237     3.8538     3.8538     0.0000
  9 N      7.5625     7.0000    -0.5625     3.0769     3.0769     0.0000
 10 C      5.8804     6.0000     0.1196     3.9090     3.9090     0.0000
 11 N      7.4384     7.0000    -0.4384     3.3780     3.3780     0.0000
 12 C      6.0488     6.0000    -0.0488     3.8137     3.8137     0.0000
 13 N      7.4294     7.0000    -0.4294     3.4284     3.4284    -0.0000
 14 C      5.7862     6.0000     0.2138     3.8128     3.8128    -0.0000
 15 N      7.4409     7.0000    -0.4409     3.3725     3.3725     0.0000
 16 C      5.7659     6.0000     0.2341     3.7770     3.7770     0.0000
 17 C      6.0956     6.0000    -0.0956     3.9319     3.9319    -0.0000
 18 C      6.1802     6.0000    -0.1802     3.7484     3.7484     0.0000
 19 C      5.7859     6.0000     0.2141     3.8861     3.8861    -0.0000
 20 C      5.7863     6.0000     0.2137     3.8292     3.8292    -0.0000
 21 C      6.0616     6.0000    -0.0616     3.7849     3.7849    -0.0000
 22 C      6.0908     6.0000    -0.0908     3.9824     3.9824    -0.0000
 23 C      6.0395     6.0000    -0.0395     3.9927     3.9927     0.0000
 24 C      5.8067     6.0000     0.1933     3.8210     3.8210    -0.0000
 25 C      5.8854     6.0000     0.1146     3.8916     3.8916     0.0000
 26 C      6.0812     6.0000    -0.0812     3.9084     3.9084     0.0000
 27 C      5.7810     6.0000     0.2190     3.8631     3.8631    -0.0000
 28 C      6.0618     6.0000    -0.0618     3.9887     3.9887    -0.0000
 29 C      6.1824     6.0000    -0.1824     3.7479     3.7479     0.0000
 30 C      5.7549     6.0000     0.2451     3.8006     3.8006     0.0000
 31 C      5.7696     6.0000     0.2304     3.8170     3.8170    -0.0000
 32 C      6.0612     6.0000    -0.0612     3.9234     3.9234    -0.0000
 33 C      6.0600     6.0000    -0.0600     3.9712     3.9712    -0.0000
 34 C      6.0511     6.0000    -0.0511     3.9834     3.9834     0.0000
 35 C      5.7715     6.0000     0.2285     3.8164     3.8164    -0.0000
 36 C      5.8918     6.0000     0.1082     3.8747     3.8747     0.0000
 37 C      6.0647     6.0000    -0.0647     3.9176     3.9176    -0.0000
 38 C      5.7686     6.0000     0.2314     3.8015     3.8015    -0.0000
 39 C      6.0577     6.0000    -0.0577     3.9830     3.9830    -0.0000
 40 C      6.1819     6.0000    -0.1819     3.7260     3.7260    -0.0000
 41 C      5.7740     6.0000     0.2260     3.8878     3.8878     0.0000
 42 C      5.8028     6.0000     0.1972     3.8256     3.8256     0.0000
 43 C      6.0727     6.0000    -0.0727     3.8999     3.8999    -0.0000
 44 C      6.0895     6.0000    -0.0895     3.9850     3.9850    -0.0000
 45 C      6.0616     6.0000    -0.0616     3.9920     3.9920     0.0000
 46 C      5.7883     6.0000     0.2117     3.8284     3.8284    -0.0000
 47 C      5.8846     6.0000     0.1154     3.8929     3.8929    -0.0000
 48 C      6.0666     6.0000    -0.0666     3.9096     3.9096    -0.0000
 49 C      5.7619     6.0000     0.2381     3.8948     3.8948    -0.0000
 50 C      6.0462     6.0000    -0.0462     3.9904     3.9904     0.0000
 51 C      6.1931     6.0000    -0.1931     3.7377     3.7377    -0.0000
 52 H      0.9679     1.0000     0.0321     0.9859     0.9859    -0.0000
 53 H      1.0185     1.0000    -0.0185     0.9992     0.9992     0.0000
 54 H      0.9528     1.0000     0.0472     0.9788     0.9788    -0.0000
 55 H      0.9678     1.0000     0.0322     0.9862     0.9862    -0.0000
 56 H      0.9505     1.0000     0.0495     0.9695     0.9695     0.0000
 57 H      0.9532     1.0000     0.0468     0.9823     0.9823    -0.0000
 58 H      0.9530     1.0000     0.0470     0.9847     0.9847     0.0000
 59 H      1.0206     1.0000    -0.0206     0.9824     0.9824    -0.0000
 60 H      0.9294     1.0000     0.0706     0.9410     0.9410    -0.0000
 61 H      0.8289     1.0000     0.1711     1.0423     1.0423     0.0000
 62 H      0.8245     1.0000     0.1755     1.0437     1.0437     0.0000
 63 H      0.9448     1.0000     0.0552     0.9853     0.9853    -0.0000
 64 H      1.0448     1.0000    -0.0448     0.9643     0.9643    -0.0000
 65 H      0.9530     1.0000     0.0470     1.0100     1.0100     0.0000
 66 H      0.9445     1.0000     0.0555     0.9855     0.9855    -0.0000
 67 H      0.9377     1.0000     0.0623     0.9719     0.9719     0.0000
 68 H      0.9428     1.0000     0.0572     0.9868     0.9868    -0.0000
 69 H      0.9437     1.0000     0.0563     0.9828     0.9828    -0.0000
 70 H      1.0312     1.0000    -0.0312     0.9944     0.9944    -0.0000
 71 H      0.9553     1.0000     0.0447     1.0059     1.0059    -0.0000
 72 H      0.9286     1.0000     0.0714     0.9835     0.9835     0.0000
 73 H      1.0079     1.0000    -0.0079     1.0010     1.0010    -0.0000
 74 H      0.9395     1.0000     0.0605     1.0101     1.0101     0.0000
 75 H      0.9291     1.0000     0.0709     0.9838     0.9838    -0.0000
 76 H      0.9249     1.0000     0.0751     0.9721     0.9721    -0.0000
 77 H      0.9319     1.0000     0.0681     0.9855     0.9855     0.0000
 78 H      0.9326     1.0000     0.0674     0.9854     0.9854     0.0000
 79 H      1.0167     1.0000    -0.0167     0.9975     0.9975    -0.0000
 80 H      0.9386     1.0000     0.0614     1.0072     1.0072    -0.0000
 81 H      0.9456     1.0000     0.0544     0.9856     0.9856     0.0000
 82 H      1.0251     1.0000    -0.0251     0.9934     0.9934     0.0000
 83 H      0.9580     1.0000     0.0420     1.0082     1.0082    -0.0000
 84 H      0.9458     1.0000     0.0542     0.9852     0.9852    -0.0000
 85 H      0.9391     1.0000     0.0609     0.9716     0.9716     0.0000
 86 H      0.9444     1.0000     0.0556     0.9839     0.9839     0.0000
 87 H      0.9427     1.0000     0.0573     0.9856     0.9856     0.0000
 88 H      1.0145     1.0000    -0.0145     0.9968     0.9968    -0.0000
 89 H      0.9531     1.0000     0.0469     1.0077     1.0077    -0.0000

  Mayer bond orders larger than 0.100000
B(  0-C ,  1-N ) :   1.0946 B(  0-C , 17-C ) :   1.7356 B(  0-C , 52-H ) :   0.9588 
B(  1-N ,  8-C ) :   1.1000 B(  1-N , 10-C ) :   0.9771 B(  2-C , 12-C ) :   1.4837 
B(  2-C , 16-C ) :   1.3784 B(  2-C , 53-H ) :   0.9706 B(  3-N , 14-C ) :   1.2246 
B(  3-N , 16-C ) :   1.1774 B(  3-N , 61-H ) :   0.8978 B(  4-C ,  6-C ) :   1.2289 
B(  4-C , 17-C ) :   1.2266 B(  4-C , 18-C ) :   1.4864 B(  5-N , 19-C ) :   1.4660 
B(  5-N , 27-C ) :   1.3674 B(  6-C ,  8-C ) :   1.7251 B(  6-C , 54-H ) :   0.8655 
B(  7-N , 30-C ) :   1.1947 B(  7-N , 38-C ) :   1.1901 B(  7-N , 62-H ) :   0.8967 
B(  8-C , 55-H ) :   0.9601 B(  9-N , 41-C ) :   1.3948 B(  9-N , 49-C ) :   1.4246 
B( 10-C , 56-H ) :   0.9777 B( 10-C , 57-H ) :   0.9824 B( 10-C , 58-H ) :   0.9837 
B( 11-N , 20-C ) :   1.1313 B( 11-N , 24-C ) :   1.1065 B( 11-N , 25-C ) :   0.9603 
B( 12-C , 14-C ) :   1.3615 B( 12-C , 59-H ) :   0.9053 B( 13-N , 31-C ) :   1.1618 
B( 13-N , 35-C ) :   1.1605 B( 13-N , 36-C ) :   0.9413 B( 14-C , 18-C ) :   1.1164 
B( 15-N , 42-C ) :   1.1076 B( 15-N , 46-C ) :   1.1246 B( 15-N , 47-C ) :   0.9613 
B( 16-C , 51-C ) :   1.1676 B( 17-C , 60-H ) :   0.8454 B( 18-C , 19-C ) :   1.1155 
B( 19-C , 21-C ) :   1.2540 B( 20-C , 28-C ) :   1.6288 B( 20-C , 63-H ) :   0.9702 
B( 21-C , 26-C ) :   1.5801 B( 21-C , 64-H ) :   0.8872 B( 22-C , 23-C ) :   1.2896 
B( 22-C , 28-C ) :   1.2635 B( 22-C , 29-C ) :   1.2255 B( 23-C , 24-C ) :   1.6201 
B( 23-C , 65-H ) :   0.9703 B( 24-C , 66-H ) :   0.9696 B( 25-C , 67-H ) :   0.9760 
B( 25-C , 68-H ) :   0.9828 B( 25-C , 69-H ) :   0.9823 B( 26-C , 27-C ) :   1.2671 
B( 26-C , 70-H ) :   0.9655 B( 27-C , 29-C ) :   1.2072 B( 28-C , 71-H ) :   0.9720 
B( 29-C , 30-C ) :   1.2472 B( 30-C , 32-C ) :   1.2787 B( 31-C , 39-C ) :   1.5876 
B( 31-C , 72-H ) :   0.9681 B( 32-C , 37-C ) :   1.5802 B( 32-C , 73-H ) :   0.9786 
B( 33-C , 34-C ) :   1.3071 B( 33-C , 39-C ) :   1.3041 B( 33-C , 40-C ) :   1.1761 
B( 34-C , 35-C ) :   1.5852 B( 34-C , 74-H ) :   0.9696 B( 35-C , 75-H ) :   0.9681 
B( 36-C , 76-H ) :   0.9768 B( 36-C , 77-H ) :   0.9816 B( 36-C , 78-H ) :   0.9823 
B( 37-C , 38-C ) :   1.2845 B( 37-C , 79-H ) :   0.9764 B( 38-C , 40-C ) :   1.2342 
B( 39-C , 80-H ) :   0.9705 B( 40-C , 41-C ) :   1.2501 B( 41-C , 43-C ) :   1.1846 
B( 42-C , 50-C ) :   1.6329 B( 42-C , 81-H ) :   0.9697 B( 43-C , 48-C ) :   1.6683 
B( 43-C , 82-H ) :   0.9721 B( 44-C , 45-C ) :   1.2635 B( 44-C , 50-C ) :   1.2727 
B( 44-C , 51-C ) :   1.2609 B( 45-C , 46-C ) :   1.6345 B( 45-C , 83-H ) :   0.9718 
B( 46-C , 84-H ) :   0.9700 B( 47-C , 85-H ) :   0.9762 B( 47-C , 86-H ) :   0.9829 
B( 47-C , 87-H ) :   0.9824 B( 48-C , 49-C ) :   1.1880 B( 48-C , 88-H ) :   0.9748 
B( 49-C , 51-C ) :   1.2454 B( 50-C , 89-H ) :   0.9708 B( 54-H , 59-H ) :   0.1113 
B( 60-H , 64-H ) :   0.1314 

-------
TIMINGS
-------

Total SCF time: 0 days 0 hours 28 min 34 sec 

Total time                  ....    1714.579 sec
Sum of individual times     ....    1709.832 sec  ( 99.7%)

Fock matrix formation       ....    1682.051 sec  ( 98.1%)
Diagonalization             ....       8.737 sec  (  0.5%)
Density matrix formation    ....       0.523 sec  (  0.0%)
Population analysis         ....       0.647 sec  (  0.0%)
Initial guess               ....       2.521 sec  (  0.1%)
Orbital Transformation      ....       0.000 sec  (  0.0%)
Orbital Orthonormalization  ....       0.000 sec  (  0.0%)
DIIS solution               ....       3.995 sec  (  0.2%)
SOSCF solution              ....      10.068 sec  (  0.6%)

Maximum memory used throughout the entire SCF-calculation: 302.7 MB


           ************************************************************
           *        Program running with 16 parallel MPI-processes    *
           *              working on a common directory               *
           ************************************************************

------------------------------------------------------------------------------
                                ORCA  MP2 
------------------------------------------------------------------------------

Freezing NCore=104 chemical core electrons

----------
MP2 ENERGY (disk based algorithm)
----------

Dimension of the basis                    ...  918
Memory devoted to MP2                     ... 2000 MB   
Data format for buffers                   ... DOUBLE
Compression type for matrix containers    ... UNCOMPRESSED

-------------------------------
PARTIAL EXCHANGE TRANSFORMATION
-------------------------------

Transformation type                        ... one-operator
Generation of integrals (i,mue|j,nue)      ... ON
Generation of integrals (mue,kappa|nue,tau)... OFF
Generation of integrals (i,mue|a,nue)      ... OFF
Dimension of the basis                     ...  918
Number of internal MOs                     ...  127 (  52- 178)
Pair cutoff                                ... 2.500e-12 Eh
Number of AO pairs in the trafo            ... 421821
Total Number of distinct AO pairs          ... 421821
Memory devoted for trafo                   ... 2000.0 MB 
Max. Number of MO pairs treated together   ...  311      
Number Format for Storage                  ... Double (8 Byte)
Integral package used                      ... LIBINT

Starting integral evaluation:
    ... done with AO integral generation
Closing buffer AOK     (38.20 GB; CompressionRatio= 1.33)
Collecting buffer AOK 
Number of MO pairs included in the trafo   ... 8128
------------------------
SORTING OF (i,mue|j,nue)
------------------------

IBATCH = 1 of  2
IBATCH = 2 of  2
Closing buffer KAO     (51.03 GB; CompressionRatio= 1.00)
Collecting buffer KAO 
N(AO-Batches) Done                         ...  86217432 
N(AO-Batches) Skipped                      ...  82292597 
N(IJ)-pairs Skipped                        ...         0 
TOTAL TIME for half transformation         ...  3046.191 sec
AO-integral generation                     ...   212.893 sec
Half transformation                        ...   423.266 sec
K-integral sorting                         ...  2188.231 sec
Process 10:   Internal MO 132
Process 13:   Internal MO 156

Finished integral transformation - now doing MP2 part

OPERATOR COMBINATION   0   0: ij=( 52..178, 52..178)
Process  1:   Internal MO  60
Process  7:   Internal MO 108
Process  4:   Internal MO  84
Process  0:   Internal MO  54
Process  2:   Internal MO  69
Process  0:   Internal MO  57
Process  3:   Internal MO  78
Process  5:   Internal MO  93
Process  2:   Internal MO  72
Process  8:   Internal MO 117
Process  6:   Internal MO 102
Process  4:   Internal MO  87
Process 11:   Internal MO 141
Process  2:   Internal MO  75
Process 14:   Internal MO 165
Process  9:   Internal MO 126
Process  3:   Internal MO  81
Process  7:   Internal MO 111
Process 12:   Internal MO 150
Process  5:   Internal MO  96
Process  4:   Internal MO  90
Process 10:   Internal MO 135
Process  1:   Internal MO  63
Process  6:   Internal MO 105
Process 15:   Internal MO 174
Process  1:   Internal MO  66
Process  8:   Internal MO 120
Process  5:   Internal MO  99
Process  9:   Internal MO 129
Process  7:   Internal MO 114
Process 13:   Internal MO 159
Process 11:   Internal MO 144
Process 12:   Internal MO 153
Process 10:   Internal MO 138
Process 14:   Internal MO 168
Process  8:   Internal MO 123
Process 15:   Internal MO 177
Process 11:   Internal MO 147
Process 13:   Internal MO 162
Process 14:   Internal MO 171
-----------------------------------------------
 MP2 CORRELATION ENERGY   :     -7.293562958 Eh
-----------------------------------------------


-------
TIMINGS
-------
Total time                : 3380.178 sec
Integral trafo            : 3048.340 sec ( 90.2%)
K(i,j)                    :    5.988 sec (  0.2%)
T(i,j)                    :    0.256 sec (  0.0%)

---------------------------------------
MP2 TOTAL ENERGY:    -2130.738773518 Eh
---------------------------------------

Maximum memory used throughout the entire MP2-calculation: 2275.3 MB

-------------------------   --------------------
FINAL SINGLE POINT ENERGY     -2130.738773517902
-------------------------   --------------------


                            ***************************************
                            *     ORCA property calculations      *
                            ***************************************


  WARNING: The energy has been calculated at the MP2 level but the densities
           used in the property calculations are still SCF densities
           MP2 response densities have not been calculated 
           use %mp2 Density relaxed end
           or  %mp2 Density unrelaxed end

                                    ---------------------
                                    Active property flags
                                    ---------------------
   (+) Dipole Moment


------------------------------------------------------------------------------
                       ORCA ELECTRIC PROPERTIES CALCULATION
------------------------------------------------------------------------------

Dipole Moment Calculation                       ... on
Quadrupole Moment Calculation                   ... off
Polarizability Calculation                      ... off
GBWName                                         ... /scratch/allen/tmpyp4_amber_gaff2/conf1/conf1/Conf187.orca.gbw
Electron density                                ... /scratch/allen/tmpyp4_amber_gaff2/conf1/conf1/Conf187.orca.scfp
The origin for moment calculation is the CENTER OF MASS  = ( 0.003182, -0.001901  0.000052)

-------------
DIPOLE MOMENT
-------------
                                X             Y             Z
Electronic contribution:      2.72479      -4.34585      -0.19164
Nuclear contribution   :      0.06856       0.23278       0.19317
                        -----------------------------------------
Total Dipole Moment    :      2.79335      -4.11307       0.00153
                        -----------------------------------------
Magnitude (a.u.)       :      4.97194
Magnitude (Debye)      :     12.63766



--------------------
Rotational spectrum 
--------------------
 
Rotational constants in cm-1:     0.001502     0.001480     0.000760 
Rotational constants in MHz :    45.013993    44.357937    22.780785 

 Dipole components along the rotational axes: 
x,y,z [a.u.] :     3.453778     3.576528     0.002888 
x,y,z [Debye]:     8.778807     9.090812     0.007342 

 

Timings for individual modules:

Sum of individual times         ...     5117.358 sec (=  85.289 min)
GTO integral calculation        ...        3.451 sec (=   0.058 min)   0.1 %
SCF iterations                  ...     1715.806 sec (=  28.597 min)  33.5 %
MP2 module                      ...     3398.102 sec (=  56.635 min)  66.4 %
                             ****ORCA TERMINATED NORMALLY****
TOTAL RUN TIME: 0 days 1 hours 25 minutes 20 seconds 781 msec
# of primitive gaussian functions

