
                                 *****************
                                 * O   R   C   A *
                                 *****************

                                            #,                                       
                                            ###                                      
                                            ####                                     
                                            #####                                    
                                            ######                                   
                                           ########,                                 
                                     ,,################,,,,,                         
                               ,,#################################,,                 
                          ,,##########################################,,             
                       ,#########################################, ''#####,          
                    ,#############################################,,   '####,        
                  ,##################################################,,,,####,       
                ,###########''''           ''''###############################       
              ,#####''   ,,,,##########,,,,          '''####'''          '####       
            ,##' ,,,,###########################,,,                        '##       
           ' ,,###''''                  '''############,,,                           
         ,,##''                                '''############,,,,        ,,,,,,###''
      ,#''                                            '''#######################'''  
     '                                                          ''''####''''         
             ,#######,   #######,   ,#######,      ##                                
            ,#'     '#,  ##    ##  ,#'     '#,    #''#        ######   ,####,        
            ##       ##  ##   ,#'  ##            #'  '#       #        #'  '#        
            ##       ##  #######   ##           ,######,      #####,   #    #        
            '#,     ,#'  ##    ##  '#,     ,#' ,#      #,         ##   #,  ,#        
             '#######'   ##     ##  '#######'  #'      '#     #####' # '####'        



                  #######################################################
                  #                        -***-                        #
                  #          Department of theory and spectroscopy      #
                  #    Directorship and core code : Frank Neese         #
                  #        Max Planck Institute fuer Kohlenforschung    #
                  #                Kaiser Wilhelm Platz 1               #
                  #                 D-45470 Muelheim/Ruhr               #
                  #                      Germany                        #
                  #                                                     #
                  #                  All rights reserved                #
                  #                        -***-                        #
                  #######################################################


                         Program Version 5.0.4 -  RELEASE  -


 With contributions from (in alphabetic order):
   Daniel Aravena         : Magnetic Suceptibility
   Michael Atanasov       : Ab Initio Ligand Field Theory (pilot matlab implementation)
   Alexander A. Auer      : GIAO ZORA, VPT2 properties, NMR spectrum
   Ute Becker             : Parallelization
   Giovanni Bistoni       : ED, misc. LED, open-shell LED, HFLD
   Martin Brehm           : Molecular dynamics
   Dmytro Bykov           : SCF Hessian
   Vijay G. Chilkuri      : MRCI spin determinant printing, contributions to CSF-ICE
   Dipayan Datta          : RHF DLPNO-CCSD density
   Achintya Kumar Dutta   : EOM-CC, STEOM-CC
   Dmitry Ganyushin       : Spin-Orbit,Spin-Spin,Magnetic field MRCI
   Miquel Garcia          : C-PCM and meta-GGA Hessian, CC/C-PCM, Gaussian charge scheme
   Yang Guo               : DLPNO-NEVPT2, F12-NEVPT2, CIM, IAO-localization
   Andreas Hansen         : Spin unrestricted coupled pair/coupled cluster methods
   Benjamin Helmich-Paris : MC-RPA, TRAH-SCF, COSX integrals
   Lee Huntington         : MR-EOM, pCC
   Robert Izsak           : Overlap fitted RIJCOSX, COSX-SCS-MP3, EOM
   Marcus Kettner         : VPT2
   Christian Kollmar      : KDIIS, OOCD, Brueckner-CCSD(T), CCSD density, CASPT2, CASPT2-K
   Simone Kossmann        : Meta GGA functionals, TD-DFT gradient, OOMP2, MP2 Hessian
   Martin Krupicka        : Initial AUTO-CI
   Lucas Lang             : DCDCAS
   Marvin Lechner         : AUTO-CI (C++ implementation), FIC-MRCC
   Dagmar Lenk            : GEPOL surface, SMD
   Dimitrios Liakos       : Extrapolation schemes; Compound Job, initial MDCI parallelization
   Dimitrios Manganas     : Further ROCIS development; embedding schemes
   Dimitrios Pantazis     : SARC Basis sets
   Anastasios Papadopoulos: AUTO-CI, single reference methods and gradients
   Taras Petrenko         : DFT Hessian,TD-DFT gradient, ASA, ECA, R-Raman, ABS, FL, XAS/XES, NRVS
   Peter Pinski           : DLPNO-MP2, DLPNO-MP2 Gradient
   Christoph Reimann      : Effective Core Potentials
   Marius Retegan         : Local ZFS, SOC
   Christoph Riplinger    : Optimizer, TS searches, QM/MM, DLPNO-CCSD(T), (RO)-DLPNO pert. Triples
   Tobias Risthaus        : Range-separated hybrids, TD-DFT gradient, RPA, STAB
   Michael Roemelt        : Original ROCIS implementation
   Masaaki Saitow         : Open-shell DLPNO-CCSD energy and density
   Barbara Sandhoefer     : DKH picture change effects
   Avijit Sen             : IP-ROCIS
   Kantharuban Sivalingam : CASSCF convergence, NEVPT2, FIC-MRCI
   Bernardo de Souza      : ESD, SOC TD-DFT
   Georgi Stoychev        : AutoAux, RI-MP2 NMR, DLPNO-MP2 response
   Willem Van den Heuvel  : Paramagnetic NMR
   Boris Wezisla          : Elementary symmetry handling
   Frank Wennmohs         : Technical directorship


 We gratefully acknowledge several colleagues who have allowed us to
 interface, adapt or use parts of their codes:
   Stefan Grimme, W. Hujo, H. Kruse, P. Pracht,  : VdW corrections, initial TS optimization,
                  C. Bannwarth, S. Ehlert          DFT functionals, gCP, sTDA/sTD-DF
   Ed Valeev, F. Pavosevic, A. Kumar             : LibInt (2-el integral package), F12 methods
   Garnet Chan, S. Sharma, J. Yang, R. Olivares  : DMRG
   Ulf Ekstrom                                   : XCFun DFT Library
   Mihaly Kallay                                 : mrcc  (arbitrary order and MRCC methods)
   Jiri Pittner, Ondrej Demel                    : Mk-CCSD
   Frank Weinhold                                : gennbo (NPA and NBO analysis)
   Christopher J. Cramer and Donald G. Truhlar   : smd solvation model
   Lars Goerigk                                  : TD-DFT with DH, B97 family of functionals
   V. Asgeirsson, H. Jonsson                     : NEB implementation
   FAccTs GmbH                                   : IRC, NEB, NEB-TS, DLPNO-Multilevel, CI-OPT
                                                   MM, QMMM, 2- and 3-layer-ONIOM, Crystal-QMMM,
                                                   LR-CPCM, SF, NACMEs, symmetry and pop. for TD-DFT,
                                                   nearIR, NL-DFT gradient (VV10), updates on ESD,
                                                   ML-optimized integration grids
   S Lehtola, MJT Oliveira, MAL Marques          : LibXC Library
   Liviu Ungur et al                             : ANISO software


 Your calculation uses the libint2 library for the computation of 2-el integrals
 For citations please refer to: http://libint.valeyev.net

 Your ORCA version has been built with support for libXC version: 5.1.0
 For citations please refer to: https://tddft.org/programs/libxc/

 This ORCA versions uses:
   CBLAS   interface :  Fast vector & matrix operations
   LAPACKE interface :  Fast linear algebra routines
   SCALAPACK package :  Parallel linear algebra routines
   Shared memory     :  Shared parallel matrices
   BLAS/LAPACK       :  OpenBLAS 0.3.15  USE64BITINT DYNAMIC_ARCH NO_AFFINITY Sandybridge SINGLE_THREADED
        Core in use  :  Sandybridge
   Copyright (c) 2011-2014, The OpenBLAS Project


================================================================================

----- Orbital basis set information -----
Your calculation utilizes the basis: cc-pVDZ 
       H, B-Ne : Obtained from the ccRepo (grant-hill.group.shef.ac.uk/ccrepo) Feb. 2017
                 T. H. Dunning, Jr., J. Chem. Phys. 90, 1007 (1989)
            He : Obtained from the ccRepo (grant-hill.group.shef.ac.uk/ccrepo) Feb. 2017
                 D. E. Woon, T. H. Dunning, Jr., J. Chem. Phys. 100, 2975 (1994)
  Li-Be, Na-Mg : Obtained from the ccRepo (grant-hill.group.shef.ac.uk/ccrepo) Feb. 2017
                 B. P. Prascher, D. E. Woon, K. A. Peterson, T. H. Dunning, Jr., A. K. Wilson, Theor. Chem. Acc. 128, 69 (2011)
         Al-Ar : Obtained from the ccRepo (grant-hill.group.shef.ac.uk/ccrepo) Feb. 2017
                 D. E. Woon, T. H. Dunning, Jr., J. Chem. Phys. 98, 1358 (1993)
            Ca : Obtained from the Peterson Research Group Website (tyr0.chem.wsu.edu/~kipeters) Feb. 2017
                 J. Koput, K. A. Peterson, J. Phys. Chem. 106, 9595 (2002)
         Sc-Zn : Obtained from the ccRepo (grant-hill.group.shef.ac.uk/ccrepo) Feb. 2017
                 N. B. Balabanov, K. A. Peterson, J. Chem. Phys. 123, 064107 (2005)
                 N. B. Balabanov, K. A. Peterson, J. Chem. Phys. 125, 074110 (2006)
         Ga-Kr : Obtained from the ccRepo (grant-hill.group.shef.ac.uk/ccrepo) Feb. 2017
                 A. K. Wilson, D. E. Woon, K. A. Peterson, T. H. Dunning, Jr., J. Chem. Phys. 110, 7667 (1999)

================================================================================
                                        WARNINGS
                       Please study these warnings very carefully!
================================================================================


WARNING: No MP2 level density has been requested!
         To caclulate MP2 level properties use
         %mp2 Density relaxed end
         or
         %mp2 Density unrelaxed end

WARNING: Post HF methods need fully converged wavefunctions
  ===> : Setting SCFConvForced true
         You can overwrite this default with %scf ConvForced false 


INFO   : the flag for use of the SHARK integral package has been found!

================================================================================
                                       INPUT FILE
================================================================================
NAME = /scratch/allen/tmpyp4_amber_gaff2/2.Mdgx/conf11/conf11/Conf277.orca
|  1> ! PAL2
|  2> ! mp2 cc-pvdz TightSCF  NoKeepInts
|  3> 
|  4> %scf
|  5>   MaxCore 2000
|  6> end
|  7> %mp2
|  8>   MaxCore 2000
|  9> end
| 10> * xyz 0 1
| 11>    C       -3.92000         5.86500         1.24600
| 12>    C        1.47400         4.04100         0.05700
| 13>    C       -2.80200         4.09300         0.04900
| 14>    C       -3.30000         4.65100        -1.13900
| 15>    C       -4.08100         5.78800        -1.09700
| 16>    C       -5.19300         7.61600         0.09100
| 17>    C        0.13200         4.30700         0.06100
| 18>    C       -0.56900         3.05600         0.04700
| 19>    C        1.64900         2.61800         0.02300
| 20>    C       -3.13000         4.73300         1.25400
| 21>    N       -4.38400         6.37700         0.08300
| 22>    N        0.38800         2.06700         0.02500
| 23>    N       -2.01000         0.39500        -0.07500
| 24>    N       -0.38800        -2.07400        -0.02700
| 25>    N        2.01000        -0.40100         0.06500
| 26>    C       -1.96000         2.86100         0.02400
| 27>    C       -2.62300         1.61500        -0.01800
| 28>    C       -5.57300        -4.32900         1.06600
| 29>    C       -4.07300         1.47100         0.05600
| 30>    C       -4.10600        -2.75600        -0.02600
| 31>    C       -4.99500        -2.75700        -1.11100
| 32>    C       -6.13200        -3.54200        -1.07600
| 33>    C       -7.65100        -5.11300         0.04000
| 34>    C       -4.32400         0.14100         0.03700
| 35>    C       -3.02500        -0.52000        -0.04800
| 36>    C       -4.42200        -3.56600         1.07500
| 37>    N       -6.40700        -4.31300         0.00100
| 38>    C       -2.86700        -1.92200        -0.04000
| 39>    C       -1.65000        -2.62400        -0.02700
| 40>    C        3.56800        -6.14200        -1.04000
| 41>    C       -1.47600        -4.04900        -0.03400
| 42>    C        2.80300        -4.09900        -0.00800
| 43>    C        3.65700        -4.38400         1.06900
| 44>    C        4.42700        -5.53000         1.05900
| 45>    C        5.24500        -7.58800         0.01400
| 46>    C       -0.13400        -4.31500        -0.02200
| 47>    C        0.56800        -3.06400        -0.02700
| 48>    C        2.77500        -5.01200        -1.07400
| 49>    N        4.37600        -6.39100         0.01700
| 50>    C        1.95900        -2.86900        -0.00900
| 51>    C        2.62100        -1.62200         0.00900
| 52>    C        5.54300         4.33900        -1.13000
| 53>    C        4.07000        -1.47900        -0.09400
| 54>    C        4.10400         2.75100        -0.02100
| 55>    C        5.02700         2.72900         1.03600
| 56>    C        6.16600         3.50900         0.97800
| 57>    C        7.61900         5.15300        -0.11500
| 58>    C        4.32100        -0.14800        -0.09200
| 59>    C        3.02500         0.51400         0.01500
| 60>    C        4.38700         3.58200        -1.11500
| 61>    C        2.86600         1.91600         0.01300
| 62>    N        6.41300         4.29600        -0.09500
| 63>    H       -4.20800         6.38400         2.15200
| 64>    H        2.27400         4.76600         0.08100
| 65>    H       -3.07300         4.20800        -2.10200
| 66>    H       -4.48000         6.25900        -1.98600
| 67>    H       -4.53100         8.47400        -0.04800
| 68>    H       -5.91800         7.56700        -0.72100
| 69>    H       -5.70800         7.69200         1.04800
| 70>    H       -0.33200         5.28200         0.06900
| 71>    H       -2.78800         4.34300         2.20600
| 72>    H        0.18200         1.07200         0.00500
| 73>    H       -0.18300        -1.08000        -0.02100
| 74>    H       -5.86400        -4.96200         1.89500
| 75>    H       -4.79400         2.27200         0.13900
| 76>    H       -4.80000        -2.16000        -1.99400
| 77>    H       -6.84100        -3.58200        -1.89300
| 78>    H       -8.42800        -4.53600         0.54600
| 79>    H       -7.95600        -5.33700        -0.98100
| 80>    H       -7.45600        -6.03700         0.58400
| 81>    H       -5.28700        -0.34400         0.10000
| 82>    H       -3.78000        -3.60100         1.94700
| 83>    H        3.58700        -6.86800        -1.84300
| 84>    H       -2.27600        -4.77400        -0.05000
| 85>    H        3.71400        -3.72400         1.92600
| 86>    H        5.09200        -5.79500         1.87100
| 87>    H        6.20500        -7.32900        -0.43900
| 88>    H        5.39300        -7.91700         1.04200
| 89>    H        4.75900        -8.37300        -0.56400
| 90>    H        0.32900        -5.29000        -0.00800
| 91>    H        2.14600        -4.84200        -1.94000
| 92>    H        5.80800         4.98600        -1.95600
| 93>    H        4.78800        -2.28100        -0.18500
| 94>    H        4.86000         2.11400         1.91200
| 95>    H        6.90100         3.53100         1.77200
| 96>    H        7.38300         6.10900         0.35600
| 97>    H        8.41400         4.65200         0.43500
| 98>    H        7.92100         5.31000        -1.15000
| 99>    H        5.28300         0.33600        -0.17900
|100>    H        3.72000         3.63200        -1.96700
|101> *
|102> 
|103>                          ****END OF INPUT****
================================================================================

                       ****************************
                       * Single Point Calculation *
                       ****************************

---------------------------------
CARTESIAN COORDINATES (ANGSTROEM)
---------------------------------
  C     -3.920000    5.865000    1.246000
  C      1.474000    4.041000    0.057000
  C     -2.802000    4.093000    0.049000
  C     -3.300000    4.651000   -1.139000
  C     -4.081000    5.788000   -1.097000
  C     -5.193000    7.616000    0.091000
  C      0.132000    4.307000    0.061000
  C     -0.569000    3.056000    0.047000
  C      1.649000    2.618000    0.023000
  C     -3.130000    4.733000    1.254000
  N     -4.384000    6.377000    0.083000
  N      0.388000    2.067000    0.025000
  N     -2.010000    0.395000   -0.075000
  N     -0.388000   -2.074000   -0.027000
  N      2.010000   -0.401000    0.065000
  C     -1.960000    2.861000    0.024000
  C     -2.623000    1.615000   -0.018000
  C     -5.573000   -4.329000    1.066000
  C     -4.073000    1.471000    0.056000
  C     -4.106000   -2.756000   -0.026000
  C     -4.995000   -2.757000   -1.111000
  C     -6.132000   -3.542000   -1.076000
  C     -7.651000   -5.113000    0.040000
  C     -4.324000    0.141000    0.037000
  C     -3.025000   -0.520000   -0.048000
  C     -4.422000   -3.566000    1.075000
  N     -6.407000   -4.313000    0.001000
  C     -2.867000   -1.922000   -0.040000
  C     -1.650000   -2.624000   -0.027000
  C      3.568000   -6.142000   -1.040000
  C     -1.476000   -4.049000   -0.034000
  C      2.803000   -4.099000   -0.008000
  C      3.657000   -4.384000    1.069000
  C      4.427000   -5.530000    1.059000
  C      5.245000   -7.588000    0.014000
  C     -0.134000   -4.315000   -0.022000
  C      0.568000   -3.064000   -0.027000
  C      2.775000   -5.012000   -1.074000
  N      4.376000   -6.391000    0.017000
  C      1.959000   -2.869000   -0.009000
  C      2.621000   -1.622000    0.009000
  C      5.543000    4.339000   -1.130000
  C      4.070000   -1.479000   -0.094000
  C      4.104000    2.751000   -0.021000
  C      5.027000    2.729000    1.036000
  C      6.166000    3.509000    0.978000
  C      7.619000    5.153000   -0.115000
  C      4.321000   -0.148000   -0.092000
  C      3.025000    0.514000    0.015000
  C      4.387000    3.582000   -1.115000
  C      2.866000    1.916000    0.013000
  N      6.413000    4.296000   -0.095000
  H     -4.208000    6.384000    2.152000
  H      2.274000    4.766000    0.081000
  H     -3.073000    4.208000   -2.102000
  H     -4.480000    6.259000   -1.986000
  H     -4.531000    8.474000   -0.048000
  H     -5.918000    7.567000   -0.721000
  H     -5.708000    7.692000    1.048000
  H     -0.332000    5.282000    0.069000
  H     -2.788000    4.343000    2.206000
  H      0.182000    1.072000    0.005000
  H     -0.183000   -1.080000   -0.021000
  H     -5.864000   -4.962000    1.895000
  H     -4.794000    2.272000    0.139000
  H     -4.800000   -2.160000   -1.994000
  H     -6.841000   -3.582000   -1.893000
  H     -8.428000   -4.536000    0.546000
  H     -7.956000   -5.337000   -0.981000
  H     -7.456000   -6.037000    0.584000
  H     -5.287000   -0.344000    0.100000
  H     -3.780000   -3.601000    1.947000
  H      3.587000   -6.868000   -1.843000
  H     -2.276000   -4.774000   -0.050000
  H      3.714000   -3.724000    1.926000
  H      5.092000   -5.795000    1.871000
  H      6.205000   -7.329000   -0.439000
  H      5.393000   -7.917000    1.042000
  H      4.759000   -8.373000   -0.564000
  H      0.329000   -5.290000   -0.008000
  H      2.146000   -4.842000   -1.940000
  H      5.808000    4.986000   -1.956000
  H      4.788000   -2.281000   -0.185000
  H      4.860000    2.114000    1.912000
  H      6.901000    3.531000    1.772000
  H      7.383000    6.109000    0.356000
  H      8.414000    4.652000    0.435000
  H      7.921000    5.310000   -1.150000
  H      5.283000    0.336000   -0.179000
  H      3.720000    3.632000   -1.967000

----------------------------
CARTESIAN COORDINATES (A.U.)
----------------------------
  NO LB      ZA    FRAG     MASS         X           Y           Z
   0 C     6.0000    0    12.011   -7.407726   11.083244    2.354599
   1 C     6.0000    0    12.011    2.785456    7.636383    0.107714
   2 C     6.0000    0    12.011   -5.295013    7.734649    0.092597
   3 C     6.0000    0    12.011   -6.236096    8.789116   -2.152398
   4 C     6.0000    0    12.011   -7.711972   10.937735   -2.073030
   5 C     6.0000    0    12.011   -9.813348   14.392154    0.171965
   6 C     6.0000    0    12.011    0.249444    8.139050    0.115273
   7 C     6.0000    0    12.011   -1.075254    5.775003    0.088817
   8 C     6.0000    0    12.011    3.116158    4.947303    0.043464
   9 C     6.0000    0    12.011   -5.914843    8.944074    2.369717
  10 N     7.0000    0    14.007   -8.284559   12.050784    0.156847
  11 N     7.0000    0    14.007    0.733214    3.906064    0.047243
  12 N     7.0000    0    14.007   -3.798350    0.746442   -0.141729
  13 N     7.0000    0    14.007   -0.733214   -3.919292   -0.051023
  14 N     7.0000    0    14.007    3.798350   -0.757780    0.122832
  15 C     6.0000    0    12.011   -3.703863    5.406506    0.045353
  16 C     6.0000    0    12.011   -4.956752    3.051908   -0.034015
  17 C     6.0000    0    12.011  -10.531444   -8.180624    2.014448
  18 C     6.0000    0    12.011   -7.696855    2.779787    0.105825
  19 C     6.0000    0    12.011   -7.759216   -5.208085   -0.049133
  20 C     6.0000    0    12.011   -9.439182   -5.209975   -2.099486
  21 C     6.0000    0    12.011  -11.587801   -6.693410   -2.033345
  22 C     6.0000    0    12.011  -14.458295   -9.662170    0.075589
  23 C     6.0000    0    12.011   -8.171176    0.266451    0.069920
  24 C     6.0000    0    12.011   -5.716422   -0.982658   -0.090707
  25 C     6.0000    0    12.011   -8.356369   -6.738763    2.031456
  26 N     7.0000    0    14.007  -12.107475   -8.150389    0.001890
  27 C     6.0000    0    12.011   -5.417845   -3.632054   -0.075589
  28 C     6.0000    0    12.011   -3.118048   -4.958641   -0.051023
  29 C     6.0000    0    12.011    6.742543  -11.606698   -1.965315
  30 C     6.0000    0    12.011   -2.789236   -7.651501   -0.064251
  31 C     6.0000    0    12.011    5.296902   -7.745987   -0.015118
  32 C     6.0000    0    12.011    6.910728   -8.284559    2.020117
  33 C     6.0000    0    12.011    8.365818  -10.450186    2.001220
  34 C     6.0000    0    12.011    9.911614  -14.339242    0.026456
  35 C     6.0000    0    12.011   -0.253223   -8.154168   -0.041574
  36 C     6.0000    0    12.011    1.073364   -5.790121   -0.051023
  37 C     6.0000    0    12.011    5.243990   -9.471307   -2.029566
  38 N     7.0000    0    14.007    8.269442  -12.077240    0.032125
  39 C     6.0000    0    12.011    3.701973   -5.421624   -0.017008
  40 C     6.0000    0    12.011    4.952972   -3.065136    0.017008
  41 C     6.0000    0    12.011   10.474752    8.199522   -2.135391
  42 C     6.0000    0    12.011    7.691185   -2.794905   -0.177634
  43 C     6.0000    0    12.011    7.755436    5.198637   -0.039684
  44 C     6.0000    0    12.011    9.499653    5.157063    1.957756
  45 C     6.0000    0    12.011   11.652051    6.631049    1.848152
  46 C     6.0000    0    12.011   14.397823    9.737759   -0.217319
  47 C     6.0000    0    12.011    8.165507   -0.279679   -0.173855
  48 C     6.0000    0    12.011    5.716422    0.971319    0.028346
  49 C     6.0000    0    12.011    8.290229    6.768999   -2.107045
  50 C     6.0000    0    12.011    5.415955    3.620715    0.024566
  51 N     7.0000    0    14.007   12.118814    8.118263   -0.179524
  52 H     1.0000    0     1.008   -7.951968   12.064012    4.066691
  53 H     1.0000    0     1.008    4.297237    9.006435    0.153068
  54 H     1.0000    0     1.008   -5.807128    7.951968   -3.972204
  55 H     1.0000    0     1.008   -8.465973   11.827796   -3.752996
  56 H     1.0000    0     1.008   -8.562349   16.013539   -0.090707
  57 H     1.0000    0     1.008  -11.183399   14.299558   -1.362493
  58 H     1.0000    0     1.008  -10.786557   14.535773    1.980433
  59 H     1.0000    0     1.008   -0.627389    9.981533    0.130391
  60 H     1.0000    0     1.008   -5.268556    8.207081    4.168736
  61 H     1.0000    0     1.008    0.343930    2.025786    0.009449
  62 H     1.0000    0     1.008   -0.345820   -2.040904   -0.039684
  63 H     1.0000    0     1.008  -11.081354   -9.376821    3.581031
  64 H     1.0000    0     1.008   -9.059347    4.293458    0.262672
  65 H     1.0000    0     1.008   -9.070685   -4.081808   -3.768114
  66 H     1.0000    0     1.008  -12.927616   -6.768999   -3.577252
  67 H     1.0000    0     1.008  -15.926612   -8.571798    1.031790
  68 H     1.0000    0     1.008  -15.034661  -10.085468   -1.853821
  69 H     1.0000    0     1.008  -14.089798  -11.408277    1.103600
  70 H     1.0000    0     1.008   -9.990982   -0.650066    0.188973
  71 H     1.0000    0     1.008   -7.143165   -6.804904    3.679297
  72 H     1.0000    0     1.008    6.778448  -12.978639   -3.482765
  73 H     1.0000    0     1.008   -4.301017   -9.021553   -0.094486
  74 H     1.0000    0     1.008    7.018443   -7.037340    3.639613
  75 H     1.0000    0     1.008    9.622485  -10.950963    3.535678
  76 H     1.0000    0     1.008   11.725751  -13.849803   -0.829590
  77 H     1.0000    0     1.008   10.191293  -14.960962    1.969095
  78 H     1.0000    0     1.008    8.993207  -15.822677   -1.065806
  79 H     1.0000    0     1.008    0.621720   -9.996651   -0.015118
  80 H     1.0000    0     1.008    4.055352   -9.150054   -3.666069
  81 H     1.0000    0     1.008   10.975529    9.422175   -3.696304
  82 H     1.0000    0     1.008    9.048009   -4.310465   -0.349599
  83 H     1.0000    0     1.008    9.184069    3.994881    3.613156
  84 H     1.0000    0     1.008   13.041000    6.672623    3.348595
  85 H     1.0000    0     1.008   13.951848   11.544337    0.672743
  86 H     1.0000    0     1.008   15.900156    8.791006    0.822031
  87 H     1.0000    0     1.008   14.968521   10.034446   -2.173185
  88 H     1.0000    0     1.008    9.983423    0.634948   -0.338261
  89 H     1.0000    0     1.008    7.029781    6.863485   -3.717091

--------------------------------
INTERNAL COORDINATES (ANGSTROEM)
--------------------------------
 C      0   0   0     0.000000000000     0.00000000     0.00000000
 C      1   0   0     5.816866252545     0.00000000     0.00000000
 C      1   2   0     2.413030667024    40.42083855     0.00000000
 C      3   1   2     1.403820501346    87.91058121   247.03072476
 C      4   3   1     1.380034057551   120.16501183     0.16021852
 C      5   4   3     2.447339780251   152.53686324     1.55358131
 C      2   1   3     1.368114030335    13.79187834    24.50602421
 C      7   2   3     1.434084376876   108.05010202     0.84668783
 C      2   1   3     1.434123425651   115.41297516   323.41099667
 C      1   2   3     1.380430367675    38.12772394    48.43718458
 N      1   2   3     1.352778252338   105.13020812   287.51015196
 N      9   2   1     1.376127174356   106.58526707    11.92977975
 N     12   9   2     2.925062050624   168.53581413   171.12065651
 N     13  12   9     2.954513327098    91.55032014    11.12112580
 N     14  13  12     2.925371258490    88.43092389   359.84326247
 C      8   7   2     1.404790019896   127.24786865   181.11170171
 C     13  12   9     1.366535034311    81.72106996   188.00453233
 C     14  13  12     5.758810554272    80.56209567   166.76250791
 C     17  13  12     1.459010623676   111.08861209   183.82872609
 C     18  14  13     2.412235892279    27.27532823    36.33507194
 C     20  18  14     1.402692767501    87.95206320   148.94598259
 C     21  20  18     1.382106725257   120.14573887   359.70382047
 C     18  14  13     2.446510985056   144.15733107    82.80075377
 C     19  17  13     1.353610726908   106.29293361   359.75308708
 C     13  12   9     1.366813447402   172.21332906    33.46711076
 C     18  14  13     1.380960173213    15.08449437   309.23336894
 N     22  21  20     1.352773077792   120.73759875     0.27865223
 C     25  13  17     1.410897586645   125.60330303   182.37774668
 C     14  13  12     1.376642291955    80.24689249   177.85461986
 C     14  13  12     5.764089607215   164.51507311   312.20821879
 C     29  14  13     1.435600919476   106.58649366   178.76395472
 C     30  14  13     2.413316804732    27.10625047    82.12560436
 C     32  30  14     1.403734305344    87.90059683   149.76154742
 C     33  32  30     1.380694028378   120.14881443   359.74174632
 C     34  33  32     2.448777858443   152.49203239     2.45173620
 C     31  29  14     1.368160809262   108.16950133     0.70383075
 C     14  13  12     1.376239804685   169.26375223   353.09862627
 C     30  14  13     1.380907310430    14.68948582   353.70041132
 N     34  33  32     1.352658863128   120.85575621     0.19603406
 C     37  14  29     1.404717053360   126.01551127   180.90772073
 C     15  14  13     1.366491126938    81.61824056   183.09049352
 C      2   1   3     4.249062720177   157.38613818   133.62445103
 C     41  15  14     1.459677704153   111.05201287   175.08990246
 C     42   2   1     2.412953791518    41.78584867   165.20025864
 C     44  42   2     1.403446472082    87.95153797   233.97558675
 C     45  44  42     1.381696421071   120.11137308     0.19721020
 C     42   2   1     2.450019795838   135.97209175    75.51510774
 C     43  41  15     1.354461516618   106.26758155     0.30894352
 C     15  14  13     1.367461151185   171.87382904   332.35056460
 C     42   2   1     1.381886391857    32.59078432   214.05553783
 C      9   2   1     1.404988612053   126.98745415   192.93411728
 N     42   2   1     1.352765315936   113.57249190   103.25169693
 H      1   2   3     1.083116337242   124.59725692   149.05035315
 H      2   1   3     1.079907866440   118.15707340   155.46671552
 H      4   3   1     1.084041973357   121.00082925   179.52516672
 H      5   4   3     1.082295246224   122.83242115   179.45434367
 H      6   5   4     1.092579058924   104.44807959   100.16870158
 H      6   5   4     1.089665086162    84.66340608   209.57984238
 H      6   5   4     1.089426454608   133.89338939   322.43925120
 H      7   2  54     1.079807853278   126.66122480     1.30600390
 H     10   1   2     1.084143901888   118.72534587   106.32981211
 H     12   9   2     1.016297692608   125.29023241   180.00180175
 H     14  13  12     1.014936943854    44.97226959   359.42596618
 H     18  14  13     1.082871645210   128.03556573   234.20482432
 H     19  17  13     1.080893611786   126.41830519   178.11313280
 H     21  20  18     1.083569563987   121.05669627   180.67006309
 H     22  21  20     1.082483256222   122.73097286   180.59748951
 H     23  18  14     1.092105306278   103.92715769   234.93429879
 H     23  18  14     1.088871893291   134.19244188    12.25587044
 H     23  18  14     1.089833473518    84.85857450   125.45241208
 H     24  19  17     1.080075460327   127.28078426   178.44613241
 H     26  18  14     1.083408048706   118.76995697   244.94906660
 H     30  14  13     1.082703098730   127.99711412   279.66882698
 H     31  29  14     1.079759695488   125.22293469   180.92530585
 H     33  32  30     1.083188810873   121.01964473   180.74284758
 H     34  33  32     1.082494341787   122.70821597   180.59516895
 H     35  34  33     1.092652735319   105.73575241    97.19771933
 H     35  34  33     1.089462711615    84.05943581   206.43036958
 H     35  34  33     1.089268102902   133.08365142   318.50306270
 H     36  31  29     1.079439669458   126.61599965   178.98859863
 H     38  30  73     1.083742127999   118.77264435   359.90091293
 H     42   2   1     1.082178358682   119.31790784   319.88322739
 H     43  41  15     1.080281907652   126.36969097   182.06329380
 H     45  44  42     1.083277434455   121.10105945   179.58025624
 H     46  45  44     1.082194529648   122.72144639   179.46906377
 H     47  42   2     1.091546151109   106.65128841   315.16475048
 H     47  42   2     1.088818625851   132.46019523    94.52397119
 H     47  42   2     1.089531091801    83.63838232   206.04504406
 H     48  43  41     1.080402239909   127.23657387   181.62955349
 H     50  42   2     1.083186502870   118.77001737    94.71359229

---------------------------
INTERNAL COORDINATES (A.U.)
---------------------------
 C      0   0   0     0.000000000000     0.00000000     0.00000000
 C      1   0   0    10.992284174959     0.00000000     0.00000000
 C      1   2   0     4.559967113429    40.42083855     0.00000000
 C      3   1   2     2.652836288728    87.91058121   247.03072476
 C      4   3   1     2.607886424255   120.16501183     0.16021852
 C      5   4   3     4.624801941326   152.53686324     1.55358131
 C      2   1   3     2.585360837309    13.79187834    24.50602421
 C      7   2   3     2.710026725231   108.05010202     0.84668783
 C      2   1   3     2.710100516721   115.41297516   323.41099667
 C      1   2   3     2.608635341854    38.12772394    48.43718458
 N      1   2   3     2.556380416844   105.13020812   287.51015196
 N      9   2   1     2.600503484979   106.58526707    11.92977975
 N     12   9   2     5.527566200405   168.53581413   171.12065651
 N     13  12   9     5.583221047236    91.55032014    11.12112580
 N     14  13  12     5.528150518591    88.43092389   359.84326247
 C      8   7   2     2.654668413270   127.24786865   181.11170171
 C     13  12   9     2.582376967257    81.72106996   188.00453233
 C     14  13  12    10.882574804710    80.56209567   166.76250791
 C     17  13  12     2.757130505230   111.08861209   183.82872609
 C     18  14  13     4.558465206823    27.27532823    36.33507194
 C     20  18  14     2.650705180609    87.95206320   148.94598259
 C     21  20  18     2.611803198586   120.14573887   359.70382047
 C     18  14  13     4.623235745386   144.15733107    82.80075377
 C     19  17  13     2.557953565794   106.29293361   359.75308708
 C     13  12   9     2.582903091751   172.21332906    33.46711076
 C     18  14  13     2.609636529225    15.08449437   309.23336894
 N     22  21  20     2.556370638369   120.73759875     0.27865223
 C     25  13  17     2.666210041769   125.60330303   182.37774668
 C     14  13  12     2.601476916169    80.24689249   177.85461986
 C     14  13  12    10.892550769017   164.51507311   312.20821879
 C     29  14  13     2.712892575415   106.58649366   178.76395472
 C     30  14  13     4.560507835333    27.10625047    82.12560436
 C     32  30  14     2.652673401891    87.90059683   149.76154742
 C     33  32  30     2.609133588376   120.14881443   359.74174632
 C     34  33  32     4.627519515267   152.49203239     2.45173620
 C     31  29  14     2.585449236669   108.16950133     0.70383075
 C     14  13  12     2.600716325456   169.26375223   353.09862627
 C     30  14  13     2.609536633043    14.68948582   353.70041132
 N     34  33  32     2.556154803934   120.85575621     0.19603406
 C     37  14  29     2.654530526499   126.01551127   180.90772073
 C     15  14  13     2.582293994346    81.61824056   183.09049352
 C      2   1   3     8.029564866989   157.38613818   133.62445103
 C     41  15  14     2.758391104639   111.05201287   175.08990246
 C     42   2   1     4.559821839776    41.78584867   165.20025864
 C     44  42   2     2.652129475853    87.95153797   233.97558675
 C     45  44  42     2.611027836043   120.11137308     0.19721020
 C     42   2   1     4.629866436820   135.97209175    75.51510774
 C     43  41  15     2.559561325344   106.26758155     0.30894352
 C     15  14  13     2.584127074516   171.87382904   332.35056460
 C     42   2   1     2.611386828803    32.59078432   214.05553783
 C      9   2   1     2.655043698059   126.98745415   192.93411728
 N     42   2   1     2.556355970587   113.57249190   103.25169693
 H      1   2   3     2.046793248563   124.59725692   149.05035315
 H      2   1   3     2.040730117440   118.15707340   155.46671552
 H      4   3   1     2.048542447321   121.00082925   179.52516672
 H      5   4   3     2.045241611409   122.83242115   179.45434367
 H      6   5   4     2.064675201024   104.44807959   100.16870158
 H      6   5   4     2.059168590542    84.66340608   209.57984238
 H      6   5   4     2.058717642258   133.89338939   322.43925120
 H      7   2  54     2.040541119952   126.66122480     1.30600390
 H     10   1   2     2.048735064328   118.72534587   106.32981211
 H     12   9   2     1.920524309565   125.29023241   180.00180175
 H     14  13  12     1.917952867083    44.97226959   359.42596618
 H     18  14  13     2.046330847636   128.03556573   234.20482432
 H     19  17  13     2.042592906181   126.41830519   178.11313280
 H     21  20  18     2.047649722989   121.05669627   180.67006309
 H     22  21  20     2.045596898814   122.73097286   180.59748951
 H     23  18  14     2.063779938267   103.92715769   234.93429879
 H     23  18  14     2.057669673245   134.19244188    12.25587044
 H     23  18  14     2.059486796529    84.85857450   125.45241208
 H     24  19  17     2.041046823986   127.28078426   178.44613241
 H     26  18  14     2.047344503340   118.76995697   244.94906660
 H     30  14  13     2.046012340948   127.99711412   279.66882698
 H     31  29  14     2.040450114918   125.22293469   180.92530585
 H     33  32  30     2.046930203877   121.01964473   180.74284758
 H     34  33  32     2.045617847496   122.70821597   180.59516895
 H     35  34  33     2.064814429233   105.73575241    97.19771933
 H     35  34  33     2.058786158072    84.05943581   206.43036958
 H     35  34  33     2.058418400901   133.08365142   318.50306270
 H     36  31  29     2.039845353366   126.61599965   178.98859863
 H     38  30  73     2.047975821711   118.77264435   359.90091293
 H     42   2   1     2.045020725966   119.31790784   319.88322739
 H     43  41  15     2.041436952892   126.36969097   182.06329380
 H     45  44  42     2.047097678177   121.10105945   179.58025624
 H     46  45  44     2.045051284662   122.72144639   179.46906377
 H     47  42   2     2.062723288131   106.65128841   315.16475048
 H     47  42   2     2.057569012371   132.46019523    94.52397119
 H     47  42   2     2.058915377895    83.63838232   206.04504406
 H     48  43  41     2.041664347903   127.23657387   181.62955349
 H     50  42   2     2.046925842384   118.77001737    94.71359229

---------------------
BASIS SET INFORMATION
---------------------
There are 3 groups of distinct atoms

 Group   1 Type C   : 17s4p1d contracted to 3s2p1d pattern {881/31/1}
 Group   2 Type N   : 17s4p1d contracted to 3s2p1d pattern {881/31/1}
 Group   3 Type H   : 4s1p contracted to 2s1p pattern {31/1}

Atom   0C    basis set group =>   1
Atom   1N    basis set group =>   2
Atom   2C    basis set group =>   1
Atom   3N    basis set group =>   2
Atom   4C    basis set group =>   1
Atom   5N    basis set group =>   2
Atom   6C    basis set group =>   1
Atom   7N    basis set group =>   2
Atom   8C    basis set group =>   1
Atom   9N    basis set group =>   2
Atom  10C    basis set group =>   1
Atom  11N    basis set group =>   2
Atom  12C    basis set group =>   1
Atom  13N    basis set group =>   2
Atom  14C    basis set group =>   1
Atom  15N    basis set group =>   2
Atom  16C    basis set group =>   1
Atom  17C    basis set group =>   1
Atom  18C    basis set group =>   1
Atom  19C    basis set group =>   1
Atom  20C    basis set group =>   1
Atom  21C    basis set group =>   1
Atom  22C    basis set group =>   1
Atom  23C    basis set group =>   1
Atom  24C    basis set group =>   1
Atom  25C    basis set group =>   1
Atom  26C    basis set group =>   1
Atom  27C    basis set group =>   1
Atom  28C    basis set group =>   1
Atom  29C    basis set group =>   1
Atom  30C    basis set group =>   1
Atom  31C    basis set group =>   1
Atom  32C    basis set group =>   1
Atom  33C    basis set group =>   1
Atom  34C    basis set group =>   1
Atom  35C    basis set group =>   1
Atom  36C    basis set group =>   1
Atom  37C    basis set group =>   1
Atom  38C    basis set group =>   1
Atom  39C    basis set group =>   1
Atom  40C    basis set group =>   1
Atom  41C    basis set group =>   1
Atom  42C    basis set group =>   1
Atom  43C    basis set group =>   1
Atom  44C    basis set group =>   1
Atom  45C    basis set group =>   1
Atom  46C    basis set group =>   1
Atom  47C    basis set group =>   1
Atom  48C    basis set group =>   1
Atom  49C    basis set group =>   1
Atom  50C    basis set group =>   1
Atom  51C    basis set group =>   1
Atom  52H    basis set group =>   3
Atom  53H    basis set group =>   3
Atom  54H    basis set group =>   3
Atom  55H    basis set group =>   3
Atom  56H    basis set group =>   3
Atom  57H    basis set group =>   3
Atom  58H    basis set group =>   3
Atom  59H    basis set group =>   3
Atom  60H    basis set group =>   3
Atom  61H    basis set group =>   3
Atom  62H    basis set group =>   3
Atom  63H    basis set group =>   3
Atom  64H    basis set group =>   3
Atom  65H    basis set group =>   3
Atom  66H    basis set group =>   3
Atom  67H    basis set group =>   3
Atom  68H    basis set group =>   3
Atom  69H    basis set group =>   3
Atom  70H    basis set group =>   3
Atom  71H    basis set group =>   3
Atom  72H    basis set group =>   3
Atom  73H    basis set group =>   3
Atom  74H    basis set group =>   3
Atom  75H    basis set group =>   3
Atom  76H    basis set group =>   3
Atom  77H    basis set group =>   3
Atom  78H    basis set group =>   3
Atom  79H    basis set group =>   3
Atom  80H    basis set group =>   3
Atom  81H    basis set group =>   3
Atom  82H    basis set group =>   3
Atom  83H    basis set group =>   3
Atom  84H    basis set group =>   3
Atom  85H    basis set group =>   3
Atom  86H    basis set group =>   3
Atom  87H    basis set group =>   3
Atom  88H    basis set group =>   3
Atom  89H    basis set group =>   3


           ************************************************************
           *        Program running with 16 parallel MPI-processes    *
           *              working on a common directory               *
           ************************************************************
------------------------------------------------------------------------------
                           ORCA GTO INTEGRAL CALCULATION
------------------------------------------------------------------------------
------------------------------------------------------------------------------
                   ___                                                        
                  /   \      - P O W E R E D   B Y -                         
                 /     \                                                     
                 |  |  |   _    _      __       _____    __    __             
                 |  |  |  | |  | |    /  \     |  _  \  |  |  /  |          
                  \  \/   | |  | |   /    \    | | | |  |  | /  /          
                 / \  \   | |__| |  /  /\  \   | |_| |  |  |/  /          
                |  |  |   |  __  | /  /__\  \  |    /   |      \           
                |  |  |   | |  | | |   __   |  |    \   |  |\   \          
                \     /   | |  | | |  |  |  |  | |\  \  |  | \   \       
                 \___/    |_|  |_| |__|  |__|  |_| \__\ |__|  \__/        
                                                                              
                      - O R C A' S   B I G   F R I E N D -                    
                                      &                                       
                       - I N T E G R A L  F E E D E R -                       
                                                                              
 v1 FN, 2020, v2 2021                                                         
------------------------------------------------------------------------------


Reading SHARK input file /scratch/allen/tmpyp4_amber_gaff2/conf1/conf1/Conf277.orca.SHARKINP.tmp ... ok
----------------------
SHARK INTEGRAL PACKAGE
----------------------

Number of atoms                             ...     90
Number of basis functions                   ...   1230
Number of shells                            ...    738
Maximum angular momentum                    ...      2
Integral batch strategy                     ... SHARK/LIBINT Hybrid
RI-J (if used) integral strategy            ... SPLIT-RIJ (Revised 2003 algorithm where possible)
Printlevel                                  ...      1
Contraction scheme used                     ... PARTIAL GENERAL contraction
Coulomb Range Separation                    ... NOT USED
Exchange Range Separation                   ... NOT USED
Finite Nucleus Model                        ... NOT USED
Auxiliary Coulomb fitting basis             ... NOT available
Auxiliary J/K fitting basis                 ... NOT available
Auxiliary Correlation fitting basis         ... NOT available
Auxiliary 'external' fitting basis          ... NOT available
Integral threshold                          ...     2.500000e-11
Primitive cut-off                           ...     2.500000e-12
Primitive pair pre-selection threshold      ...     2.500000e-12

Calculating pre-screening integrals         ... done (  0.1 sec) Dimension = 738
Calculating pre-screening integrals (ORCA)  ... done (  0.3 sec) Dimension = 426
Organizing shell pair data                  ... done (  0.7 sec)
Shell pair information
Total number of shell pairs                 ...    272691
Shell pairs after pre-screening             ...     71613
Total number of primitive shell pairs       ...    422091
Primitive shell pairs kept                  ...     92358
          la=0 lb=0:  29426 shell pairs
          la=1 lb=0:  25962 shell pairs
          la=1 lb=1:   4684 shell pairs
          la=2 lb=0:   7896 shell pairs
          la=2 lb=1:   3115 shell pairs
          la=2 lb=2:    530 shell pairs

Calculating one electron integrals          ... done (  0.2 sec)
Calculating Nuclear repulsion               ... done (  0.0 sec) ENN=   6221.920450323697 Eh

SHARK setup successfully completed in   2.2 seconds

Maximum memory used throughout the entire GTOINT-calculation: 98.9 MB


           ************************************************************
           *        Program running with 16 parallel MPI-processes    *
           *              working on a common directory               *
           ************************************************************
-------------------------------------------------------------------------------
                                 ORCA SCF
-------------------------------------------------------------------------------

------------
SCF SETTINGS
------------
Hamiltonian:
 Ab initio Hamiltonian  Method          .... Hartree-Fock(GTOs)


General Settings:
 Integral files         IntName         .... /scratch/allen/tmpyp4_amber_gaff2/conf1/conf1/Conf277.orca
 Hartree-Fock type      HFTyp           .... RHF
 Total Charge           Charge          ....    0
 Multiplicity           Mult            ....    1
 Number of Electrons    NEL             ....  358
 Basis Dimension        Dim             ....  918
 Nuclear Repulsion      ENuc            ....   6221.9204503237 Eh

Convergence Acceleration:
 DIIS                   CNVDIIS         .... on
   Start iteration      DIISMaxIt       ....    12
   Startup error        DIISStart       ....  0.200000
   # of expansion vecs  DIISMaxEq       ....     5
   Bias factor          DIISBfac        ....   1.050
   Max. coefficient     DIISMaxC        ....  10.000
 Trust-Rad. Augm. Hess. CNVTRAH         .... auto
   Auto Start mean grad. ratio tolernc. ....  1.125000
   Auto Start start iteration           ....    20
   Auto Start num. interpolation iter.  ....    10
   Max. Number of Micro iterations      ....    16
   Max. Number of Macro iterations      .... Maxiter - #DIIS iter
   Number of Davidson start vectors     ....     2
   Converg. threshold I  (grad. norm)   ....   1.000e-05
   Converg. threshold II (energy diff.) ....   1.000e-08
   Grad. Scal. Fac. for Micro threshold ....   0.100
   Minimum threshold for Micro iter.    ....   0.010
   NR start threshold (gradient norm)   ....   0.001
   Initial trust radius                 ....   0.400
   Minimum AH scaling param. (alpha)    ....   1.000
   Maximum AH scaling param. (alpha)    .... 1000.000
   Orbital update algorithm             .... Taylor
   White noise on init. David. guess    .... on
   Maximum white noise                  ....   0.010
   Quad. conv. algorithm                .... NR
 SOSCF                  CNVSOSCF        .... on
   Start iteration      SOSCFMaxIt      ....   150
   Startup grad/error   SOSCFStart      ....  0.003300
 Level Shifting         CNVShift        .... on
   Level shift para.    LevelShift      ....    0.2500
   Turn off err/grad.   ShiftErr        ....    0.0010
 Zerner damping         CNVZerner       .... off
 Static damping         CNVDamp         .... on
   Fraction old density DampFac         ....    0.7000
   Max. Damping (<1)    DampMax         ....    0.9800
   Min. Damping (>=0)   DampMin         ....    0.0000
   Turn off err/grad.   DampErr         ....    0.1000
 Fernandez-Rico         CNVRico         .... off

SCF Procedure:
 Maximum # iterations   MaxIter         ....   125
 SCF integral mode      SCFMode         .... Direct
   Integral package                     .... SHARK and LIBINT hybrid scheme
 Reset frequency        DirectResetFreq ....    20
 Integral Threshold     Thresh          ....  2.500e-11 Eh
 Primitive CutOff       TCut            ....  2.500e-12 Eh

Convergence Tolerance:
 Convergence Check Mode ConvCheckMode   .... Total+1el-Energy
 Convergence forced     ConvForced      .... 1
 Energy Change          TolE            ....  1.000e-08 Eh
 1-El. energy change                    ....  1.000e-05 Eh
 Orbital Gradient       TolG            ....  1.000e-05
 Orbital Rotation angle TolX            ....  1.000e-05
 DIIS Error             TolErr          ....  5.000e-07


Diagonalization of the overlap matrix:
Smallest eigenvalue                        ... 2.263e-04
Time for diagonalization                   ...    0.459 sec
Threshold for overlap eigenvalues          ... 1.000e-08
Number of eigenvalues below threshold      ... 0
Time for construction of square roots      ...    0.266 sec
Total time needed                          ...    0.732 sec

Time for model grid setup =    1.295 sec

------------------------------
INITIAL GUESS: MODEL POTENTIAL
------------------------------
Loading Hartree-Fock densities                     ... done
Calculating cut-offs                               ... done
Initializing the effective Hamiltonian             ... done
Setting up the integral package (SHARK)            ... done
Starting the Coulomb interaction                   ... done (   1.4 sec)
Reading the grid                                   ... done
Mapping shells                                     ... done
Starting the XC term evaluation                    ... done (   0.2 sec)
Transforming the Hamiltonian                       ... done (   0.3 sec)
Diagonalizing the Hamiltonian                      ... done (   0.4 sec)
Back transforming the eigenvectors                 ... done (   0.1 sec)
Now organizing SCF variables                       ... done
                      ------------------
                      INITIAL GUESS DONE (   3.8 sec)
                      ------------------
--------------
SCF ITERATIONS
--------------
ITER       Energy         Delta-E        Max-DP      RMS-DP      [F,P]     Damp
               ***  Starting incremental Fock matrix formation  ***
  0  -2121.6427668469   0.000000000000 0.06933146  0.00121173  0.2350339 0.7000
  1  -2122.3118166375  -0.669049790589 0.05270460  0.00098176  0.1453902 0.7000
                               ***Turning on DIIS***
  2  -2122.7280086053  -0.416191967828 0.11730003  0.00221934  0.0807211 0.0000
  3  -2117.7509744754   4.977034129928 0.03421203  0.00068575  0.0442876 0.0000
  4  -2123.4096900495  -5.658715574156 0.00925659  0.00023044  0.0073369 0.0000
  5  -2123.5806325583  -0.170942508767 0.00532081  0.00013846  0.0051480 0.0000
  6  -2123.5603402062   0.020292352123 0.00447839  0.00009435  0.0024137 0.0000
  7  -2123.6650044916  -0.104664285418 0.00399852  0.00007915  0.0018990 0.0000
  8  -2123.6929276368  -0.027923145222 0.00387436  0.00008027  0.0017857 0.0000
                      *** Initiating the SOSCF procedure ***
                           *** Shutting down DIIS ***
                      *** Re-Reading the Fockian *** 
                      *** Removing any level shift *** 
ITER      Energy       Delta-E        Grad      Rot      Max-DP    RMS-DP
  9  -2123.65188094   0.0410466978  0.002895  0.002895  0.002932  0.000059
               *** Restarting incremental Fock matrix formation ***
 10  -2123.60876119   0.0431197539  0.002058  0.019265  0.005797  0.000097
 11  -2123.60938241  -0.0006212233  0.001314  0.064430  0.016300  0.000311
 12  -2123.61040341  -0.0010209998  0.001037  0.013347  0.005135  0.000072
 13  -2123.61066611  -0.0002626996  0.000810  0.015996  0.005318  0.000090
 14  -2123.61086162  -0.0001955152  0.000478  0.015326  0.004263  0.000061
 15  -2123.61094864  -0.0000870161  0.000331  0.015222  0.003624  0.000062
 16  -2123.61101372  -0.0000650776  0.000388  0.010595  0.002073  0.000038
 17  -2123.61104314  -0.0000294284  0.000210  0.003088  0.000990  0.000015
 18  -2123.61105203  -0.0000088864  0.000163  0.003267  0.000689  0.000012
 19  -2123.61105719  -0.0000051607  0.000124  0.003843  0.000718  0.000013
 20  -2123.61106108  -0.0000038873  0.000091  0.005126  0.000872  0.000016
 21  -2123.61106406  -0.0000029764  0.000068  0.003555  0.000662  0.000012
 22  -2123.61106558  -0.0000015233  0.000040  0.002067  0.000396  0.000007
 23  -2123.61106630  -0.0000007246  0.000038  0.000892  0.000283  0.000004
 24  -2123.61106670  -0.0000003935  0.000037  0.001091  0.000309  0.000004
 25  -2123.61106699  -0.0000002917  0.000029  0.001120  0.000338  0.000004
 26  -2123.61106720  -0.0000002137  0.000015  0.000858  0.000247  0.000003
 27  -2123.61106733  -0.0000001313  0.000015  0.000357  0.000100  0.000002
 28  -2123.61106739  -0.0000000573  0.000009  0.000090  0.000027  0.000001
 29  -2123.61106741  -0.0000000210  0.000004  0.000038  0.000012  0.000000
               *** Restarting incremental Fock matrix formation ***
 30  -2123.61106738   0.0000000318  0.000003  0.000075  0.000015  0.000000
                  ***Gradient check signals convergence***
              ***Rediagonalizing the Fockian in SOSCF/NRSCF***

               *****************************************************
               *                     SUCCESS                       *
               *           SCF CONVERGED AFTER  31 CYCLES          *
               *****************************************************


----------------
TOTAL SCF ENERGY
----------------

Total Energy       :        -2123.61106738 Eh          -57786.39495 eV

Components:
Nuclear Repulsion  :         6221.92045032 Eh          169307.06286 eV
Electronic Energy  :        -8345.53151770 Eh         -227093.45780 eV
One Electron Energy:       -15285.33479176 Eh         -415935.10542 eV
Two Electron Energy:         6939.80327407 Eh          188841.64761 eV

Virial components:
Potential Energy   :        -4245.59586222 Eh         -115528.53677 eV
Kinetic Energy     :         2121.98479484 Eh           57742.14182 eV
Virial Ratio       :            2.00076639


---------------
SCF CONVERGENCE
---------------

  Last Energy change         ...    5.4115e-09  Tolerance :   1.0000e-08
  Last MAX-Density change    ...    1.0037e-05  Tolerance :   1.0000e-07
  Last RMS-Density change    ...    2.5218e-07  Tolerance :   5.0000e-09
  Last Orbital Gradient      ...    1.7117e-06  Tolerance :   1.0000e-05
  Last Orbital Rotation      ...    7.0977e-05  Tolerance :   1.0000e-05

             **** THE GBW FILE WAS UPDATED (/scratch/allen/tmpyp4_amber_gaff2/conf1/conf1/Conf277.orca.gbw) ****
             **** DENSITY /scratch/allen/tmpyp4_amber_gaff2/conf1/conf1/Conf277.orca.scfp WAS UPDATED ****
             **** ENERGY FILE WAS UPDATED (/scratch/allen/tmpyp4_amber_gaff2/conf1/conf1/Conf277.orca.en.tmp) ****
             **** THE GBW FILE WAS UPDATED (/scratch/allen/tmpyp4_amber_gaff2/conf1/conf1/Conf277.orca.gbw) ****
             **** DENSITY /scratch/allen/tmpyp4_amber_gaff2/conf1/conf1/Conf277.orca.scfp WAS UPDATED ****
----------------
ORBITAL ENERGIES
----------------

  NO   OCC          E(Eh)            E(eV) 
   0   2.0000     -15.713257      -427.5795 
   1   2.0000     -15.629677      -425.3051 
   2   2.0000     -15.619424      -425.0261 
   3   2.0000     -15.580004      -423.9535 
   4   2.0000     -15.520054      -422.3221 
   5   2.0000     -15.504984      -421.9121 
   6   2.0000     -15.450805      -420.4378 
   7   2.0000     -15.427612      -419.8067 
   8   2.0000     -11.352302      -308.9118 
   9   2.0000     -11.351948      -308.9022 
  10   2.0000     -11.346405      -308.7514 
  11   2.0000     -11.307914      -307.7040 
  12   2.0000     -11.297069      -307.4089 
  13   2.0000     -11.291359      -307.2535 
  14   2.0000     -11.290105      -307.2194 
  15   2.0000     -11.282612      -307.0155 
  16   2.0000     -11.282511      -307.0127 
  17   2.0000     -11.281856      -306.9949 
  18   2.0000     -11.281694      -306.9905 
  19   2.0000     -11.272367      -306.7367 
  20   2.0000     -11.265342      -306.5455 
  21   2.0000     -11.246057      -306.0208 
  22   2.0000     -11.242342      -305.9197 
  23   2.0000     -11.233386      -305.6760 
  24   2.0000     -11.227596      -305.5184 
  25   2.0000     -11.226721      -305.4946 
  26   2.0000     -11.223684      -305.4120 
  27   2.0000     -11.219460      -305.2970 
  28   2.0000     -11.219180      -305.2894 
  29   2.0000     -11.209685      -305.0310 
  30   2.0000     -11.208227      -304.9914 
  31   2.0000     -11.193562      -304.5923 
  32   2.0000     -11.192365      -304.5597 
  33   2.0000     -11.191653      -304.5404 
  34   2.0000     -11.190801      -304.5172 
  35   2.0000     -11.190035      -304.4963 
  36   2.0000     -11.186437      -304.3984 
  37   2.0000     -11.181125      -304.2539 
  38   2.0000     -11.180980      -304.2499 
  39   2.0000     -11.176012      -304.1148 
  40   2.0000     -11.168212      -303.9025 
  41   2.0000     -11.165265      -303.8223 
  42   2.0000     -11.164150      -303.7920 
  43   2.0000     -11.160673      -303.6974 
  44   2.0000     -11.160449      -303.6913 
  45   2.0000     -11.145873      -303.2946 
  46   2.0000     -11.145221      -303.2769 
  47   2.0000     -11.141948      -303.1878 
  48   2.0000     -11.139228      -303.1138 
  49   2.0000     -11.132546      -302.9320 
  50   2.0000     -11.117775      -302.5300 
  51   2.0000     -11.112515      -302.3869 
  52   2.0000      -1.386337       -37.7241 
  53   2.0000      -1.317726       -35.8571 
  54   2.0000      -1.308302       -35.6007 
  55   2.0000      -1.274807       -34.6893 
  56   2.0000      -1.223393       -33.2902 
  57   2.0000      -1.201157       -32.6851 
  58   2.0000      -1.176381       -32.0110 
  59   2.0000      -1.161593       -31.6086 
  60   2.0000      -1.137870       -30.9630 
  61   2.0000      -1.106848       -30.1189 
  62   2.0000      -1.104888       -30.0655 
  63   2.0000      -1.097933       -29.8763 
  64   2.0000      -1.068588       -29.0778 
  65   2.0000      -1.054039       -28.6819 
  66   2.0000      -1.042104       -28.3571 
  67   2.0000      -1.033181       -28.1143 
  68   2.0000      -1.014612       -27.6090 
  69   2.0000      -1.004211       -27.3260 
  70   2.0000      -1.001816       -27.2608 
  71   2.0000      -0.993520       -27.0351 
  72   2.0000      -0.984798       -26.7977 
  73   2.0000      -0.977367       -26.5955 
  74   2.0000      -0.963907       -26.2292 
  75   2.0000      -0.962010       -26.1776 
  76   2.0000      -0.951058       -25.8796 
  77   2.0000      -0.941034       -25.6068 
  78   2.0000      -0.930605       -25.3231 
  79   2.0000      -0.920638       -25.0518 
  80   2.0000      -0.913261       -24.8511 
  81   2.0000      -0.890011       -24.2184 
  82   2.0000      -0.885210       -24.0878 
  83   2.0000      -0.869071       -23.6486 
  84   2.0000      -0.860626       -23.4188 
  85   2.0000      -0.847256       -23.0550 
  86   2.0000      -0.830259       -22.5925 
  87   2.0000      -0.827836       -22.5266 
  88   2.0000      -0.820794       -22.3349 
  89   2.0000      -0.794554       -21.6209 
  90   2.0000      -0.786571       -21.4037 
  91   2.0000      -0.769135       -20.9292 
  92   2.0000      -0.735762       -20.0211 
  93   2.0000      -0.733461       -19.9585 
  94   2.0000      -0.728235       -19.8163 
  95   2.0000      -0.722638       -19.6640 
  96   2.0000      -0.716406       -19.4944 
  97   2.0000      -0.708069       -19.2675 
  98   2.0000      -0.705323       -19.1928 
  99   2.0000      -0.703197       -19.1350 
 100   2.0000      -0.695695       -18.9308 
 101   2.0000      -0.688693       -18.7403 
 102   2.0000      -0.684166       -18.6171 
 103   2.0000      -0.674725       -18.3602 
 104   2.0000      -0.673142       -18.3171 
 105   2.0000      -0.667685       -18.1686 
 106   2.0000      -0.667034       -18.1509 
 107   2.0000      -0.662768       -18.0348 
 108   2.0000      -0.652428       -17.7535 
 109   2.0000      -0.649711       -17.6795 
 110   2.0000      -0.648391       -17.6436 
 111   2.0000      -0.642614       -17.4864 
 112   2.0000      -0.640366       -17.4253 
 113   2.0000      -0.635489       -17.2925 
 114   2.0000      -0.630986       -17.1700 
 115   2.0000      -0.630175       -17.1479 
 116   2.0000      -0.626648       -17.0520 
 117   2.0000      -0.616841       -16.7851 
 118   2.0000      -0.611402       -16.6371 
 119   2.0000      -0.609847       -16.5948 
 120   2.0000      -0.609034       -16.5727 
 121   2.0000      -0.601300       -16.3622 
 122   2.0000      -0.589770       -16.0484 
 123   2.0000      -0.588929       -16.0256 
 124   2.0000      -0.584746       -15.9118 
 125   2.0000      -0.578780       -15.7494 
 126   2.0000      -0.575462       -15.6591 
 127   2.0000      -0.572365       -15.5748 
 128   2.0000      -0.571308       -15.5461 
 129   2.0000      -0.566450       -15.4139 
 130   2.0000      -0.556432       -15.1413 
 131   2.0000      -0.545173       -14.8349 
 132   2.0000      -0.541546       -14.7362 
 133   2.0000      -0.539288       -14.6748 
 134   2.0000      -0.533698       -14.5227 
 135   2.0000      -0.529714       -14.4142 
 136   2.0000      -0.518808       -14.1175 
 137   2.0000      -0.515946       -14.0396 
 138   2.0000      -0.513317       -13.9681 
 139   2.0000      -0.512762       -13.9530 
 140   2.0000      -0.510080       -13.8800 
 141   2.0000      -0.502998       -13.6873 
 142   2.0000      -0.501540       -13.6476 
 143   2.0000      -0.498461       -13.5638 
 144   2.0000      -0.495193       -13.4749 
 145   2.0000      -0.493507       -13.4290 
 146   2.0000      -0.489343       -13.3157 
 147   2.0000      -0.474520       -12.9123 
 148   2.0000      -0.471954       -12.8425 
 149   2.0000      -0.465568       -12.6688 
 150   2.0000      -0.462138       -12.5754 
 151   2.0000      -0.460313       -12.5257 
 152   2.0000      -0.451675       -12.2907 
 153   2.0000      -0.441081       -12.0024 
 154   2.0000      -0.433669       -11.8007 
 155   2.0000      -0.431942       -11.7537 
 156   2.0000      -0.418976       -11.4009 
 157   2.0000      -0.415072       -11.2947 
 158   2.0000      -0.412312       -11.2196 
 159   2.0000      -0.406343       -11.0572 
 160   2.0000      -0.381900       -10.3920 
 161   2.0000      -0.369808       -10.0630 
 162   2.0000      -0.354000        -9.6328 
 163   2.0000      -0.352522        -9.5926 
 164   2.0000      -0.346203        -9.4207 
 165   2.0000      -0.340929        -9.2771 
 166   2.0000      -0.338465        -9.2101 
 167   2.0000      -0.319319        -8.6891 
 168   2.0000      -0.312779        -8.5112 
 169   2.0000      -0.303706        -8.2643 
 170   2.0000      -0.298187        -8.1141 
 171   2.0000      -0.282832        -7.6962 
 172   2.0000      -0.276450        -7.5226 
 173   2.0000      -0.265852        -7.2342 
 174   2.0000      -0.230012        -6.2590 
 175   2.0000      -0.183283        -4.9874 
 176   2.0000      -0.173388        -4.7181 
 177   2.0000      -0.062407        -1.6982 
 178   2.0000      -0.050911        -1.3854 
 179   0.0000       0.035406         0.9635 
 180   0.0000       0.055847         1.5197 
 181   0.0000       0.077936         2.1207 
 182   0.0000       0.098386         2.6772 
 183   0.0000       0.102197         2.7809 
 184   0.0000       0.126252         3.4355 
 185   0.0000       0.140663         3.8276 
 186   0.0000       0.148597         4.0435 
 187   0.0000       0.162618         4.4251 
 188   0.0000       0.166742         4.5373 
 189   0.0000       0.167203         4.5498 
 190   0.0000       0.168991         4.5985 
 191   0.0000       0.172804         4.7022 
 192   0.0000       0.177822         4.8388 
 193   0.0000       0.193949         5.2776 
 194   0.0000       0.202838         5.5195 
 195   0.0000       0.205482         5.5915 
 196   0.0000       0.211610         5.7582 
 197   0.0000       0.212148         5.7728 
 198   0.0000       0.217446         5.9170 
 199   0.0000       0.220101         5.9893 
 200   0.0000       0.232382         6.3234 
 201   0.0000       0.234962         6.3936 
 202   0.0000       0.238041         6.4774 
 203   0.0000       0.240293         6.5387 
 204   0.0000       0.241242         6.5645 
 205   0.0000       0.246541         6.7087 
 206   0.0000       0.249713         6.7950 
 207   0.0000       0.251900         6.8545 
 208   0.0000       0.252413         6.8685 
 209   0.0000       0.258231         7.0268 
 210   0.0000       0.263694         7.1755 
 211   0.0000       0.266680         7.2567 
 212   0.0000       0.267029         7.2662 
 213   0.0000       0.273734         7.4487 
 214   0.0000       0.278822         7.5871 
 215   0.0000       0.280785         7.6405 
 216   0.0000       0.283705         7.7200 
 217   0.0000       0.285253         7.7621 
 218   0.0000       0.287959         7.8358 
 219   0.0000       0.288717         7.8564 
 220   0.0000       0.290832         7.9139 
 221   0.0000       0.294272         8.0075 
 222   0.0000       0.298389         8.1196 
 223   0.0000       0.299217         8.1421 
 224   0.0000       0.300301         8.1716 
 225   0.0000       0.305036         8.3005 
 226   0.0000       0.305707         8.3187 
 227   0.0000       0.306298         8.3348 
 228   0.0000       0.316646         8.6164 
 229   0.0000       0.319308         8.6888 
 230   0.0000       0.326894         8.8952 
 231   0.0000       0.328875         8.9491 
 232   0.0000       0.331554         9.0220 
 233   0.0000       0.335499         9.1294 
 234   0.0000       0.339471         9.2375 
 235   0.0000       0.357097         9.7171 
 236   0.0000       0.358188         9.7468 
 237   0.0000       0.361337         9.8325 
 238   0.0000       0.377877        10.2826 
 239   0.0000       0.390272        10.6198 
 240   0.0000       0.396662        10.7937 
 241   0.0000       0.399424        10.8689 
 242   0.0000       0.407698        11.0940 
 243   0.0000       0.418906        11.3990 
 244   0.0000       0.424087        11.5400 
 245   0.0000       0.429504        11.6874 
 246   0.0000       0.436453        11.8765 
 247   0.0000       0.438313        11.9271 
 248   0.0000       0.442919        12.0525 
 249   0.0000       0.444907        12.1065 
 250   0.0000       0.451308        12.2807 
 251   0.0000       0.456272        12.4158 
 252   0.0000       0.461287        12.5523 
 253   0.0000       0.468531        12.7494 
 254   0.0000       0.470345        12.7987 
 255   0.0000       0.476749        12.9730 
 256   0.0000       0.477528        12.9942 
 257   0.0000       0.483535        13.1577 
 258   0.0000       0.485931        13.2228 
 259   0.0000       0.492808        13.4100 
 260   0.0000       0.501714        13.6523 
 261   0.0000       0.504783        13.7358 
 262   0.0000       0.508262        13.8305 
 263   0.0000       0.509014        13.8510 
 264   0.0000       0.511569        13.9205 
 265   0.0000       0.516582        14.0569 
 266   0.0000       0.521090        14.1796 
 267   0.0000       0.525171        14.2906 
 268   0.0000       0.531408        14.4604 
 269   0.0000       0.541519        14.7355 
 270   0.0000       0.543829        14.7983 
 271   0.0000       0.544424        14.8145 
 272   0.0000       0.547180        14.8895 
 273   0.0000       0.550085        14.9686 
 274   0.0000       0.552552        15.0357 
 275   0.0000       0.559896        15.2355 
 276   0.0000       0.568034        15.4570 
 277   0.0000       0.571172        15.5424 
 278   0.0000       0.578484        15.7414 
 279   0.0000       0.585449        15.9309 
 280   0.0000       0.588000        16.0003 
 281   0.0000       0.593999        16.1635 
 282   0.0000       0.596696        16.2369 
 283   0.0000       0.598188        16.2775 
 284   0.0000       0.601652        16.3718 
 285   0.0000       0.603356        16.4181 
 286   0.0000       0.604579        16.4514 
 287   0.0000       0.607664        16.5354 
 288   0.0000       0.612983        16.6801 
 289   0.0000       0.619845        16.8668 
 290   0.0000       0.626147        17.0383 
 291   0.0000       0.629400        17.1268 
 292   0.0000       0.631164        17.1749 
 293   0.0000       0.636789        17.3279 
 294   0.0000       0.643766        17.5178 
 295   0.0000       0.646927        17.6038 
 296   0.0000       0.651697        17.7336 
 297   0.0000       0.656607        17.8672 
 298   0.0000       0.659625        17.9493 
 299   0.0000       0.663045        18.0424 
 300   0.0000       0.666346        18.1322 
 301   0.0000       0.668493        18.1906 
 302   0.0000       0.669850        18.2276 
 303   0.0000       0.674245        18.3471 
 304   0.0000       0.678002        18.4494 
 305   0.0000       0.679698        18.4955 
 306   0.0000       0.683376        18.5956 
 307   0.0000       0.687481        18.7073 
 308   0.0000       0.691216        18.8089 
 309   0.0000       0.695485        18.9251 
 310   0.0000       0.698813        19.0157 
 311   0.0000       0.700660        19.0659 
 312   0.0000       0.705548        19.1989 
 313   0.0000       0.706784        19.2326 
 314   0.0000       0.714194        19.4342 
 315   0.0000       0.714425        19.4405 
 316   0.0000       0.715149        19.4602 
 317   0.0000       0.717699        19.5296 
 318   0.0000       0.719011        19.5653 
 319   0.0000       0.722807        19.6686 
 320   0.0000       0.725445        19.7404 
 321   0.0000       0.729262        19.8442 
 322   0.0000       0.731344        19.9009 
 323   0.0000       0.736985        20.0544 
 324   0.0000       0.740197        20.1418 
 325   0.0000       0.742988        20.2177 
 326   0.0000       0.745434        20.2843 
 327   0.0000       0.747582        20.3428 
 328   0.0000       0.751121        20.4390 
 329   0.0000       0.754590        20.5334 
 330   0.0000       0.758946        20.6520 
 331   0.0000       0.760807        20.7026 
 332   0.0000       0.761645        20.7254 
 333   0.0000       0.764375        20.7997 
 334   0.0000       0.765498        20.8302 
 335   0.0000       0.767576        20.8868 
 336   0.0000       0.772603        21.0236 
 337   0.0000       0.777284        21.1510 
 338   0.0000       0.782518        21.2934 
 339   0.0000       0.787275        21.4228 
 340   0.0000       0.789861        21.4932 
 341   0.0000       0.791856        21.5475 
 342   0.0000       0.793661        21.5966 
 343   0.0000       0.794857        21.6292 
 344   0.0000       0.797063        21.6892 
 345   0.0000       0.799015        21.7423 
 346   0.0000       0.803966        21.8770 
 347   0.0000       0.807273        21.9670 
 348   0.0000       0.810927        22.0664 
 349   0.0000       0.815370        22.1873 
 350   0.0000       0.816892        22.2288 
 351   0.0000       0.822092        22.3703 
 352   0.0000       0.824265        22.4294 
 353   0.0000       0.825396        22.4602 
 354   0.0000       0.827883        22.5278 
 355   0.0000       0.829021        22.5588 
 356   0.0000       0.830610        22.6021 
 357   0.0000       0.836311        22.7572 
 358   0.0000       0.840029        22.8584 
 359   0.0000       0.840492        22.8709 
 360   0.0000       0.844441        22.9784 
 361   0.0000       0.845589        23.0097 
 362   0.0000       0.848918        23.1002 
 363   0.0000       0.850661        23.1477 
 364   0.0000       0.851394        23.1676 
 365   0.0000       0.857561        23.3354 
 366   0.0000       0.858704        23.3665 
 367   0.0000       0.860292        23.4097 
 368   0.0000       0.862992        23.4832 
 369   0.0000       0.865332        23.5469 
 370   0.0000       0.867843        23.6152 
 371   0.0000       0.869933        23.6721 
 372   0.0000       0.871167        23.7057 
 373   0.0000       0.871328        23.7100 
 374   0.0000       0.874793        23.8043 
 375   0.0000       0.876264        23.8444 
 376   0.0000       0.877975        23.8909 
 377   0.0000       0.879117        23.9220 
 378   0.0000       0.886070        24.1112 
 379   0.0000       0.889721        24.2105 
 380   0.0000       0.890145        24.2221 
 381   0.0000       0.893105        24.3026 
 382   0.0000       0.900912        24.5151 
 383   0.0000       0.903782        24.5932 
 384   0.0000       0.904260        24.6062 
 385   0.0000       0.907455        24.6931 
 386   0.0000       0.909507        24.7489 
 387   0.0000       0.915923        24.9235 
 388   0.0000       0.917232        24.9592 
 389   0.0000       0.918375        24.9902 
 390   0.0000       0.919927        25.0325 
 391   0.0000       0.925515        25.1846 
 392   0.0000       0.927240        25.2315 
 393   0.0000       0.932110        25.3640 
 394   0.0000       0.933361        25.3981 
 395   0.0000       0.935054        25.4441 
 396   0.0000       0.936040        25.4710 
 397   0.0000       0.939473        25.5644 
 398   0.0000       0.940425        25.5903 
 399   0.0000       0.942238        25.6396 
 400   0.0000       0.947390        25.7798 
 401   0.0000       0.948943        25.8220 
 402   0.0000       0.951386        25.8885 
 403   0.0000       0.955681        26.0054 
 404   0.0000       0.959442        26.1077 
 405   0.0000       0.959643        26.1132 
 406   0.0000       0.963249        26.2113 
 407   0.0000       0.966221        26.2922 
 408   0.0000       0.967617        26.3302 
 409   0.0000       0.973636        26.4940 
 410   0.0000       0.980359        26.6769 
 411   0.0000       0.984764        26.7968 
 412   0.0000       0.987768        26.8785 
 413   0.0000       0.995430        27.0870 
 414   0.0000       0.996255        27.1095 
 415   0.0000       0.999087        27.1865 
 416   0.0000       1.004455        27.3326 
 417   0.0000       1.007582        27.4177 
 418   0.0000       1.008745        27.4493 
 419   0.0000       1.011901        27.5352 
 420   0.0000       1.020299        27.7637 
 421   0.0000       1.026937        27.9444 
 422   0.0000       1.033681        28.1279 
 423   0.0000       1.037854        28.2414 
 424   0.0000       1.039542        28.2874 
 425   0.0000       1.045765        28.4567 
 426   0.0000       1.056112        28.7383 
 427   0.0000       1.065416        28.9914 
 428   0.0000       1.067979        29.0612 
 429   0.0000       1.070355        29.1259 
 430   0.0000       1.073641        29.2153 
 431   0.0000       1.082759        29.4634 
 432   0.0000       1.085598        29.5406 
 433   0.0000       1.087682        29.5973 
 434   0.0000       1.094117        29.7724 
 435   0.0000       1.097241        29.8575 
 436   0.0000       1.104435        30.0532 
 437   0.0000       1.111207        30.2375 
 438   0.0000       1.113127        30.2897 
 439   0.0000       1.115105        30.3436 
 440   0.0000       1.116983        30.3946 
 441   0.0000       1.118446        30.4345 
 442   0.0000       1.124134        30.5892 
 443   0.0000       1.128599        30.7107 
 444   0.0000       1.133468        30.8432 
 445   0.0000       1.135648        30.9025 
 446   0.0000       1.141569        31.0637 
 447   0.0000       1.143789        31.1241 
 448   0.0000       1.145859        31.1804 
 449   0.0000       1.148713        31.2581 
 450   0.0000       1.155581        31.4450 
 451   0.0000       1.156702        31.4755 
 452   0.0000       1.158297        31.5189 
 453   0.0000       1.160159        31.5695 
 454   0.0000       1.165181        31.7062 
 455   0.0000       1.168240        31.7894 
 456   0.0000       1.174420        31.9576 
 457   0.0000       1.177256        32.0348 
 458   0.0000       1.185144        32.2494 
 459   0.0000       1.187127        32.3034 
 460   0.0000       1.190077        32.3836 
 461   0.0000       1.191226        32.4149 
 462   0.0000       1.198647        32.6168 
 463   0.0000       1.201311        32.6893 
 464   0.0000       1.204798        32.7842 
 465   0.0000       1.209671        32.9168 
 466   0.0000       1.210965        32.9520 
 467   0.0000       1.213409        33.0185 
 468   0.0000       1.218514        33.1574 
 469   0.0000       1.222734        33.2723 
 470   0.0000       1.227614        33.4051 
 471   0.0000       1.229757        33.4634 
 472   0.0000       1.232880        33.5484 
 473   0.0000       1.238148        33.6917 
 474   0.0000       1.239073        33.7169 
 475   0.0000       1.242702        33.8156 
 476   0.0000       1.245755        33.8987 
 477   0.0000       1.249396        33.9978 
 478   0.0000       1.257111        34.2077 
 479   0.0000       1.257747        34.2250 
 480   0.0000       1.259216        34.2650 
 481   0.0000       1.263798        34.3897 
 482   0.0000       1.264901        34.4197 
 483   0.0000       1.269433        34.5430 
 484   0.0000       1.276528        34.7361 
 485   0.0000       1.281578        34.8735 
 486   0.0000       1.284209        34.9451 
 487   0.0000       1.285600        34.9830 
 488   0.0000       1.288818        35.0705 
 489   0.0000       1.292274        35.1646 
 490   0.0000       1.296200        35.2714 
 491   0.0000       1.299684        35.3662 
 492   0.0000       1.302374        35.4394 
 493   0.0000       1.305314        35.5194 
 494   0.0000       1.311939        35.6997 
 495   0.0000       1.314292        35.7637 
 496   0.0000       1.318568        35.8801 
 497   0.0000       1.321839        35.9691 
 498   0.0000       1.326201        36.0878 
 499   0.0000       1.330848        36.2142 
 500   0.0000       1.332863        36.2691 
 501   0.0000       1.337734        36.4016 
 502   0.0000       1.339895        36.4604 
[...]
      pz      :     0.021754  p :     0.079255
      px      :     0.042827
      py      :     0.014674
 77 H s       :     0.895936  s :     0.895936
      pz      :     0.047094  p :     0.078310
      px      :     0.015002
      py      :     0.016213
 78 H s       :     0.896341  s :     0.896341
      pz      :     0.025431  p :     0.078220
      px      :     0.020715
      py      :     0.032074
 79 H s       :     0.907057  s :     0.907057
      pz      :     0.022627  p :     0.087301
      px      :     0.021905
      py      :     0.042768
 80 H s       :     0.880264  s :     0.880264
      pz      :     0.038115  p :     0.083139
      px      :     0.029463
      py      :     0.015561
 81 H s       :     0.888833  s :     0.888833
      pz      :     0.037540  p :     0.083270
      px      :     0.016072
      py      :     0.029658
 82 H s       :     0.914261  s :     0.914261
      pz      :     0.022531  p :     0.087165
      px      :     0.030886
      py      :     0.033748
 83 H s       :     0.872282  s :     0.872282
      pz      :     0.039162  p :     0.083621
      px      :     0.015246
      py      :     0.029213
 84 H s       :     0.888895  s :     0.888895
      pz      :     0.035807  p :     0.084470
      px      :     0.031801
      py      :     0.016862
 85 H s       :     0.896245  s :     0.896245
      pz      :     0.022508  p :     0.079593
      px      :     0.014160
      py      :     0.042925
 86 H s       :     0.890796  s :     0.890796
      pz      :     0.024696  p :     0.078888
      px      :     0.032990
      py      :     0.021203
 87 H s       :     0.891396  s :     0.891396
      pz      :     0.047795  p :     0.078577
      px      :     0.015661
      py      :     0.015122
 88 H s       :     0.918630  s :     0.918630
      pz      :     0.022590  p :     0.086835
      px      :     0.041930
      py      :     0.022314
 89 H s       :     0.875492  s :     0.875492
      pz      :     0.037796  p :     0.084037
      px      :     0.030463
      py      :     0.015778


                      *****************************
                      * MAYER POPULATION ANALYSIS *
                      *****************************

  NA   - Mulliken gross atomic population
  ZA   - Total nuclear charge
  QA   - Mulliken gross atomic charge
  VA   - Mayer's total valence
  BVA  - Mayer's bonded valence
  FA   - Mayer's free valence

  ATOM       NA         ZA         QA         VA         BVA        FA
  0 C      5.7654     6.0000     0.2346     3.8012     3.8012     0.0000
  1 N      7.4133     7.0000    -0.4133     3.4770     3.4770     0.0000
  2 C      6.0668     6.0000    -0.0668     3.9201     3.9201     0.0000
  3 N      7.3440     7.0000    -0.3440     3.4208     3.4208     0.0000
  4 C      6.0711     6.0000    -0.0711     3.9563     3.9563    -0.0000
  5 N      7.5657     7.0000    -0.5657     3.0669     3.0669    -0.0000
  6 C      6.0288     6.0000    -0.0288     3.9615     3.9615     0.0000
  7 N      7.3369     7.0000    -0.3369     3.4454     3.4454    -0.0000
  8 C      5.7649     6.0000     0.2351     3.8008     3.8008    -0.0000
  9 N      7.5662     7.0000    -0.5662     3.0923     3.0923    -0.0000
 10 C      5.8962     6.0000     0.1038     3.8597     3.8597     0.0000
 11 N      7.4399     7.0000    -0.4399     3.3723     3.3723     0.0000
 12 C      6.0582     6.0000    -0.0582     3.9089     3.9089    -0.0000
 13 N      7.4512     7.0000    -0.4512     3.3165     3.3165     0.0000
 14 C      5.7809     6.0000     0.2191     3.8115     3.8115    -0.0000
 15 N      7.4417     7.0000    -0.4417     3.3629     3.3629    -0.0000
 16 C      5.7431     6.0000     0.2569     3.8059     3.8059    -0.0000
 17 C      6.0288     6.0000    -0.0288     3.9613     3.9613     0.0000
 18 C      6.1738     6.0000    -0.1738     3.6742     3.6742    -0.0000
 19 C      5.7717     6.0000     0.2283     3.9030     3.9030    -0.0000
 20 C      5.8125     6.0000     0.1875     3.8209     3.8209     0.0000
 21 C      6.0665     6.0000    -0.0665     3.8903     3.8903    -0.0000
 22 C      6.0914     6.0000    -0.0914     3.9850     3.9850     0.0000
 23 C      6.0680     6.0000    -0.0680     3.9883     3.9883     0.0000
 24 C      5.7826     6.0000     0.2174     3.8305     3.8305     0.0000
 25 C      5.8850     6.0000     0.1150     3.8939     3.8939    -0.0000
 26 C      6.0659     6.0000    -0.0659     3.9090     3.9090     0.0000
 27 C      5.7519     6.0000     0.2481     3.9030     3.9030     0.0000
 28 C      6.0394     6.0000    -0.0394     3.9909     3.9909     0.0000
 29 C      6.1970     6.0000    -0.1970     3.7284     3.7284    -0.0000
 30 C      5.7796     6.0000     0.2204     3.7781     3.7781    -0.0000
 31 C      5.8125     6.0000     0.1875     3.8338     3.8338    -0.0000
 32 C      6.0643     6.0000    -0.0643     3.9132     3.9132    -0.0000
 33 C      6.1030     6.0000    -0.1030     3.9843     3.9843    -0.0000
 34 C      6.0503     6.0000    -0.0503     3.9997     3.9997     0.0000
 35 C      5.8223     6.0000     0.1777     3.8299     3.8299     0.0000
 36 C      5.8788     6.0000     0.1212     3.9109     3.9109     0.0000
 37 C      6.0706     6.0000    -0.0706     3.9135     3.9135    -0.0000
 38 C      5.7551     6.0000     0.2449     3.7944     3.7944    -0.0000
 39 C      6.0656     6.0000    -0.0656     3.9991     3.9991    -0.0000
 40 C      6.2046     6.0000    -0.2046     3.7530     3.7530    -0.0000
 41 C      5.7842     6.0000     0.2158     3.8735     3.8735     0.0000
 42 C      5.7878     6.0000     0.2122     3.8328     3.8328    -0.0000
 43 C      6.0776     6.0000    -0.0776     3.9051     3.9051     0.0000
 44 C      6.0923     6.0000    -0.0923     3.9831     3.9831    -0.0000
 45 C      6.0380     6.0000    -0.0380     3.9962     3.9962    -0.0000
 46 C      5.8164     6.0000     0.1836     3.8199     3.8199    -0.0000
 47 C      5.8832     6.0000     0.1168     3.8973     3.8973     0.0000
 48 C      6.0826     6.0000    -0.0826     3.8972     3.8972    -0.0000
 49 C      5.7929     6.0000     0.2071     3.8621     3.8621    -0.0000
 50 C      6.0678     6.0000    -0.0678     3.9902     3.9902    -0.0000
 51 C      6.1889     6.0000    -0.1889     3.7423     3.7423    -0.0000
 52 H      0.9176     1.0000     0.0824     0.9821     0.9821    -0.0000
 53 H      1.0069     1.0000    -0.0069     1.0025     1.0025     0.0000
 54 H      0.9329     1.0000     0.0671     1.0050     1.0050     0.0000
 55 H      0.9194     1.0000     0.0806     0.9828     0.9828    -0.0000
 56 H      0.9149     1.0000     0.0851     0.9727     0.9727     0.0000
 57 H      0.9238     1.0000     0.0762     0.9846     0.9846     0.0000
 58 H      0.9251     1.0000     0.0749     0.9871     0.9871    -0.0000
 59 H      1.0296     1.0000    -0.0296     0.9962     0.9962     0.0000
 60 H      0.9321     1.0000     0.0679     1.0044     1.0044     0.0000
 61 H      0.8228     1.0000     0.1772     1.0438     1.0438     0.0000
 62 H      0.8323     1.0000     0.1677     1.0433     1.0433    -0.0000
 63 H      0.9476     1.0000     0.0524     0.9863     0.9863    -0.0000
 64 H      1.0349     1.0000    -0.0349     0.9928     0.9928    -0.0000
 65 H      0.9599     1.0000     0.0401     1.0077     1.0077     0.0000
 66 H      0.9455     1.0000     0.0545     0.9847     0.9847    -0.0000
 67 H      0.9421     1.0000     0.0579     0.9716     0.9716    -0.0000
 68 H      0.9443     1.0000     0.0557     0.9864     0.9864     0.0000
 69 H      0.9412     1.0000     0.0588     0.9830     0.9830     0.0000
 70 H      1.0131     1.0000    -0.0131     0.9983     0.9983     0.0000
 71 H      0.9536     1.0000     0.0464     1.0076     1.0076     0.0000
 72 H      0.9630     1.0000     0.0370     0.9860     0.9860    -0.0000
 73 H      1.0193     1.0000    -0.0193     0.9962     0.9962    -0.0000
 74 H      0.9711     1.0000     0.0289     1.0091     1.0091     0.0000
 75 H      0.9644     1.0000     0.0356     0.9868     0.9868    -0.0000
 76 H      0.9542     1.0000     0.0458     0.9701     0.9701     0.0000
 77 H      0.9543     1.0000     0.0457     0.9842     0.9842    -0.0000
 78 H      0.9550     1.0000     0.0450     0.9835     0.9835    -0.0000
 79 H      1.0116     1.0000    -0.0116     1.0020     1.0020    -0.0000
 80 H      0.9714     1.0000     0.0286     1.0062     1.0062    -0.0000
 81 H      0.9498     1.0000     0.0502     0.9852     0.9852    -0.0000
 82 H      1.0232     1.0000    -0.0232     0.9952     0.9952     0.0000
 83 H      0.9574     1.0000     0.0426     1.0108     1.0108     0.0000
 84 H      0.9509     1.0000     0.0491     0.9864     0.9864     0.0000
 85 H      0.9460     1.0000     0.0540     0.9713     0.9713     0.0000
 86 H      0.9437     1.0000     0.0563     0.9841     0.9841    -0.0000
 87 H      0.9457     1.0000     0.0543     0.9852     0.9852    -0.0000
 88 H      1.0309     1.0000    -0.0309     0.9909     0.9909     0.0000
 89 H      0.9612     1.0000     0.0388     1.0058     1.0058     0.0000

  Mayer bond orders larger than 0.100000
B(  0-C ,  1-N ) :   1.2025 B(  0-C , 17-C ) :   1.5193 B(  0-C , 52-H ) :   0.9667 
B(  1-N ,  8-C ) :   1.2020 B(  1-N , 10-C ) :   0.9264 B(  2-C , 12-C ) :   1.5792 
B(  2-C , 16-C ) :   1.2736 B(  2-C , 53-H ) :   0.9793 B(  3-N , 14-C ) :   1.1753 
B(  3-N , 16-C ) :   1.2021 B(  3-N , 61-H ) :   0.8954 B(  4-C ,  6-C ) :   1.3550 
B(  4-C , 17-C ) :   1.3587 B(  4-C , 18-C ) :   1.0579 B(  5-N , 19-C ) :   1.3657 
B(  5-N , 27-C ) :   1.4476 B(  6-C ,  8-C ) :   1.5204 B(  6-C , 54-H ) :   0.9707 
B(  7-N , 30-C ) :   1.1837 B(  7-N , 38-C ) :   1.2156 B(  7-N , 62-H ) :   0.9014 
B(  8-C , 55-H ) :   0.9677 B(  9-N , 41-C ) :   1.4338 B(  9-N , 49-C ) :   1.3939 
B( 10-C , 56-H ) :   0.9767 B( 10-C , 57-H ) :   0.9809 B( 10-C , 58-H ) :   0.9815 
B( 11-N , 20-C ) :   1.0974 B( 11-N , 24-C ) :   1.1345 B( 11-N , 25-C ) :   0.9622 
B( 12-C , 14-C ) :   1.2743 B( 12-C , 59-H ) :   0.9769 B( 13-N , 31-C ) :   1.0832 
B( 13-N , 35-C ) :   1.0726 B( 13-N , 36-C ) :   0.9819 B( 14-C , 18-C ) :   1.2622 
B( 15-N , 42-C ) :   1.1261 B( 15-N , 46-C ) :   1.0900 B( 15-N , 47-C ) :   0.9663 
B( 16-C , 51-C ) :   1.2473 B( 17-C , 60-H ) :   0.9707 B( 18-C , 19-C ) :   1.3088 
B( 19-C , 21-C ) :   1.1641 B( 20-C , 28-C ) :   1.6288 B( 20-C , 63-H ) :   0.9709 
B( 21-C , 26-C ) :   1.6811 B( 21-C , 64-H ) :   0.9719 B( 22-C , 23-C ) :   1.2560 
B( 22-C , 28-C ) :   1.2799 B( 22-C , 29-C ) :   1.2558 B( 23-C , 24-C ) :   1.6344 
B( 23-C , 65-H ) :   0.9722 B( 24-C , 66-H ) :   0.9690 B( 25-C , 67-H ) :   0.9762 
B( 25-C , 68-H ) :   0.9834 B( 25-C , 69-H ) :   0.9819 B( 26-C , 27-C ) :   1.1730 
B( 26-C , 70-H ) :   0.9757 B( 27-C , 29-C ) :   1.2416 B( 28-C , 71-H ) :   0.9709 
B( 29-C , 30-C ) :   1.1770 B( 30-C , 32-C ) :   1.3493 B( 31-C , 39-C ) :   1.6836 
B( 31-C , 72-H ) :   0.9708 B( 32-C , 37-C ) :   1.5106 B( 32-C , 73-H ) :   0.9771 
B( 33-C , 34-C ) :   1.2335 B( 33-C , 39-C ) :   1.2256 B( 33-C , 40-C ) :   1.3554 
B( 34-C , 35-C ) :   1.6821 B( 34-C , 74-H ) :   0.9709 B( 35-C , 75-H ) :   0.9709 
B( 36-C , 76-H ) :   0.9755 B( 36-C , 77-H ) :   0.9826 B( 36-C , 78-H ) :   0.9838 
B( 37-C , 38-C ) :   1.3432 B( 37-C , 79-H ) :   0.9793 B( 38-C , 40-C ) :   1.1797 
B( 39-C , 80-H ) :   0.9721 B( 40-C , 41-C ) :   1.1690 B( 41-C , 43-C ) :   1.2563 
B( 42-C , 50-C ) :   1.6418 B( 42-C , 81-H ) :   0.9696 B( 43-C , 48-C ) :   1.5947 
B( 43-C , 82-H ) :   0.9755 B( 44-C , 45-C ) :   1.2807 B( 44-C , 50-C ) :   1.2495 
B( 44-C , 51-C ) :   1.2477 B( 45-C , 46-C ) :   1.6329 B( 45-C , 83-H ) :   0.9702 
B( 46-C , 84-H ) :   0.9709 B( 47-C , 85-H ) :   0.9760 B( 47-C , 86-H ) :   0.9826 
B( 47-C , 87-H ) :   0.9830 B( 48-C , 49-C ) :   1.2507 B( 48-C , 88-H ) :   0.9726 
B( 49-C , 51-C ) :   1.1890 B( 50-C , 89-H ) :   0.9722 

-------
TIMINGS
-------

Total SCF time: 0 days 0 hours 32 min 19 sec 

Total time                  ....    1939.561 sec
Sum of individual times     ....    1934.645 sec  ( 99.7%)

Fock matrix formation       ....    1906.119 sec  ( 98.3%)
Diagonalization             ....       7.363 sec  (  0.4%)
Density matrix formation    ....       0.576 sec  (  0.0%)
Population analysis         ....       0.585 sec  (  0.0%)
Initial guess               ....       2.522 sec  (  0.1%)
Orbital Transformation      ....       0.000 sec  (  0.0%)
Orbital Orthonormalization  ....       0.000 sec  (  0.0%)
DIIS solution               ....       3.237 sec  (  0.2%)
SOSCF solution              ....      12.949 sec  (  0.7%)

Maximum memory used throughout the entire SCF-calculation: 302.6 MB


           ************************************************************
           *        Program running with 16 parallel MPI-processes    *
           *              working on a common directory               *
           ************************************************************

------------------------------------------------------------------------------
                                ORCA  MP2 
------------------------------------------------------------------------------

Freezing NCore=104 chemical core electrons

----------
MP2 ENERGY (disk based algorithm)
----------

Dimension of the basis                    ...  918
Memory devoted to MP2                     ... 2000 MB   
Data format for buffers                   ... DOUBLE
Compression type for matrix containers    ... UNCOMPRESSED

-------------------------------
PARTIAL EXCHANGE TRANSFORMATION
-------------------------------

Transformation type                        ... one-operator
Generation of integrals (i,mue|j,nue)      ... ON
Generation of integrals (mue,kappa|nue,tau)... OFF
Generation of integrals (i,mue|a,nue)      ... OFF
Dimension of the basis                     ...  918
Number of internal MOs                     ...  127 (  52- 178)
Pair cutoff                                ... 2.500e-12 Eh
Number of AO pairs in the trafo            ... 421821
Total Number of distinct AO pairs          ... 421821
Memory devoted for trafo                   ... 2000.0 MB 
Max. Number of MO pairs treated together   ...  311      
Number Format for Storage                  ... Double (8 Byte)
Integral package used                      ... LIBINT

Starting integral evaluation:
    ... done with AO integral generation
Closing buffer AOK     (37.74 GB; CompressionRatio= 1.34)
Collecting buffer AOK 
Number of MO pairs included in the trafo   ... 8128
------------------------
SORTING OF (i,mue|j,nue)
------------------------

IBATCH = 1 of  2
IBATCH = 2 of  2
Closing buffer KAO     (51.03 GB; CompressionRatio= 1.00)
Collecting buffer KAO 
N(AO-Batches) Done                         ...  85551250 
N(AO-Batches) Skipped                      ...  81939686 
N(IJ)-pairs Skipped                        ...         0 
TOTAL TIME for half transformation         ...  2221.221 sec
AO-integral generation                     ...   211.039 sec
Half transformation                        ...   423.986 sec
K-integral sorting                         ...  1368.725 sec

Finished integral transformation - now doing MP2 part

OPERATOR COMBINATION   0   0: ij=( 52..178, 52..178)
Process 10:   Internal MO 132
Process 13:   Internal MO 156
Process  1:   Internal MO  60
Process  7:   Internal MO 108
Process  4:   Internal MO  84
Process  0:   Internal MO  54
Process  2:   Internal MO  69
Process  0:   Internal MO  57
Process  1:   Internal MO  63
Process  8:   Internal MO 117
Process  3:   Internal MO  78
Process  5:   Internal MO  93
Process  2:   Internal MO  72
Process  1:   Internal MO  66
Process  6:   Internal MO 102
Process 14:   Internal MO 165
Process  4:   Internal MO  87
Process 11:   Internal MO 141
Process  2:   Internal MO  75
Process  9:   Internal MO 126
Process  3:   Internal MO  81
Process  7:   Internal MO 111
Process 12:   Internal MO 150
Process  5:   Internal MO  96
Process  4:   Internal MO  90
Process  6:   Internal MO 105
Process 15:   Internal MO 174
Process 10:   Internal MO 135
Process  8:   Internal MO 120
Process  7:   Internal MO 114
Process  5:   Internal MO  99
Process  9:   Internal MO 129
Process 13:   Internal MO 159
Process 11:   Internal MO 144
Process 12:   Internal MO 153
Process 14:   Internal MO 168
Process  8:   Internal MO 123
Process 10:   Internal MO 138
Process 15:   Internal MO 177
Process 11:   Internal MO 147
Process 13:   Internal MO 162
Process 14:   Internal MO 171
-----------------------------------------------
 MP2 CORRELATION ENERGY   :     -7.263081394 Eh
-----------------------------------------------


-------
TIMINGS
-------
Total time                : 2506.673 sec
Integral trafo            : 2223.164 sec ( 88.7%)
K(i,j)                    :    6.120 sec (  0.2%)
T(i,j)                    :    0.145 sec (  0.0%)

---------------------------------------
MP2 TOTAL ENERGY:    -2130.874148769 Eh
---------------------------------------

Maximum memory used throughout the entire MP2-calculation: 2275.2 MB

-------------------------   --------------------
FINAL SINGLE POINT ENERGY     -2130.874148768836
-------------------------   --------------------


                            ***************************************
                            *     ORCA property calculations      *
                            ***************************************


  WARNING: The energy has been calculated at the MP2 level but the densities
           used in the property calculations are still SCF densities
           MP2 response densities have not been calculated 
           use %mp2 Density relaxed end
           or  %mp2 Density unrelaxed end

                                    ---------------------
                                    Active property flags
                                    ---------------------
   (+) Dipole Moment


------------------------------------------------------------------------------
                       ORCA ELECTRIC PROPERTIES CALCULATION
------------------------------------------------------------------------------

Dipole Moment Calculation                       ... on
Quadrupole Moment Calculation                   ... off
Polarizability Calculation                      ... off
GBWName                                         ... /scratch/allen/tmpyp4_amber_gaff2/conf1/conf1/Conf277.orca.gbw
Electron density                                ... /scratch/allen/tmpyp4_amber_gaff2/conf1/conf1/Conf277.orca.scfp
The origin for moment calculation is the CENTER OF MASS  = ( 0.000079, -0.003983 -0.001540)

-------------
DIPOLE MOMENT
-------------
                                X             Y             Z
Electronic contribution:     -4.49421       5.07158      -0.05983
Nuclear contribution   :      0.05103       0.22229       0.08440
                        -----------------------------------------
Total Dipole Moment    :     -4.44318       5.29387       0.02457
                        -----------------------------------------
Magnitude (a.u.)       :      6.91141
Magnitude (Debye)      :     17.56740



--------------------
Rotational spectrum 
--------------------
 
Rotational constants in cm-1:     0.001498     0.001472     0.000763 
Rotational constants in MHz :    44.917132    44.124315    22.867905 

 Dipole components along the rotational axes: 
x,y,z [a.u.] :     6.120207     3.210902     0.026778 
x,y,z [Debye]:    15.556329     8.161464     0.068064 

 

Timings for individual modules:

Sum of individual times         ...     4468.824 sec (=  74.480 min)
GTO integral calculation        ...        3.422 sec (=   0.057 min)   0.1 %
SCF iterations                  ...     1940.754 sec (=  32.346 min)  43.4 %
MP2 module                      ...     2524.648 sec (=  42.077 min)  56.5 %
                             ****ORCA TERMINATED NORMALLY****
TOTAL RUN TIME: 0 days 1 hours 14 minutes 32 seconds 187 msec
# of primitive gaussian functions

