
                                 *****************
                                 * O   R   C   A *
                                 *****************

                                            #,                                       
                                            ###                                      
                                            ####                                     
                                            #####                                    
                                            ######                                   
                                           ########,                                 
                                     ,,################,,,,,                         
                               ,,#################################,,                 
                          ,,##########################################,,             
                       ,#########################################, ''#####,          
                    ,#############################################,,   '####,        
                  ,##################################################,,,,####,       
                ,###########''''           ''''###############################       
              ,#####''   ,,,,##########,,,,          '''####'''          '####       
            ,##' ,,,,###########################,,,                        '##       
           ' ,,###''''                  '''############,,,                           
         ,,##''                                '''############,,,,        ,,,,,,###''
      ,#''                                            '''#######################'''  
     '                                                          ''''####''''         
             ,#######,   #######,   ,#######,      ##                                
            ,#'     '#,  ##    ##  ,#'     '#,    #''#        ######   ,####,        
            ##       ##  ##   ,#'  ##            #'  '#       #        #'  '#        
            ##       ##  #######   ##           ,######,      #####,   #    #        
            '#,     ,#'  ##    ##  '#,     ,#' ,#      #,         ##   #,  ,#        
             '#######'   ##     ##  '#######'  #'      '#     #####' # '####'        



                  #######################################################
                  #                        -***-                        #
                  #          Department of theory and spectroscopy      #
                  #    Directorship and core code : Frank Neese         #
                  #        Max Planck Institute fuer Kohlenforschung    #
                  #                Kaiser Wilhelm Platz 1               #
                  #                 D-45470 Muelheim/Ruhr               #
                  #                      Germany                        #
                  #                                                     #
                  #                  All rights reserved                #
                  #                        -***-                        #
                  #######################################################


                         Program Version 5.0.4 -  RELEASE  -


 With contributions from (in alphabetic order):
   Daniel Aravena         : Magnetic Suceptibility
   Michael Atanasov       : Ab Initio Ligand Field Theory (pilot matlab implementation)
   Alexander A. Auer      : GIAO ZORA, VPT2 properties, NMR spectrum
   Ute Becker             : Parallelization
   Giovanni Bistoni       : ED, misc. LED, open-shell LED, HFLD
   Martin Brehm           : Molecular dynamics
   Dmytro Bykov           : SCF Hessian
   Vijay G. Chilkuri      : MRCI spin determinant printing, contributions to CSF-ICE
   Dipayan Datta          : RHF DLPNO-CCSD density
   Achintya Kumar Dutta   : EOM-CC, STEOM-CC
   Dmitry Ganyushin       : Spin-Orbit,Spin-Spin,Magnetic field MRCI
   Miquel Garcia          : C-PCM and meta-GGA Hessian, CC/C-PCM, Gaussian charge scheme
   Yang Guo               : DLPNO-NEVPT2, F12-NEVPT2, CIM, IAO-localization
   Andreas Hansen         : Spin unrestricted coupled pair/coupled cluster methods
   Benjamin Helmich-Paris : MC-RPA, TRAH-SCF, COSX integrals
   Lee Huntington         : MR-EOM, pCC
   Robert Izsak           : Overlap fitted RIJCOSX, COSX-SCS-MP3, EOM
   Marcus Kettner         : VPT2
   Christian Kollmar      : KDIIS, OOCD, Brueckner-CCSD(T), CCSD density, CASPT2, CASPT2-K
   Simone Kossmann        : Meta GGA functionals, TD-DFT gradient, OOMP2, MP2 Hessian
   Martin Krupicka        : Initial AUTO-CI
   Lucas Lang             : DCDCAS
   Marvin Lechner         : AUTO-CI (C++ implementation), FIC-MRCC
   Dagmar Lenk            : GEPOL surface, SMD
   Dimitrios Liakos       : Extrapolation schemes; Compound Job, initial MDCI parallelization
   Dimitrios Manganas     : Further ROCIS development; embedding schemes
   Dimitrios Pantazis     : SARC Basis sets
   Anastasios Papadopoulos: AUTO-CI, single reference methods and gradients
   Taras Petrenko         : DFT Hessian,TD-DFT gradient, ASA, ECA, R-Raman, ABS, FL, XAS/XES, NRVS
   Peter Pinski           : DLPNO-MP2, DLPNO-MP2 Gradient
   Christoph Reimann      : Effective Core Potentials
   Marius Retegan         : Local ZFS, SOC
   Christoph Riplinger    : Optimizer, TS searches, QM/MM, DLPNO-CCSD(T), (RO)-DLPNO pert. Triples
   Tobias Risthaus        : Range-separated hybrids, TD-DFT gradient, RPA, STAB
   Michael Roemelt        : Original ROCIS implementation
   Masaaki Saitow         : Open-shell DLPNO-CCSD energy and density
   Barbara Sandhoefer     : DKH picture change effects
   Avijit Sen             : IP-ROCIS
   Kantharuban Sivalingam : CASSCF convergence, NEVPT2, FIC-MRCI
   Bernardo de Souza      : ESD, SOC TD-DFT
   Georgi Stoychev        : AutoAux, RI-MP2 NMR, DLPNO-MP2 response
   Willem Van den Heuvel  : Paramagnetic NMR
   Boris Wezisla          : Elementary symmetry handling
   Frank Wennmohs         : Technical directorship


 We gratefully acknowledge several colleagues who have allowed us to
 interface, adapt or use parts of their codes:
   Stefan Grimme, W. Hujo, H. Kruse, P. Pracht,  : VdW corrections, initial TS optimization,
                  C. Bannwarth, S. Ehlert          DFT functionals, gCP, sTDA/sTD-DF
   Ed Valeev, F. Pavosevic, A. Kumar             : LibInt (2-el integral package), F12 methods
   Garnet Chan, S. Sharma, J. Yang, R. Olivares  : DMRG
   Ulf Ekstrom                                   : XCFun DFT Library
   Mihaly Kallay                                 : mrcc  (arbitrary order and MRCC methods)
   Jiri Pittner, Ondrej Demel                    : Mk-CCSD
   Frank Weinhold                                : gennbo (NPA and NBO analysis)
   Christopher J. Cramer and Donald G. Truhlar   : smd solvation model
   Lars Goerigk                                  : TD-DFT with DH, B97 family of functionals
   V. Asgeirsson, H. Jonsson                     : NEB implementation
   FAccTs GmbH                                   : IRC, NEB, NEB-TS, DLPNO-Multilevel, CI-OPT
                                                   MM, QMMM, 2- and 3-layer-ONIOM, Crystal-QMMM,
                                                   LR-CPCM, SF, NACMEs, symmetry and pop. for TD-DFT,
                                                   nearIR, NL-DFT gradient (VV10), updates on ESD,
                                                   ML-optimized integration grids
   S Lehtola, MJT Oliveira, MAL Marques          : LibXC Library
   Liviu Ungur et al                             : ANISO software


 Your calculation uses the libint2 library for the computation of 2-el integrals
 For citations please refer to: http://libint.valeyev.net

 Your ORCA version has been built with support for libXC version: 5.1.0
 For citations please refer to: https://tddft.org/programs/libxc/

 This ORCA versions uses:
   CBLAS   interface :  Fast vector & matrix operations
   LAPACKE interface :  Fast linear algebra routines
   SCALAPACK package :  Parallel linear algebra routines
   Shared memory     :  Shared parallel matrices
   BLAS/LAPACK       :  OpenBLAS 0.3.15  USE64BITINT DYNAMIC_ARCH NO_AFFINITY Sandybridge SINGLE_THREADED
        Core in use  :  Sandybridge
   Copyright (c) 2011-2014, The OpenBLAS Project


================================================================================

----- Orbital basis set information -----
Your calculation utilizes the basis: cc-pVDZ 
       H, B-Ne : Obtained from the ccRepo (grant-hill.group.shef.ac.uk/ccrepo) Feb. 2017
                 T. H. Dunning, Jr., J. Chem. Phys. 90, 1007 (1989)
            He : Obtained from the ccRepo (grant-hill.group.shef.ac.uk/ccrepo) Feb. 2017
                 D. E. Woon, T. H. Dunning, Jr., J. Chem. Phys. 100, 2975 (1994)
  Li-Be, Na-Mg : Obtained from the ccRepo (grant-hill.group.shef.ac.uk/ccrepo) Feb. 2017
                 B. P. Prascher, D. E. Woon, K. A. Peterson, T. H. Dunning, Jr., A. K. Wilson, Theor. Chem. Acc. 128, 69 (2011)
         Al-Ar : Obtained from the ccRepo (grant-hill.group.shef.ac.uk/ccrepo) Feb. 2017
                 D. E. Woon, T. H. Dunning, Jr., J. Chem. Phys. 98, 1358 (1993)
            Ca : Obtained from the Peterson Research Group Website (tyr0.chem.wsu.edu/~kipeters) Feb. 2017
                 J. Koput, K. A. Peterson, J. Phys. Chem. 106, 9595 (2002)
         Sc-Zn : Obtained from the ccRepo (grant-hill.group.shef.ac.uk/ccrepo) Feb. 2017
                 N. B. Balabanov, K. A. Peterson, J. Chem. Phys. 123, 064107 (2005)
                 N. B. Balabanov, K. A. Peterson, J. Chem. Phys. 125, 074110 (2006)
         Ga-Kr : Obtained from the ccRepo (grant-hill.group.shef.ac.uk/ccrepo) Feb. 2017
                 A. K. Wilson, D. E. Woon, K. A. Peterson, T. H. Dunning, Jr., J. Chem. Phys. 110, 7667 (1999)

================================================================================
                                        WARNINGS
                       Please study these warnings very carefully!
================================================================================


WARNING: No MP2 level density has been requested!
         To caclulate MP2 level properties use
         %mp2 Density relaxed end
         or
         %mp2 Density unrelaxed end

WARNING: Post HF methods need fully converged wavefunctions
  ===> : Setting SCFConvForced true
         You can overwrite this default with %scf ConvForced false 


INFO   : the flag for use of the SHARK integral package has been found!

================================================================================
                                       INPUT FILE
================================================================================
NAME = /scratch/allen/tmpyp4_amber_gaff2/2.Mdgx/conf11/conf11/Conf99.orca
|  1> ! PAL2
|  2> ! mp2 cc-pvdz TightSCF  NoKeepInts
|  3> 
|  4> %scf
|  5>   MaxCore 2000
|  6> end
|  7> %mp2
|  8>   MaxCore 2000
|  9> end
| 10> * xyz 0 1
| 11>    C       -4.11400         5.78000        -1.07200
| 12>    C        1.47400         4.04100         0.05700
| 13>    C       -2.80200         4.09300         0.04900
| 14>    C       -3.07200         4.75700         1.25500
| 15>    C       -3.84900         5.89900         1.26000
| 16>    C       -5.21400         7.60000         0.15000
| 17>    C        0.13200         4.30700         0.06100
| 18>    C       -0.56900         3.05600         0.04700
| 19>    C        1.64900         2.61800         0.02300
| 20>    C       -3.34700         4.63200        -1.12600
| 21>    N       -4.35400         6.39700         0.10700
| 22>    N        0.38800         2.06700         0.02500
| 23>    N       -2.01000         0.39500        -0.07500
| 24>    N       -0.38800        -2.07400        -0.02700
| 25>    N        2.01000        -0.40100         0.06500
| 26>    C       -1.96000         2.86100         0.02400
| 27>    C       -2.62300         1.61500        -0.01800
| 28>    C       -5.57300        -4.32900         1.06600
| 29>    C       -4.07300         1.47100         0.05600
| 30>    C       -4.10600        -2.75600        -0.02600
| 31>    C       -4.99500        -2.75700        -1.11100
| 32>    C       -6.13200        -3.54200        -1.07600
| 33>    C       -7.65100        -5.11300         0.04000
| 34>    C       -4.32400         0.14100         0.03700
| 35>    C       -3.02500        -0.52000        -0.04800
| 36>    C       -4.42200        -3.56600         1.07500
| 37>    N       -6.40700        -4.31300         0.00100
| 38>    C       -2.86700        -1.92200        -0.04000
| 39>    C       -1.65000        -2.62400        -0.02700
| 40>    C        3.56800        -6.14200        -1.04000
| 41>    C       -1.47600        -4.04900        -0.03400
| 42>    C        2.80300        -4.09900        -0.00800
| 43>    C        3.65700        -4.38400         1.06900
| 44>    C        4.42700        -5.53000         1.05900
| 45>    C        5.24500        -7.58800         0.01400
| 46>    C       -0.13400        -4.31500        -0.02200
| 47>    C        0.56800        -3.06400        -0.02700
| 48>    C        2.77500        -5.01200        -1.07400
| 49>    N        4.37600        -6.39100         0.01700
| 50>    C        1.95900        -2.86900        -0.00900
| 51>    C        2.62100        -1.62200         0.00900
| 52>    C        5.54300         4.33900        -1.13000
| 53>    C        4.07000        -1.47900        -0.09400
| 54>    C        4.10400         2.75100        -0.02100
| 55>    C        5.02700         2.72900         1.03600
| 56>    C        6.16600         3.50900         0.97800
| 57>    C        7.61900         5.15300        -0.11500
| 58>    C        4.32100        -0.14800        -0.09200
| 59>    C        3.02500         0.51400         0.01500
| 60>    C        4.38700         3.58200        -1.11500
| 61>    C        2.86600         1.91600         0.01300
| 62>    N        6.41300         4.29600        -0.09500
| 63>    H       -4.54300         6.23800        -1.95400
| 64>    H        2.27400         4.76600         0.08100
| 65>    H       -2.68800         4.38500         2.19700
| 66>    H       -4.09100         6.44000         2.16500
| 67>    H       -6.24400         7.29500         0.34800
| 68>    H       -4.85900         8.25700         0.94400
| 69>    H       -5.15300         8.10900        -0.81100
| 70>    H       -0.33200         5.28200         0.06900
| 71>    H       -3.16300         4.17400        -2.09100
| 72>    H        0.18200         1.07200         0.00500
| 73>    H       -0.18300        -1.08000        -0.02100
| 74>    H       -5.86400        -4.96200         1.89500
| 75>    H       -4.79400         2.27200         0.13900
| 76>    H       -4.80000        -2.16000        -1.99400
| 77>    H       -6.84100        -3.58200        -1.89300
| 78>    H       -8.42800        -4.53600         0.54600
| 79>    H       -7.95600        -5.33700        -0.98100
| 80>    H       -7.45600        -6.03700         0.58400
| 81>    H       -5.28700        -0.34400         0.10000
| 82>    H       -3.78000        -3.60100         1.94700
| 83>    H        3.58700        -6.86800        -1.84300
| 84>    H       -2.27600        -4.77400        -0.05000
| 85>    H        3.71400        -3.72400         1.92600
| 86>    H        5.09200        -5.79500         1.87100
| 87>    H        6.20500        -7.32900        -0.43900
| 88>    H        5.39300        -7.91700         1.04200
| 89>    H        4.75900        -8.37300        -0.56400
| 90>    H        0.32900        -5.29000        -0.00800
| 91>    H        2.14600        -4.84200        -1.94000
| 92>    H        5.80800         4.98600        -1.95600
| 93>    H        4.78800        -2.28100        -0.18500
| 94>    H        4.86000         2.11400         1.91200
| 95>    H        6.90100         3.53100         1.77200
| 96>    H        7.38300         6.10900         0.35600
| 97>    H        8.41400         4.65200         0.43500
| 98>    H        7.92100         5.31000        -1.15000
| 99>    H        5.28300         0.33600        -0.17900
|100>    H        3.72000         3.63200        -1.96700
|101> *
|102> 
|103>                          ****END OF INPUT****
================================================================================

                       ****************************
                       * Single Point Calculation *
                       ****************************

---------------------------------
CARTESIAN COORDINATES (ANGSTROEM)
---------------------------------
  C     -4.114000    5.780000   -1.072000
  C      1.474000    4.041000    0.057000
  C     -2.802000    4.093000    0.049000
  C     -3.072000    4.757000    1.255000
  C     -3.849000    5.899000    1.260000
  C     -5.214000    7.600000    0.150000
  C      0.132000    4.307000    0.061000
  C     -0.569000    3.056000    0.047000
  C      1.649000    2.618000    0.023000
  C     -3.347000    4.632000   -1.126000
  N     -4.354000    6.397000    0.107000
  N      0.388000    2.067000    0.025000
  N     -2.010000    0.395000   -0.075000
  N     -0.388000   -2.074000   -0.027000
  N      2.010000   -0.401000    0.065000
  C     -1.960000    2.861000    0.024000
  C     -2.623000    1.615000   -0.018000
  C     -5.573000   -4.329000    1.066000
  C     -4.073000    1.471000    0.056000
  C     -4.106000   -2.756000   -0.026000
  C     -4.995000   -2.757000   -1.111000
  C     -6.132000   -3.542000   -1.076000
  C     -7.651000   -5.113000    0.040000
  C     -4.324000    0.141000    0.037000
  C     -3.025000   -0.520000   -0.048000
  C     -4.422000   -3.566000    1.075000
  N     -6.407000   -4.313000    0.001000
  C     -2.867000   -1.922000   -0.040000
  C     -1.650000   -2.624000   -0.027000
  C      3.568000   -6.142000   -1.040000
  C     -1.476000   -4.049000   -0.034000
  C      2.803000   -4.099000   -0.008000
  C      3.657000   -4.384000    1.069000
  C      4.427000   -5.530000    1.059000
  C      5.245000   -7.588000    0.014000
  C     -0.134000   -4.315000   -0.022000
  C      0.568000   -3.064000   -0.027000
  C      2.775000   -5.012000   -1.074000
  N      4.376000   -6.391000    0.017000
  C      1.959000   -2.869000   -0.009000
  C      2.621000   -1.622000    0.009000
  C      5.543000    4.339000   -1.130000
  C      4.070000   -1.479000   -0.094000
  C      4.104000    2.751000   -0.021000
  C      5.027000    2.729000    1.036000
  C      6.166000    3.509000    0.978000
  C      7.619000    5.153000   -0.115000
  C      4.321000   -0.148000   -0.092000
  C      3.025000    0.514000    0.015000
  C      4.387000    3.582000   -1.115000
  C      2.866000    1.916000    0.013000
  N      6.413000    4.296000   -0.095000
  H     -4.543000    6.238000   -1.954000
  H      2.274000    4.766000    0.081000
  H     -2.688000    4.385000    2.197000
  H     -4.091000    6.440000    2.165000
  H     -6.244000    7.295000    0.348000
  H     -4.859000    8.257000    0.944000
  H     -5.153000    8.109000   -0.811000
  H     -0.332000    5.282000    0.069000
  H     -3.163000    4.174000   -2.091000
  H      0.182000    1.072000    0.005000
  H     -0.183000   -1.080000   -0.021000
  H     -5.864000   -4.962000    1.895000
  H     -4.794000    2.272000    0.139000
  H     -4.800000   -2.160000   -1.994000
  H     -6.841000   -3.582000   -1.893000
  H     -8.428000   -4.536000    0.546000
  H     -7.956000   -5.337000   -0.981000
  H     -7.456000   -6.037000    0.584000
  H     -5.287000   -0.344000    0.100000
  H     -3.780000   -3.601000    1.947000
  H      3.587000   -6.868000   -1.843000
  H     -2.276000   -4.774000   -0.050000
  H      3.714000   -3.724000    1.926000
  H      5.092000   -5.795000    1.871000
  H      6.205000   -7.329000   -0.439000
  H      5.393000   -7.917000    1.042000
  H      4.759000   -8.373000   -0.564000
  H      0.329000   -5.290000   -0.008000
  H      2.146000   -4.842000   -1.940000
  H      5.808000    4.986000   -1.956000
  H      4.788000   -2.281000   -0.185000
  H      4.860000    2.114000    1.912000
  H      6.901000    3.531000    1.772000
  H      7.383000    6.109000    0.356000
  H      8.414000    4.652000    0.435000
  H      7.921000    5.310000   -1.150000
  H      5.283000    0.336000   -0.179000
  H      3.720000    3.632000   -1.967000

----------------------------
CARTESIAN COORDINATES (A.U.)
----------------------------
  NO LB      ZA    FRAG     MASS         X           Y           Z
   0 C     6.0000    0    12.011   -7.774333   10.922617   -2.025786
   1 C     6.0000    0    12.011    2.785456    7.636383    0.107714
   2 C     6.0000    0    12.011   -5.295013    7.734649    0.092597
   3 C     6.0000    0    12.011   -5.805239    8.989427    2.371606
   4 C     6.0000    0    12.011   -7.273556   11.147494    2.381055
   5 C     6.0000    0    12.011   -9.853032   14.361919    0.283459
   6 C     6.0000    0    12.011    0.249444    8.139050    0.115273
   7 C     6.0000    0    12.011   -1.075254    5.775003    0.088817
   8 C     6.0000    0    12.011    3.116158    4.947303    0.043464
   9 C     6.0000    0    12.011   -6.324913    8.753211   -2.127832
  10 N     7.0000    0    14.007   -8.227868   12.088578    0.202201
  11 N     7.0000    0    14.007    0.733214    3.906064    0.047243
  12 N     7.0000    0    14.007   -3.798350    0.746442   -0.141729
  13 N     7.0000    0    14.007   -0.733214   -3.919292   -0.051023
  14 N     7.0000    0    14.007    3.798350   -0.757780    0.122832
  15 C     6.0000    0    12.011   -3.703863    5.406506    0.045353
  16 C     6.0000    0    12.011   -4.956752    3.051908   -0.034015
  17 C     6.0000    0    12.011  -10.531444   -8.180624    2.014448
  18 C     6.0000    0    12.011   -7.696855    2.779787    0.105825
  19 C     6.0000    0    12.011   -7.759216   -5.208085   -0.049133
  20 C     6.0000    0    12.011   -9.439182   -5.209975   -2.099486
  21 C     6.0000    0    12.011  -11.587801   -6.693410   -2.033345
  22 C     6.0000    0    12.011  -14.458295   -9.662170    0.075589
  23 C     6.0000    0    12.011   -8.171176    0.266451    0.069920
  24 C     6.0000    0    12.011   -5.716422   -0.982658   -0.090707
  25 C     6.0000    0    12.011   -8.356369   -6.738763    2.031456
  26 N     7.0000    0    14.007  -12.107475   -8.150389    0.001890
  27 C     6.0000    0    12.011   -5.417845   -3.632054   -0.075589
  28 C     6.0000    0    12.011   -3.118048   -4.958641   -0.051023
  29 C     6.0000    0    12.011    6.742543  -11.606698   -1.965315
  30 C     6.0000    0    12.011   -2.789236   -7.651501   -0.064251
  31 C     6.0000    0    12.011    5.296902   -7.745987   -0.015118
  32 C     6.0000    0    12.011    6.910728   -8.284559    2.020117
  33 C     6.0000    0    12.011    8.365818  -10.450186    2.001220
  34 C     6.0000    0    12.011    9.911614  -14.339242    0.026456
  35 C     6.0000    0    12.011   -0.253223   -8.154168   -0.041574
  36 C     6.0000    0    12.011    1.073364   -5.790121   -0.051023
  37 C     6.0000    0    12.011    5.243990   -9.471307   -2.029566
  38 N     7.0000    0    14.007    8.269442  -12.077240    0.032125
  39 C     6.0000    0    12.011    3.701973   -5.421624   -0.017008
  40 C     6.0000    0    12.011    4.952972   -3.065136    0.017008
  41 C     6.0000    0    12.011   10.474752    8.199522   -2.135391
  42 C     6.0000    0    12.011    7.691185   -2.794905   -0.177634
  43 C     6.0000    0    12.011    7.755436    5.198637   -0.039684
  44 C     6.0000    0    12.011    9.499653    5.157063    1.957756
  45 C     6.0000    0    12.011   11.652051    6.631049    1.848152
  46 C     6.0000    0    12.011   14.397823    9.737759   -0.217319
  47 C     6.0000    0    12.011    8.165507   -0.279679   -0.173855
  48 C     6.0000    0    12.011    5.716422    0.971319    0.028346
  49 C     6.0000    0    12.011    8.290229    6.768999   -2.107045
  50 C     6.0000    0    12.011    5.415955    3.620715    0.024566
  51 N     7.0000    0    14.007   12.118814    8.118263   -0.179524
  52 H     1.0000    0     1.008   -8.585026   11.788112   -3.692525
  53 H     1.0000    0     1.008    4.297237    9.006435    0.153068
  54 H     1.0000    0     1.008   -5.079584    8.286449    4.151728
  55 H     1.0000    0     1.008   -7.730870   12.169836    4.091257
  56 H     1.0000    0     1.008  -11.799450   13.785552    0.657625
  57 H     1.0000    0     1.008   -9.182179   15.603469    1.783901
  58 H     1.0000    0     1.008   -9.737759   15.323789   -1.532568
  59 H     1.0000    0     1.008   -0.627389    9.981533    0.130391
  60 H     1.0000    0     1.008   -5.977204    7.887717   -3.951417
  61 H     1.0000    0     1.008    0.343930    2.025786    0.009449
  62 H     1.0000    0     1.008   -0.345820   -2.040904   -0.039684
  63 H     1.0000    0     1.008  -11.081354   -9.376821    3.581031
  64 H     1.0000    0     1.008   -9.059347    4.293458    0.262672
  65 H     1.0000    0     1.008   -9.070685   -4.081808   -3.768114
  66 H     1.0000    0     1.008  -12.927616   -6.768999   -3.577252
  67 H     1.0000    0     1.008  -15.926612   -8.571798    1.031790
  68 H     1.0000    0     1.008  -15.034661  -10.085468   -1.853821
  69 H     1.0000    0     1.008  -14.089798  -11.408277    1.103600
  70 H     1.0000    0     1.008   -9.990982   -0.650066    0.188973
  71 H     1.0000    0     1.008   -7.143165   -6.804904    3.679297
  72 H     1.0000    0     1.008    6.778448  -12.978639   -3.482765
  73 H     1.0000    0     1.008   -4.301017   -9.021553   -0.094486
  74 H     1.0000    0     1.008    7.018443   -7.037340    3.639613
  75 H     1.0000    0     1.008    9.622485  -10.950963    3.535678
  76 H     1.0000    0     1.008   11.725751  -13.849803   -0.829590
  77 H     1.0000    0     1.008   10.191293  -14.960962    1.969095
  78 H     1.0000    0     1.008    8.993207  -15.822677   -1.065806
  79 H     1.0000    0     1.008    0.621720   -9.996651   -0.015118
  80 H     1.0000    0     1.008    4.055352   -9.150054   -3.666069
  81 H     1.0000    0     1.008   10.975529    9.422175   -3.696304
  82 H     1.0000    0     1.008    9.048009   -4.310465   -0.349599
  83 H     1.0000    0     1.008    9.184069    3.994881    3.613156
  84 H     1.0000    0     1.008   13.041000    6.672623    3.348595
  85 H     1.0000    0     1.008   13.951848   11.544337    0.672743
  86 H     1.0000    0     1.008   15.900156    8.791006    0.822031
  87 H     1.0000    0     1.008   14.968521   10.034446   -2.173185
  88 H     1.0000    0     1.008    9.983423    0.634948   -0.338261
  89 H     1.0000    0     1.008    7.029781    6.863485   -3.717091

--------------------------------
INTERNAL COORDINATES (ANGSTROEM)
--------------------------------
 C      0   0   0     0.000000000000     0.00000000     0.00000000
 C      1   0   0     5.960243786960     0.00000000     0.00000000
 C      1   2   0     2.413286970089    36.71203193     0.00000000
 C      3   1   2     1.402936919466    87.92679349   102.24380927
 C      4   3   1     1.381274049564   120.17727507     0.12272146
 C      5   4   3     2.447187365119   152.47397355     1.61353989
 C      2   1   3     1.368114030335    12.62437179   331.14672557
 C      7   2   3     1.434084376876   108.05010202     0.84668783
 C      2   1   3     1.434123425651   113.54176831    38.52357943
 C      1   2   3     1.381705106019    40.93481510   311.36376224
 N      1   2   3     1.352157535201    97.72275723    80.54843865
 N      9   2   1     1.376127174356   106.58526707   346.97499545
 N     12   9   2     2.925062050624   168.53581413   171.12065651
 N     13  12   9     2.954513327098    91.55032014    11.12112580
 N     14  13  12     2.925371258490    88.43092389   359.84326247
 C      8   7   2     1.404790019896   127.24786865   181.11170171
 C     13  12   9     1.366535034311    81.72106996   188.00453233
 C     14  13  12     5.758810554272    80.56209567   166.76250791
 C     17  13  12     1.459010623676   111.08861209   183.82872609
 C     18  14  13     2.412235892279    27.27532823    36.33507194
 C     20  18  14     1.402692767501    87.95206320   148.94598259
 C     21  20  18     1.382106725257   120.14573887   359.70382047
 C     18  14  13     2.446510985056   144.15733107    82.80075377
 C     19  17  13     1.353610726908   106.29293361   359.75308708
 C     13  12   9     1.366813447402   172.21332906    33.46711076
 C     18  14  13     1.380960173213    15.08449437   309.23336894
 N     22  21  20     1.352773077792   120.73759875     0.27865223
 C     25  13  17     1.410897586645   125.60330303   182.37774668
 C     14  13  12     1.376642291955    80.24689249   177.85461986
 C     14  13  12     5.764089607215   164.51507311   312.20821879
 C     29  14  13     1.435600919476   106.58649366   178.76395472
 C     30  14  13     2.413316804732    27.10625047    82.12560436
 C     32  30  14     1.403734305344    87.90059683   149.76154742
 C     33  32  30     1.380694028378   120.14881443   359.74174632
 C     34  33  32     2.448777858443   152.49203239     2.45173620
 C     31  29  14     1.368160809262   108.16950133     0.70383075
 C     14  13  12     1.376239804685   169.26375223   353.09862627
 C     30  14  13     1.380907310430    14.68948582   353.70041132
 N     34  33  32     1.352658863128   120.85575621     0.19603406
 C     37  14  29     1.404717053360   126.01551127   180.90772073
 C     15  14  13     1.366491126938    81.61824056   183.09049352
 C      2   1   3     4.249062720177   145.53141021   160.58318507
 C     41  15  14     1.459677704153   111.05201287   175.08990246
 C     42   2   1     2.412953791518    41.78584867   207.44165951
 C     44  42   2     1.403446472082    87.95153797   233.97558675
 C     45  44  42     1.381696421071   120.11137308     0.19721020
 C     42   2   1     2.450019795838   135.97209175   117.75650861
 C     43  41  15     1.354461516618   106.26758155     0.30894352
 C     15  14  13     1.367461151185   171.87382904   332.35056460
 C     42   2   1     1.381886391857    32.59078432   256.29693870
 C      9   2   1     1.404988612053   126.98745415   167.97933298
 N     42   2   1     1.352765315936   113.57249190   145.49309780
 H      1   2   3     1.082464318119   130.49316540   215.70414077
 H      2   1   3     1.079907866440   120.18996866   207.24972956
 H      4   3   1     1.083145419600   121.11972301   179.53097371
 H      5   4   3     1.081790182984   122.84262604   179.46794671
 H      6   5   4     1.092304444741   104.45751398   100.14649928
 H      6   5   4     1.090004587146    84.65762068   209.53894109
 H      6   5   4     1.089184557364   133.93085301   322.36717191
 H      7   2  54     1.079807853278   126.66122480     1.30600390
 H     10   1   2     1.083902670907   118.69228168   244.33807964
 H     12   9   2     1.016297692608   125.29023241   180.00180175
 H     14  13  12     1.014936943854    44.97226959   359.42596618
 H     18  14  13     1.082871645210   128.03556573   234.20482432
 H     19  17  13     1.080893611786   126.41830519   178.11313280
 H     21  20  18     1.083569563987   121.05669627   180.67006309
 H     22  21  20     1.082483256222   122.73097286   180.59748951
 H     23  18  14     1.092105306278   103.92715769   234.93429879
 H     23  18  14     1.088871893291   134.19244188    12.25587044
 H     23  18  14     1.089833473518    84.85857450   125.45241208
 H     24  19  17     1.080075460327   127.28078426   178.44613241
 H     26  18  14     1.083408048706   118.76995697   244.94906660
 H     30  14  13     1.082703098730   127.99711412   279.66882698
 H     31  29  14     1.079759695488   125.22293469   180.92530585
 H     33  32  30     1.083188810873   121.01964473   180.74284758
 H     34  33  32     1.082494341787   122.70821597   180.59516895
 H     35  34  33     1.092652735319   105.73575241    97.19771933
 H     35  34  33     1.089462711615    84.05943581   206.43036958
 H     35  34  33     1.089268102902   133.08365142   318.50306270
 H     36  31  29     1.079439669458   126.61599965   178.98859863
 H     38  30  73     1.083742127999   118.77264435   359.90091293
 H     42   2   1     1.082178358682   119.31790784     2.12462825
 H     43  41  15     1.080281907652   126.36969097   182.06329380
 H     45  44  42     1.083277434455   121.10105945   179.58025624
 H     46  45  44     1.082194529648   122.72144639   179.46906377
 H     47  42   2     1.091546151109   106.65128841   315.16475048
 H     47  42   2     1.088818625851   132.46019523    94.52397119
 H     47  42   2     1.089531091801    83.63838232   206.04504406
 H     48  43  41     1.080402239909   127.23657387   181.62955349
 H     50  42   2     1.083186502870   118.77001737    94.71359229

---------------------------
INTERNAL COORDINATES (A.U.)
---------------------------
 C      0   0   0     0.000000000000     0.00000000     0.00000000
 C      1   0   0    11.263228448761     0.00000000     0.00000000
 C      1   2   0     4.560451456028    36.71203193     0.00000000
 C      3   1   2     2.651166560957    87.92679349   102.24380927
 C      4   3   1     2.610229669569   120.17727507     0.12272146
 C      5   4   3     4.624513918468   152.47397355     1.61353989
 C      2   1   3     2.585360837309    12.62437179   331.14672557
 C      7   2   3     2.710026725231   108.05010202     0.84668783
 C      2   1   3     2.710100516721   113.54176831    38.52357943
 C      1   2   3     2.611044248217    40.93481510   311.36376224
 N      1   2   3     2.555207431447    97.72275723    80.54843865
 N      9   2   1     2.600503484979   106.58526707   346.97499545
 N     12   9   2     5.527566200405   168.53581413   171.12065651
 N     13  12   9     5.583221047236    91.55032014    11.12112580
 N     14  13  12     5.528150518591    88.43092389   359.84326247
 C      8   7   2     2.654668413270   127.24786865   181.11170171
 C     13  12   9     2.582376967257    81.72106996   188.00453233
 C     14  13  12    10.882574804710    80.56209567   166.76250791
 C     17  13  12     2.757130505230   111.08861209   183.82872609
 C     18  14  13     4.558465206823    27.27532823    36.33507194
 C     20  18  14     2.650705180609    87.95206320   148.94598259
 C     21  20  18     2.611803198586   120.14573887   359.70382047
 C     18  14  13     4.623235745386   144.15733107    82.80075377
 C     19  17  13     2.557953565794   106.29293361   359.75308708
 C     13  12   9     2.582903091751   172.21332906    33.46711076
 C     18  14  13     2.609636529225    15.08449437   309.23336894
 N     22  21  20     2.556370638369   120.73759875     0.27865223
 C     25  13  17     2.666210041769   125.60330303   182.37774668
 C     14  13  12     2.601476916169    80.24689249   177.85461986
 C     14  13  12    10.892550769017   164.51507311   312.20821879
 C     29  14  13     2.712892575415   106.58649366   178.76395472
 C     30  14  13     4.560507835333    27.10625047    82.12560436
 C     32  30  14     2.652673401891    87.90059683   149.76154742
 C     33  32  30     2.609133588376   120.14881443   359.74174632
 C     34  33  32     4.627519515267   152.49203239     2.45173620
 C     31  29  14     2.585449236669   108.16950133     0.70383075
 C     14  13  12     2.600716325456   169.26375223   353.09862627
 C     30  14  13     2.609536633043    14.68948582   353.70041132
 N     34  33  32     2.556154803934   120.85575621     0.19603406
 C     37  14  29     2.654530526499   126.01551127   180.90772073
 C     15  14  13     2.582293994346    81.61824056   183.09049352
 C      2   1   3     8.029564866989   145.53141021   160.58318507
 C     41  15  14     2.758391104639   111.05201287   175.08990246
 C     42   2   1     4.559821839776    41.78584867   207.44165951
 C     44  42   2     2.652129475853    87.95153797   233.97558675
 C     45  44  42     2.611027836043   120.11137308     0.19721020
 C     42   2   1     4.629866436820   135.97209175   117.75650861
 C     43  41  15     2.559561325344   106.26758155     0.30894352
 C     15  14  13     2.584127074516   171.87382904   332.35056460
 C     42   2   1     2.611386828803    32.59078432   256.29693870
 C      9   2   1     2.655043698059   126.98745415   167.97933298
 N     42   2   1     2.556355970587   113.57249190   145.49309780
 H      1   2   3     2.045561110986   130.49316540   215.70414077
 H      2   1   3     2.040730117440   120.18996866   207.24972956
 H      4   3   1     2.046848206255   121.11972301   179.53097371
 H      5   4   3     2.044287180204   122.84262604   179.46794671
 H      6   5   4     2.064156255425   104.45751398   100.14649928
 H      6   5   4     2.059810154424    84.65762068   209.53894109
 H      6   5   4     2.058260522714   133.93085301   322.36717191
 H      7   2  54     2.040541119952   126.66122480     1.30600390
 H     10   1   2     2.048279203841   118.69228168   244.33807964
 H     12   9   2     1.920524309565   125.29023241   180.00180175
 H     14  13  12     1.917952867083    44.97226959   359.42596618
 H     18  14  13     2.046330847636   128.03556573   234.20482432
 H     19  17  13     2.042592906181   126.41830519   178.11313280
 H     21  20  18     2.047649722989   121.05669627   180.67006309
 H     22  21  20     2.045596898814   122.73097286   180.59748951
 H     23  18  14     2.063779938267   103.92715769   234.93429879
 H     23  18  14     2.057669673245   134.19244188    12.25587044
 H     23  18  14     2.059486796529    84.85857450   125.45241208
 H     24  19  17     2.041046823986   127.28078426   178.44613241
 H     26  18  14     2.047344503340   118.76995697   244.94906660
 H     30  14  13     2.046012340948   127.99711412   279.66882698
 H     31  29  14     2.040450114918   125.22293469   180.92530585
 H     33  32  30     2.046930203877   121.01964473   180.74284758
 H     34  33  32     2.045617847496   122.70821597   180.59516895
 H     35  34  33     2.064814429233   105.73575241    97.19771933
 H     35  34  33     2.058786158072    84.05943581   206.43036958
 H     35  34  33     2.058418400901   133.08365142   318.50306270
 H     36  31  29     2.039845353366   126.61599965   178.98859863
 H     38  30  73     2.047975821711   118.77264435   359.90091293
 H     42   2   1     2.045020725966   119.31790784     2.12462825
 H     43  41  15     2.041436952892   126.36969097   182.06329380
 H     45  44  42     2.047097678177   121.10105945   179.58025624
 H     46  45  44     2.045051284662   122.72144639   179.46906377
 H     47  42   2     2.062723288131   106.65128841   315.16475048
 H     47  42   2     2.057569012371   132.46019523    94.52397119
 H     47  42   2     2.058915377895    83.63838232   206.04504406
 H     48  43  41     2.041664347903   127.23657387   181.62955349
 H     50  42   2     2.046925842384   118.77001737    94.71359229

---------------------
BASIS SET INFORMATION
---------------------
There are 3 groups of distinct atoms

 Group   1 Type C   : 17s4p1d contracted to 3s2p1d pattern {881/31/1}
 Group   2 Type N   : 17s4p1d contracted to 3s2p1d pattern {881/31/1}
 Group   3 Type H   : 4s1p contracted to 2s1p pattern {31/1}

Atom   0C    basis set group =>   1
Atom   1N    basis set group =>   2
Atom   2C    basis set group =>   1
Atom   3N    basis set group =>   2
Atom   4C    basis set group =>   1
Atom   5N    basis set group =>   2
Atom   6C    basis set group =>   1
Atom   7N    basis set group =>   2
Atom   8C    basis set group =>   1
Atom   9N    basis set group =>   2
Atom  10C    basis set group =>   1
Atom  11N    basis set group =>   2
Atom  12C    basis set group =>   1
Atom  13N    basis set group =>   2
Atom  14C    basis set group =>   1
Atom  15N    basis set group =>   2
Atom  16C    basis set group =>   1
Atom  17C    basis set group =>   1
Atom  18C    basis set group =>   1
Atom  19C    basis set group =>   1
Atom  20C    basis set group =>   1
Atom  21C    basis set group =>   1
Atom  22C    basis set group =>   1
Atom  23C    basis set group =>   1
Atom  24C    basis set group =>   1
Atom  25C    basis set group =>   1
Atom  26C    basis set group =>   1
Atom  27C    basis set group =>   1
Atom  28C    basis set group =>   1
Atom  29C    basis set group =>   1
Atom  30C    basis set group =>   1
Atom  31C    basis set group =>   1
Atom  32C    basis set group =>   1
Atom  33C    basis set group =>   1
Atom  34C    basis set group =>   1
Atom  35C    basis set group =>   1
Atom  36C    basis set group =>   1
Atom  37C    basis set group =>   1
Atom  38C    basis set group =>   1
Atom  39C    basis set group =>   1
Atom  40C    basis set group =>   1
Atom  41C    basis set group =>   1
Atom  42C    basis set group =>   1
Atom  43C    basis set group =>   1
Atom  44C    basis set group =>   1
Atom  45C    basis set group =>   1
Atom  46C    basis set group =>   1
Atom  47C    basis set group =>   1
Atom  48C    basis set group =>   1
Atom  49C    basis set group =>   1
Atom  50C    basis set group =>   1
Atom  51C    basis set group =>   1
Atom  52H    basis set group =>   3
Atom  53H    basis set group =>   3
Atom  54H    basis set group =>   3
Atom  55H    basis set group =>   3
Atom  56H    basis set group =>   3
Atom  57H    basis set group =>   3
Atom  58H    basis set group =>   3
Atom  59H    basis set group =>   3
Atom  60H    basis set group =>   3
Atom  61H    basis set group =>   3
Atom  62H    basis set group =>   3
Atom  63H    basis set group =>   3
Atom  64H    basis set group =>   3
Atom  65H    basis set group =>   3
Atom  66H    basis set group =>   3
Atom  67H    basis set group =>   3
Atom  68H    basis set group =>   3
Atom  69H    basis set group =>   3
Atom  70H    basis set group =>   3
Atom  71H    basis set group =>   3
Atom  72H    basis set group =>   3
Atom  73H    basis set group =>   3
Atom  74H    basis set group =>   3
Atom  75H    basis set group =>   3
Atom  76H    basis set group =>   3
Atom  77H    basis set group =>   3
Atom  78H    basis set group =>   3
Atom  79H    basis set group =>   3
Atom  80H    basis set group =>   3
Atom  81H    basis set group =>   3
Atom  82H    basis set group =>   3
Atom  83H    basis set group =>   3
Atom  84H    basis set group =>   3
Atom  85H    basis set group =>   3
Atom  86H    basis set group =>   3
Atom  87H    basis set group =>   3
Atom  88H    basis set group =>   3
Atom  89H    basis set group =>   3


           ************************************************************
           *        Program running with 16 parallel MPI-processes    *
           *              working on a common directory               *
           ************************************************************
------------------------------------------------------------------------------
                           ORCA GTO INTEGRAL CALCULATION
------------------------------------------------------------------------------
------------------------------------------------------------------------------
                   ___                                                        
                  /   \      - P O W E R E D   B Y -                         
                 /     \                                                     
                 |  |  |   _    _      __       _____    __    __             
                 |  |  |  | |  | |    /  \     |  _  \  |  |  /  |          
                  \  \/   | |  | |   /    \    | | | |  |  | /  /          
                 / \  \   | |__| |  /  /\  \   | |_| |  |  |/  /          
                |  |  |   |  __  | /  /__\  \  |    /   |      \           
                |  |  |   | |  | | |   __   |  |    \   |  |\   \          
                \     /   | |  | | |  |  |  |  | |\  \  |  | \   \       
                 \___/    |_|  |_| |__|  |__|  |_| \__\ |__|  \__/        
                                                                              
                      - O R C A' S   B I G   F R I E N D -                    
                                      &                                       
                       - I N T E G R A L  F E E D E R -                       
                                                                              
 v1 FN, 2020, v2 2021                                                         
------------------------------------------------------------------------------


Reading SHARK input file /scratch/allen/tmpyp4_amber_gaff2/conf1/conf1/Conf99.orca.SHARKINP.tmp ... ok
----------------------
SHARK INTEGRAL PACKAGE
----------------------

Number of atoms                             ...     90
Number of basis functions                   ...   1230
Number of shells                            ...    738
Maximum angular momentum                    ...      2
Integral batch strategy                     ... SHARK/LIBINT Hybrid
RI-J (if used) integral strategy            ... SPLIT-RIJ (Revised 2003 algorithm where possible)
Printlevel                                  ...      1
Contraction scheme used                     ... PARTIAL GENERAL contraction
Coulomb Range Separation                    ... NOT USED
Exchange Range Separation                   ... NOT USED
Finite Nucleus Model                        ... NOT USED
Auxiliary Coulomb fitting basis             ... NOT available
Auxiliary J/K fitting basis                 ... NOT available
Auxiliary Correlation fitting basis         ... NOT available
Auxiliary 'external' fitting basis          ... NOT available
Integral threshold                          ...     2.500000e-11
Primitive cut-off                           ...     2.500000e-12
Primitive pair pre-selection threshold      ...     2.500000e-12

Calculating pre-screening integrals         ... done (  0.1 sec) Dimension = 738
Calculating pre-screening integrals (ORCA)  ... done (  0.3 sec) Dimension = 426
Organizing shell pair data                  ... done (  0.8 sec)
Shell pair information
Total number of shell pairs                 ...    272691
Shell pairs after pre-screening             ...     71602
Total number of primitive shell pairs       ...    422091
Primitive shell pairs kept                  ...     92343
          la=0 lb=0:  29419 shell pairs
          la=1 lb=0:  25955 shell pairs
          la=1 lb=1:   4687 shell pairs
          la=2 lb=0:   7896 shell pairs
          la=2 lb=1:   3114 shell pairs
          la=2 lb=2:    531 shell pairs

Calculating one electron integrals          ... done (  0.3 sec)
Calculating Nuclear repulsion               ... done (  0.0 sec) ENN=   6222.050352392017 Eh

SHARK setup successfully completed in   2.2 seconds

Maximum memory used throughout the entire GTOINT-calculation: 98.9 MB


           ************************************************************
           *        Program running with 16 parallel MPI-processes    *
           *              working on a common directory               *
           ************************************************************
-------------------------------------------------------------------------------
                                 ORCA SCF
-------------------------------------------------------------------------------

------------
SCF SETTINGS
------------
Hamiltonian:
 Ab initio Hamiltonian  Method          .... Hartree-Fock(GTOs)


General Settings:
 Integral files         IntName         .... /scratch/allen/tmpyp4_amber_gaff2/conf1/conf1/Conf99.orca
 Hartree-Fock type      HFTyp           .... RHF
 Total Charge           Charge          ....    0
 Multiplicity           Mult            ....    1
 Number of Electrons    NEL             ....  358
 Basis Dimension        Dim             ....  918
 Nuclear Repulsion      ENuc            ....   6222.0503523920 Eh

Convergence Acceleration:
 DIIS                   CNVDIIS         .... on
   Start iteration      DIISMaxIt       ....    12
   Startup error        DIISStart       ....  0.200000
   # of expansion vecs  DIISMaxEq       ....     5
   Bias factor          DIISBfac        ....   1.050
   Max. coefficient     DIISMaxC        ....  10.000
 Trust-Rad. Augm. Hess. CNVTRAH         .... auto
   Auto Start mean grad. ratio tolernc. ....  1.125000
   Auto Start start iteration           ....    20
   Auto Start num. interpolation iter.  ....    10
   Max. Number of Micro iterations      ....    16
   Max. Number of Macro iterations      .... Maxiter - #DIIS iter
   Number of Davidson start vectors     ....     2
   Converg. threshold I  (grad. norm)   ....   1.000e-05
   Converg. threshold II (energy diff.) ....   1.000e-08
   Grad. Scal. Fac. for Micro threshold ....   0.100
   Minimum threshold for Micro iter.    ....   0.010
   NR start threshold (gradient norm)   ....   0.001
   Initial trust radius                 ....   0.400
   Minimum AH scaling param. (alpha)    ....   1.000
   Maximum AH scaling param. (alpha)    .... 1000.000
   Orbital update algorithm             .... Taylor
   White noise on init. David. guess    .... on
   Maximum white noise                  ....   0.010
   Quad. conv. algorithm                .... NR
 SOSCF                  CNVSOSCF        .... on
   Start iteration      SOSCFMaxIt      ....   150
   Startup grad/error   SOSCFStart      ....  0.003300
 Level Shifting         CNVShift        .... on
   Level shift para.    LevelShift      ....    0.2500
   Turn off err/grad.   ShiftErr        ....    0.0010
 Zerner damping         CNVZerner       .... off
 Static damping         CNVDamp         .... on
   Fraction old density DampFac         ....    0.7000
   Max. Damping (<1)    DampMax         ....    0.9800
   Min. Damping (>=0)   DampMin         ....    0.0000
   Turn off err/grad.   DampErr         ....    0.1000
 Fernandez-Rico         CNVRico         .... off

SCF Procedure:
 Maximum # iterations   MaxIter         ....   125
 SCF integral mode      SCFMode         .... Direct
   Integral package                     .... SHARK and LIBINT hybrid scheme
 Reset frequency        DirectResetFreq ....    20
 Integral Threshold     Thresh          ....  2.500e-11 Eh
 Primitive CutOff       TCut            ....  2.500e-12 Eh

Convergence Tolerance:
 Convergence Check Mode ConvCheckMode   .... Total+1el-Energy
 Convergence forced     ConvForced      .... 1
 Energy Change          TolE            ....  1.000e-08 Eh
 1-El. energy change                    ....  1.000e-05 Eh
 Orbital Gradient       TolG            ....  1.000e-05
 Orbital Rotation angle TolX            ....  1.000e-05
 DIIS Error             TolErr          ....  5.000e-07


Diagonalization of the overlap matrix:
Smallest eigenvalue                        ... 2.264e-04
Time for diagonalization                   ...    0.391 sec
Threshold for overlap eigenvalues          ... 1.000e-08
Number of eigenvalues below threshold      ... 0
Time for construction of square roots      ...    0.250 sec
Total time needed                          ...    0.647 sec

Time for model grid setup =    1.056 sec

------------------------------
INITIAL GUESS: MODEL POTENTIAL
------------------------------
Loading Hartree-Fock densities                     ... done
Calculating cut-offs                               ... done
Initializing the effective Hamiltonian             ... done
Setting up the integral package (SHARK)            ... done
Starting the Coulomb interaction                   ... done (   1.1 sec)
Reading the grid                                   ... done
Mapping shells                                     ... done
Starting the XC term evaluation                    ... done (   0.2 sec)
Transforming the Hamiltonian                       ... done (   0.2 sec)
Diagonalizing the Hamiltonian                      ... done (   0.3 sec)
Back transforming the eigenvectors                 ... done (   0.1 sec)
Now organizing SCF variables                       ... done
                      ------------------
                      INITIAL GUESS DONE (   3.1 sec)
                      ------------------
--------------
SCF ITERATIONS
--------------
ITER       Energy         Delta-E        Max-DP      RMS-DP      [F,P]     Damp
               ***  Starting incremental Fock matrix formation  ***
  0  -2121.6443681252   0.000000000000 0.06932011  0.00121174  0.2349315 0.7000
  1  -2122.3134715542  -0.669103428967 0.05268925  0.00098189  0.1453108 0.7000
                               ***Turning on DIIS***
  2  -2122.7296337813  -0.416162227151 0.11719842  0.00222010  0.0806706 0.0000
  3  -2117.7321998216   4.997433959681 0.03459725  0.00068640  0.0443379 0.0000
  4  -2123.4064685052  -5.674268683595 0.00916857  0.00023035  0.0072769 0.0000
  5  -2123.5807820316  -0.174313526326 0.00527730  0.00013818  0.0051245 0.0000
  6  -2123.5611322631   0.019649768445 0.00428952  0.00009362  0.0023540 0.0000
  7  -2123.6660261825  -0.104893919364 0.00380818  0.00007802  0.0018443 0.0000
  8  -2123.6938397557  -0.027813573215 0.00366453  0.00007863  0.0017311 0.0000
  9  -2123.6530789495   0.040760806163 0.00288520  0.00005730  0.0013895 0.0000
                      *** Initiating the SOSCF procedure ***
                           *** Shutting down DIIS ***
                      *** Re-Reading the Fockian *** 
                      *** Removing any level shift *** 
ITER      Energy       Delta-E        Grad      Rot      Max-DP    RMS-DP
 10  -2123.67562669  -0.0225477448  0.003069  0.003069  0.002888  0.000055
               *** Restarting incremental Fock matrix formation ***
 11  -2123.61029859   0.0653281048  0.001878  0.017068  0.005266  0.000085
 12  -2123.61071175  -0.0004131646  0.001169  0.042957  0.010371  0.000198
 13  -2123.61136002  -0.0006482677  0.000688  0.023396  0.006651  0.000106
 14  -2123.61157766  -0.0002176343  0.000732  0.015601  0.004892  0.000080
 15  -2123.61170462  -0.0001269664  0.000601  0.013422  0.003025  0.000053
 16  -2123.61177763  -0.0000730103  0.000312  0.012465  0.002307  0.000051
 17  -2123.61182728  -0.0000496450  0.000364  0.012245  0.002147  0.000040
 18  -2123.61185628  -0.0000290056  0.000297  0.006484  0.001376  0.000022
 19  -2123.61186840  -0.0000121167  0.000181  0.004883  0.000887  0.000015
 20  -2123.61187439  -0.0000059882  0.000159  0.003275  0.000577  0.000011
 21  -2123.61187869  -0.0000043000  0.000101  0.005493  0.000912  0.000018
 22  -2123.61188261  -0.0000039204  0.000069  0.003614  0.000644  0.000012
 23  -2123.61188433  -0.0000017179  0.000055  0.002562  0.000470  0.000008
 24  -2123.61188521  -0.0000008870  0.000039  0.000829  0.000245  0.000004
 25  -2123.61188561  -0.0000003958  0.000034  0.001025  0.000248  0.000004
 26  -2123.61188588  -0.0000002754  0.000027  0.001198  0.000302  0.000004
 27  -2123.61188611  -0.0000002230  0.000018  0.000931  0.000232  0.000003
 28  -2123.61188624  -0.0000001344  0.000015  0.000386  0.000098  0.000002
 29  -2123.61188630  -0.0000000588  0.000010  0.000085  0.000025  0.000001
 30  -2123.61188632  -0.0000000207  0.000004  0.000049  0.000015  0.000000
               *** Restarting incremental Fock matrix formation ***
 31  -2123.61188628   0.0000000406  0.000003  0.000085  0.000022  0.000000
                  ***Gradient check signals convergence***
              ***Rediagonalizing the Fockian in SOSCF/NRSCF***

               *****************************************************
               *                     SUCCESS                       *
               *           SCF CONVERGED AFTER  32 CYCLES          *
               *****************************************************


----------------
TOTAL SCF ENERGY
----------------

Total Energy       :        -2123.61188628 Eh          -57786.41723 eV

Components:
Nuclear Repulsion  :         6222.05035239 Eh          169310.59767 eV
Electronic Energy  :        -8345.66223867 Eh         -227097.01490 eV
One Electron Energy:       -15285.58434107 Eh         -415941.89600 eV
Two Electron Energy:         6939.92210240 Eh          188844.88109 eV

Virial components:
Potential Energy   :        -4245.59711580 Eh         -115528.57088 eV
Kinetic Energy     :         2121.98522952 Eh           57742.15365 eV
Virial Ratio       :            2.00076657


---------------
SCF CONVERGENCE
---------------

  Last Energy change         ...    2.1500e-09  Tolerance :   1.0000e-08
  Last MAX-Density change    ...    1.4884e-05  Tolerance :   1.0000e-07
  Last RMS-Density change    ...    2.9615e-07  Tolerance :   5.0000e-09
  Last Orbital Gradient      ...    2.3854e-06  Tolerance :   1.0000e-05
  Last Orbital Rotation      ...    8.0776e-05  Tolerance :   1.0000e-05

             **** THE GBW FILE WAS UPDATED (/scratch/allen/tmpyp4_amber_gaff2/conf1/conf1/Conf99.orca.gbw) ****
             **** DENSITY /scratch/allen/tmpyp4_amber_gaff2/conf1/conf1/Conf99.orca.scfp WAS UPDATED ****
             **** ENERGY FILE WAS UPDATED (/scratch/allen/tmpyp4_amber_gaff2/conf1/conf1/Conf99.orca.en.tmp) ****
             **** THE GBW FILE WAS UPDATED (/scratch/allen/tmpyp4_amber_gaff2/conf1/conf1/Conf99.orca.gbw) ****
             **** DENSITY /scratch/allen/tmpyp4_amber_gaff2/conf1/conf1/Conf99.orca.scfp WAS UPDATED ****
----------------
ORBITAL ENERGIES
----------------

  NO   OCC          E(Eh)            E(eV) 
   0   2.0000     -15.705739      -427.3749 
   1   2.0000     -15.631836      -425.3639 
   2   2.0000     -15.619840      -425.0375 
   3   2.0000     -15.584062      -424.0639 
   4   2.0000     -15.519432      -422.3052 
   5   2.0000     -15.506167      -421.9442 
   6   2.0000     -15.450455      -420.4282 
   7   2.0000     -15.428571      -419.8328 
   8   2.0000     -11.347261      -308.7747 
   9   2.0000     -11.345617      -308.7299 
  10   2.0000     -11.341934      -308.6297 
  11   2.0000     -11.300882      -307.5126 
  12   2.0000     -11.298348      -307.4437 
  13   2.0000     -11.292793      -307.2925 
  14   2.0000     -11.290340      -307.2258 
  15   2.0000     -11.283836      -307.0488 
  16   2.0000     -11.281853      -306.9948 
  17   2.0000     -11.278077      -306.8921 
  18   2.0000     -11.277953      -306.8887 
  19   2.0000     -11.273142      -306.7578 
  20   2.0000     -11.267919      -306.6157 
  21   2.0000     -11.249554      -306.1159 
  22   2.0000     -11.245764      -306.0128 
  23   2.0000     -11.235444      -305.7320 
  24   2.0000     -11.229121      -305.5599 
  25   2.0000     -11.228241      -305.5360 
  26   2.0000     -11.224096      -305.4232 
  27   2.0000     -11.219693      -305.3034 
  28   2.0000     -11.219448      -305.2967 
  29   2.0000     -11.207913      -304.9828 
  30   2.0000     -11.206944      -304.9564 
  31   2.0000     -11.193852      -304.6002 
  32   2.0000     -11.193079      -304.5792 
  33   2.0000     -11.191745      -304.5429 
  34   2.0000     -11.190307      -304.5037 
  35   2.0000     -11.190306      -304.5037 
  36   2.0000     -11.190297      -304.5035 
  37   2.0000     -11.182839      -304.3005 
  38   2.0000     -11.182617      -304.2945 
  39   2.0000     -11.173911      -304.0576 
  40   2.0000     -11.166423      -303.8538 
  41   2.0000     -11.166240      -303.8488 
  42   2.0000     -11.162742      -303.7536 
  43   2.0000     -11.160591      -303.6951 
  44   2.0000     -11.159296      -303.6599 
  45   2.0000     -11.147376      -303.3355 
  46   2.0000     -11.146704      -303.3172 
  47   2.0000     -11.143721      -303.2361 
  48   2.0000     -11.141520      -303.1762 
  49   2.0000     -11.134721      -302.9912 
  50   2.0000     -11.119058      -302.5649 
  51   2.0000     -11.114355      -302.4370 
  52   2.0000      -1.380291       -37.5596 
  53   2.0000      -1.319541       -35.9065 
  54   2.0000      -1.308662       -35.6105 
  55   2.0000      -1.278300       -34.7843 
  56   2.0000      -1.222240       -33.2588 
  57   2.0000      -1.202511       -32.7220 
  58   2.0000      -1.174733       -31.9661 
  59   2.0000      -1.157265       -31.4908 
  60   2.0000      -1.139072       -30.9957 
  61   2.0000      -1.108363       -30.1601 
  62   2.0000      -1.099233       -29.9116 
  63   2.0000      -1.098259       -29.8851 
  64   2.0000      -1.071635       -29.1607 
  65   2.0000      -1.050100       -28.5747 
  66   2.0000      -1.043785       -28.4028 
  67   2.0000      -1.033510       -28.1232 
  68   2.0000      -1.014357       -27.6021 
  69   2.0000      -1.005351       -27.3570 
  70   2.0000      -1.004221       -27.3262 
  71   2.0000      -0.991717       -26.9860 
  72   2.0000      -0.984098       -26.7787 
  73   2.0000      -0.978731       -26.6326 
  74   2.0000      -0.964886       -26.2559 
  75   2.0000      -0.961788       -26.1716 
  76   2.0000      -0.951533       -25.8925 
  77   2.0000      -0.941701       -25.6250 
  78   2.0000      -0.925417       -25.1819 
  79   2.0000      -0.921744       -25.0819 
  80   2.0000      -0.914489       -24.8845 
  81   2.0000      -0.889268       -24.1982 
  82   2.0000      -0.882735       -24.0205 
  83   2.0000      -0.870484       -23.6871 
  84   2.0000      -0.860923       -23.4269 
  85   2.0000      -0.848498       -23.0888 
  86   2.0000      -0.833031       -22.6679 
  87   2.0000      -0.828334       -22.5401 
  88   2.0000      -0.821404       -22.3515 
  89   2.0000      -0.794990       -21.6328 
  90   2.0000      -0.787729       -21.4352 
  91   2.0000      -0.765245       -20.8234 
  92   2.0000      -0.733556       -19.9611 
  93   2.0000      -0.730626       -19.8814 
  94   2.0000      -0.727539       -19.7973 
  95   2.0000      -0.721804       -19.6413 
  96   2.0000      -0.716743       -19.5036 
  97   2.0000      -0.707151       -19.2426 
  98   2.0000      -0.703962       -19.1558 
  99   2.0000      -0.699090       -19.0232 
 100   2.0000      -0.695537       -18.9265 
 101   2.0000      -0.690279       -18.7834 
 102   2.0000      -0.684115       -18.6157 
 103   2.0000      -0.674957       -18.3665 
 104   2.0000      -0.673384       -18.3237 
 105   2.0000      -0.668642       -18.1947 
 106   2.0000      -0.663724       -18.0608 
 107   2.0000      -0.661968       -18.0131 
 108   2.0000      -0.653451       -17.7813 
 109   2.0000      -0.650629       -17.7045 
 110   2.0000      -0.648671       -17.6512 
 111   2.0000      -0.643050       -17.4983 
 112   2.0000      -0.640175       -17.4200 
 113   2.0000      -0.637621       -17.3506 
 114   2.0000      -0.631359       -17.1801 
 115   2.0000      -0.626386       -17.0448 
 116   2.0000      -0.625764       -17.0279 
 117   2.0000      -0.619347       -16.8533 
 118   2.0000      -0.612605       -16.6698 
 119   2.0000      -0.611071       -16.6281 
 120   2.0000      -0.609560       -16.5870 
 121   2.0000      -0.601605       -16.3705 
 122   2.0000      -0.590547       -16.0696 
 123   2.0000      -0.585377       -15.9289 
 124   2.0000      -0.584320       -15.9002 
 125   2.0000      -0.579890       -15.7796 
 126   2.0000      -0.576040       -15.6749 
 127   2.0000      -0.575369       -15.6566 
 128   2.0000      -0.571587       -15.5537 
 129   2.0000      -0.562142       -15.2967 
 130   2.0000      -0.556774       -15.1506 
 131   2.0000      -0.547798       -14.9063 
 132   2.0000      -0.542116       -14.7517 
 133   2.0000      -0.539484       -14.6801 
 134   2.0000      -0.534281       -14.5385 
 135   2.0000      -0.529920       -14.4199 
 136   2.0000      -0.518311       -14.1040 
 137   2.0000      -0.515915       -14.0388 
 138   2.0000      -0.514746       -14.0069 
 139   2.0000      -0.512602       -13.9486 
 140   2.0000      -0.510472       -13.8907 
 141   2.0000      -0.503110       -13.6903 
 142   2.0000      -0.501918       -13.6579 
 143   2.0000      -0.499516       -13.5925 
 144   2.0000      -0.495075       -13.4717 
 145   2.0000      -0.493964       -13.4414 
 146   2.0000      -0.490642       -13.3510 
 147   2.0000      -0.476211       -12.9583 
 148   2.0000      -0.474479       -12.9112 
 149   2.0000      -0.465189       -12.6584 
 150   2.0000      -0.462073       -12.5736 
 151   2.0000      -0.459843       -12.5130 
 152   2.0000      -0.451594       -12.2885 
 153   2.0000      -0.441625       -12.0172 
 154   2.0000      -0.434710       -11.8291 
 155   2.0000      -0.432975       -11.7819 
 156   2.0000      -0.420643       -11.4463 
 157   2.0000      -0.414207       -11.2711 
 158   2.0000      -0.411680       -11.2024 
 159   2.0000      -0.401535       -10.9263 
 160   2.0000      -0.382680       -10.4133 
 161   2.0000      -0.370170       -10.0728 
 162   2.0000      -0.355347        -9.6695 
 163   2.0000      -0.353834        -9.6283 
 164   2.0000      -0.346493        -9.4286 
 165   2.0000      -0.340374        -9.2621 
 166   2.0000      -0.338793        -9.2190 
 167   2.0000      -0.322120        -8.7653 
 168   2.0000      -0.313831        -8.5398 
 169   2.0000      -0.302265        -8.2250 
 170   2.0000      -0.298510        -8.1229 
 171   2.0000      -0.283268        -7.7081 
 172   2.0000      -0.277924        -7.5627 
 173   2.0000      -0.265206        -7.2166 
 174   2.0000      -0.231261        -6.2929 
 175   2.0000      -0.183694        -4.9986 
 176   2.0000      -0.173711        -4.7269 
 177   2.0000      -0.062318        -1.6957 
 178   2.0000      -0.051088        -1.3902 
 179   0.0000       0.034925         0.9504 
 180   0.0000       0.057490         1.5644 
 181   0.0000       0.082138         2.2351 
 182   0.0000       0.098090         2.6692 
 183   0.0000       0.102275         2.7831 
 184   0.0000       0.129879         3.5342 
 185   0.0000       0.139209         3.7881 
 186   0.0000       0.148360         4.0371 
 187   0.0000       0.163431         4.4472 
 188   0.0000       0.165727         4.5097 
 189   0.0000       0.169420         4.6102 
 190   0.0000       0.172610         4.6970 
 191   0.0000       0.172743         4.7006 
 192   0.0000       0.174914         4.7597 
 193   0.0000       0.191761         5.2181 
 194   0.0000       0.204484         5.5643 
 195   0.0000       0.206335         5.6147 
 196   0.0000       0.210452         5.7267 
 197   0.0000       0.212104         5.7717 
 198   0.0000       0.217170         5.9095 
 199   0.0000       0.223600         6.0845 
 200   0.0000       0.232687         6.3317 
 201   0.0000       0.235221         6.4007 
 202   0.0000       0.235830         6.4172 
 203   0.0000       0.240063         6.5325 
 204   0.0000       0.243875         6.6362 
 205   0.0000       0.246748         6.7144 
 206   0.0000       0.253057         6.8860 
 207   0.0000       0.254457         6.9241 
 208   0.0000       0.255020         6.9395 
 209   0.0000       0.257863         7.0168 
 210   0.0000       0.263725         7.1763 
 211   0.0000       0.264902         7.2084 
 212   0.0000       0.267010         7.2657 
 213   0.0000       0.273207         7.4343 
 214   0.0000       0.278285         7.5725 
 215   0.0000       0.280425         7.6307 
 216   0.0000       0.282779         7.6948 
 217   0.0000       0.285231         7.7615 
 218   0.0000       0.287898         7.8341 
 219   0.0000       0.288249         7.8437 
 220   0.0000       0.292376         7.9559 
 221   0.0000       0.293900         7.9974 
 222   0.0000       0.297603         8.0982 
 223   0.0000       0.298203         8.1145 
 224   0.0000       0.300301         8.1716 
 225   0.0000       0.303555         8.2601 
 226   0.0000       0.305262         8.3066 
 227   0.0000       0.306072         8.3286 
 228   0.0000       0.315076         8.5737 
 229   0.0000       0.317895         8.6504 
 230   0.0000       0.325975         8.8702 
 231   0.0000       0.326981         8.8976 
 232   0.0000       0.329481         8.9656 
 233   0.0000       0.334454         9.1010 
 234   0.0000       0.338513         9.2114 
 235   0.0000       0.355486         9.6733 
 236   0.0000       0.358842         9.7646 
 237   0.0000       0.362588         9.8665 
 238   0.0000       0.381524        10.3818 
 239   0.0000       0.393432        10.7058 
 240   0.0000       0.399001        10.8574 
 241   0.0000       0.401134        10.9154 
 242   0.0000       0.407204        11.0806 
 243   0.0000       0.419178        11.4064 
 244   0.0000       0.425601        11.5812 
 245   0.0000       0.428386        11.6570 
 246   0.0000       0.436146        11.8681 
 247   0.0000       0.438210        11.9243 
 248   0.0000       0.441657        12.0181 
 249   0.0000       0.445312        12.1176 
 250   0.0000       0.450921        12.2702 
 251   0.0000       0.456124        12.4118 
 252   0.0000       0.465131        12.6569 
 253   0.0000       0.466351        12.6900 
 254   0.0000       0.470055        12.7908 
 255   0.0000       0.474624        12.9152 
 256   0.0000       0.476831        12.9752 
 257   0.0000       0.483714        13.1625 
 258   0.0000       0.488013        13.2795 
 259   0.0000       0.493826        13.4377 
 260   0.0000       0.502294        13.6681 
 261   0.0000       0.503791        13.7088 
 262   0.0000       0.507339        13.8054 
 263   0.0000       0.508336        13.8325 
 264   0.0000       0.513314        13.9680 
 265   0.0000       0.516258        14.0481 
 266   0.0000       0.520234        14.1563 
 267   0.0000       0.524563        14.2741 
 268   0.0000       0.531042        14.4504 
 269   0.0000       0.541164        14.7258 
 270   0.0000       0.543342        14.7851 
 271   0.0000       0.546647        14.8750 
 272   0.0000       0.548476        14.9248 
 273   0.0000       0.550283        14.9740 
 274   0.0000       0.554609        15.0917 
 275   0.0000       0.559118        15.2144 
 276   0.0000       0.567422        15.4403 
 277   0.0000       0.570735        15.5305 
 278   0.0000       0.578164        15.7326 
 279   0.0000       0.584776        15.9126 
 280   0.0000       0.588471        16.0131 
 281   0.0000       0.593090        16.1388 
 282   0.0000       0.595502        16.2044 
 283   0.0000       0.597767        16.2661 
 284   0.0000       0.602072        16.3832 
 285   0.0000       0.603977        16.4351 
 286   0.0000       0.607489        16.5306 
 287   0.0000       0.609676        16.5901 
 288   0.0000       0.613623        16.6975 
 289   0.0000       0.618238        16.8231 
 290   0.0000       0.624642        16.9974 
 291   0.0000       0.628193        17.0940 
 292   0.0000       0.631378        17.1807 
 293   0.0000       0.635258        17.2862 
 294   0.0000       0.642404        17.4807 
 295   0.0000       0.647704        17.6249 
 296   0.0000       0.655645        17.8410 
 297   0.0000       0.656711        17.8700 
 298   0.0000       0.660397        17.9703 
 299   0.0000       0.662607        18.0304 
 300   0.0000       0.667833        18.1727 
 301   0.0000       0.670862        18.2551 
 302   0.0000       0.672179        18.2909 
 303   0.0000       0.674643        18.3580 
 304   0.0000       0.677581        18.4379 
 305   0.0000       0.679957        18.5026 
 306   0.0000       0.683955        18.6114 
 307   0.0000       0.687671        18.7125 
 308   0.0000       0.690579        18.7916 
 309   0.0000       0.696578        18.9548 
 310   0.0000       0.698771        19.0145 
 311   0.0000       0.703453        19.1419 
 312   0.0000       0.705129        19.1875 
 313   0.0000       0.706393        19.2219 
 314   0.0000       0.713909        19.4265 
 315   0.0000       0.714297        19.4370 
 316   0.0000       0.716474        19.4963 
 317   0.0000       0.717406        19.5216 
 318   0.0000       0.719123        19.5683 
 319   0.0000       0.722480        19.6597 
 320   0.0000       0.725142        19.7321 
 321   0.0000       0.729140        19.8409 
 322   0.0000       0.730852        19.8875 
 323   0.0000       0.735382        20.0108 
 324   0.0000       0.741488        20.1769 
 325   0.0000       0.742167        20.1954 
 326   0.0000       0.743639        20.2355 
 327   0.0000       0.747881        20.3509 
 328   0.0000       0.750044        20.4097 
 329   0.0000       0.754619        20.5342 
 330   0.0000       0.757261        20.6061 
 331   0.0000       0.759418        20.6648 
 332   0.0000       0.761672        20.7262 
 333   0.0000       0.763620        20.7791 
 334   0.0000       0.766925        20.8691 
 335   0.0000       0.767560        20.8864 
 336   0.0000       0.775190        21.0940 
 337   0.0000       0.777333        21.1523 
 338   0.0000       0.780505        21.2386 
 339   0.0000       0.787152        21.4195 
 340   0.0000       0.789061        21.4714 
 341   0.0000       0.792424        21.5630 
 342   0.0000       0.795182        21.6380 
 343   0.0000       0.795774        21.6541 
 344   0.0000       0.800079        21.7713 
 345   0.0000       0.800520        21.7833 
 346   0.0000       0.802850        21.8467 
 347   0.0000       0.808255        21.9937 
 348   0.0000       0.812999        22.1228 
 349   0.0000       0.814989        22.1770 
 350   0.0000       0.816269        22.2118 
 351   0.0000       0.821407        22.3516 
 352   0.0000       0.822312        22.3762 
 353   0.0000       0.825603        22.4658 
 354   0.0000       0.825958        22.4755 
 355   0.0000       0.828484        22.5442 
 356   0.0000       0.832586        22.6558 
 357   0.0000       0.835996        22.7486 
 358   0.0000       0.838834        22.8258 
 359   0.0000       0.840017        22.8580 
 360   0.0000       0.843995        22.9663 
 361   0.0000       0.845647        23.0112 
 362   0.0000       0.848700        23.0943 
 363   0.0000       0.850429        23.1413 
 364   0.0000       0.851129        23.1604 
 365   0.0000       0.856217        23.2989 
 366   0.0000       0.858624        23.3644 
 367   0.0000       0.860602        23.4182 
 368   0.0000       0.862060        23.4578 
 369   0.0000       0.866133        23.5687 
 370   0.0000       0.867845        23.6153 
 371   0.0000       0.869328        23.6556 
 372   0.0000       0.871785        23.7225 
 373   0.0000       0.874563        23.7981 
 374   0.0000       0.875155        23.8142 
 375   0.0000       0.875997        23.8371 
 376   0.0000       0.878229        23.8978 
 377   0.0000       0.882148        24.0045 
 378   0.0000       0.886442        24.1213 
 379   0.0000       0.889589        24.2069 
 380   0.0000       0.890584        24.2340 
 381   0.0000       0.894762        24.3477 
 382   0.0000       0.899580        24.4788 
 383   0.0000       0.902903        24.5692 
 384   0.0000       0.904956        24.6251 
 385   0.0000       0.906713        24.6729 
 386   0.0000       0.908942        24.7336 
 387   0.0000       0.915139        24.9022 
 388   0.0000       0.916073        24.9276 
 389   0.0000       0.918136        24.9837 
 390   0.0000       0.920303        25.0427 
 391   0.0000       0.925365        25.1805 
 392   0.0000       0.925828        25.1931 
 393   0.0000       0.930534        25.3211 
 394   0.0000       0.932830        25.3836 
 395   0.0000       0.933635        25.4055 
 396   0.0000       0.935383        25.4531 
 397   0.0000       0.938085        25.5266 
 398   0.0000       0.941460        25.6184 
 399   0.0000       0.941989        25.6328 
 400   0.0000       0.947171        25.7738 
 401   0.0000       0.950824        25.8732 
 402   0.0000       0.951369        25.8881 
 403   0.0000       0.955077        25.9890 
 404   0.0000       0.958612        26.0852 
 405   0.0000       0.959196        26.1010 
 406   0.0000       0.962916        26.2023 
 407   0.0000       0.965168        26.2636 
 408   0.0000       0.965832        26.2816 
 409   0.0000       0.971946        26.4480 
 410   0.0000       0.978943        26.6384 
 411   0.0000       0.984212        26.7818 
 412   0.0000       0.986467        26.8431 
 413   0.0000       0.993648        27.0385 
 414   0.0000       0.995048        27.0766 
 415   0.0000       0.998215        27.1628 
 416   0.0000       1.003853        27.3162 
 417   0.0000       1.007488        27.4151 
 418   0.0000       1.008332        27.4381 
 419   0.0000       1.017830        27.6966 
 420   0.0000       1.023729        27.8571 
 421   0.0000       1.025915        27.9166 
 422   0.0000       1.032874        28.1059 
 423   0.0000       1.037236        28.2246 
 424   0.0000       1.039132        28.2762 
 425   0.0000       1.044276        28.4162 
 426   0.0000       1.054838        28.7036 
 427   0.0000       1.064503        28.9666 
 428   0.0000       1.069451        29.1012 
 429   0.0000       1.072765        29.1914 
 430   0.0000       1.073513        29.2118 
 431   0.0000       1.083070        29.4718 
 432   0.0000       1.086152        29.5557 
 433   0.0000       1.086965        29.5778 
 434   0.0000       1.093742        29.7622 
 435   0.0000       1.099034        29.9062 
 436   0.0000       1.108140        30.1540 
 437   0.0000       1.110423        30.2161 
 438   0.0000       1.112458        30.2715 
 439   0.0000       1.114876        30.3373 
 440   0.0000       1.116439        30.3799 
 441   0.0000       1.119325        30.4584 
 442   0.0000       1.124497        30.5991 
 443   0.0000       1.129111        30.7247 
 444   0.0000       1.133455        30.8429 
 445   0.0000       1.135724        30.9046 
 446   0.0000       1.140785        31.0423 
 447   0.0000       1.143213        31.1084 
 448   0.0000       1.146619        31.2011 
 449   0.0000       1.148625        31.2557 
 450   0.0000       1.155668        31.4473 
 451   0.0000       1.157145        31.4875 
 452   0.0000       1.157722        31.5032 
 453   0.0000       1.159633        31.5552 
 454   0.0000       1.164407        31.6851 
 455   0.0000       1.168749        31.8033 
 456   0.0000       1.172174        31.8965 
 457   0.0000       1.177152        32.0319 
 458   0.0000       1.183785        32.2124 
 459   0.0000       1.187965        32.3262 
 460   0.0000       1.190830        32.4041 
 461   0.0000       1.192748        32.4563 
 462   0.0000       1.196914        32.5697 
 463   0.0000       1.204187        32.7676 
 464   0.0000       1.206598        32.8332 
 465   0.0000       1.209527        32.9129 
 466   0.0000       1.211131        32.9566 
 467   0.0000       1.213017        33.0079 
 468   0.0000       1.221238        33.2316 
 469   0.0000       1.224221        33.3128 
 470   0.0000       1.227660        33.4063 
 471   0.0000       1.231660        33.5152 
 472   0.0000       1.232334        33.5335 
 473   0.0000       1.237738        33.6806 
 474   0.0000       1.240309        33.7505 
 475   0.0000       1.242192        33.8018 
 476   0.0000       1.245525        33.8925 
 477   0.0000       1.248406        33.9709 
 478   0.0000       1.256571        34.1930 
 479   0.0000       1.257035        34.2057 
 480   0.0000       1.260006        34.2865 
 481   0.0000       1.263579        34.3837 
 482   0.0000       1.264594        34.4113 
 483   0.0000       1.269813        34.5534 
 484   0.0000       1.276094        34.7243 
 485   0.0000       1.280210        34.8363 
 486   0.0000       1.282868        34.9086 
 487   0.0000       1.286527        35.0082 
 488   0.0000       1.289401        35.0864 
 489   0.0000       1.291500        35.1435 
 490   0.0000       1.296629        35.2831 
 491   0.0000       1.299849        35.3707 
 492   0.0000       1.301447        35.4142 
 493   0.0000       1.305904        35.5355 
 494   0.0000       1.311981        35.7008 
 495   0.0000       1.314715        35.7752 
 496   0.0000       1.317433        35.8492 
 497   0.0000       1.321002        35.9463 
 498   0.0000       1.328359        36.1465 
 499   0.0000       1.330556        36.2063 
 500   0.0000       1.332429        36.2572 
 501   0.0000       1.338396        36.4196 
[...]
      pz      :     0.021768  p :     0.079277
      px      :     0.042861
      py      :     0.014648
 77 H s       :     0.895478  s :     0.895478
      pz      :     0.047131  p :     0.078348
      px      :     0.015003
      py      :     0.016214
 78 H s       :     0.895898  s :     0.895898
      pz      :     0.025449  p :     0.078258
      px      :     0.020704
      py      :     0.032104
 79 H s       :     0.907108  s :     0.907108
      pz      :     0.022587  p :     0.087267
      px      :     0.021897
      py      :     0.042782
 80 H s       :     0.879651  s :     0.879651
      pz      :     0.038165  p :     0.083206
      px      :     0.029496
      py      :     0.015545
 81 H s       :     0.888736  s :     0.888736
      pz      :     0.037555  p :     0.083312
      px      :     0.016080
      py      :     0.029678
 82 H s       :     0.914396  s :     0.914396
      pz      :     0.022506  p :     0.087138
      px      :     0.030915
      py      :     0.033717
 83 H s       :     0.872342  s :     0.872342
      pz      :     0.039163  p :     0.083643
      px      :     0.015247
      py      :     0.029232
 84 H s       :     0.888806  s :     0.888806
      pz      :     0.035802  p :     0.084406
      px      :     0.031789
      py      :     0.016816
 85 H s       :     0.896086  s :     0.896086
      pz      :     0.022506  p :     0.079600
      px      :     0.014156
      py      :     0.042939
 86 H s       :     0.890821  s :     0.890821
      pz      :     0.024697  p :     0.078883
      px      :     0.032988
      py      :     0.021199
 87 H s       :     0.891319  s :     0.891319
      pz      :     0.047807  p :     0.078585
      px      :     0.015656
      py      :     0.015122
 88 H s       :     0.918366  s :     0.918366
      pz      :     0.022578  p :     0.086850
      px      :     0.041958
      py      :     0.022314
 89 H s       :     0.875226  s :     0.875226
      pz      :     0.037803  p :     0.084021
      px      :     0.030464
      py      :     0.015754


                      *****************************
                      * MAYER POPULATION ANALYSIS *
                      *****************************

  NA   - Mulliken gross atomic population
  ZA   - Total nuclear charge
  QA   - Mulliken gross atomic charge
  VA   - Mayer's total valence
  BVA  - Mayer's bonded valence
  FA   - Mayer's free valence

  ATOM       NA         ZA         QA         VA         BVA        FA
  0 C      5.7661     6.0000     0.2339     3.8042     3.8042     0.0000
  1 N      7.4156     7.0000    -0.4156     3.4674     3.4674     0.0000
  2 C      6.0672     6.0000    -0.0672     3.9194     3.9194    -0.0000
  3 N      7.3435     7.0000    -0.3435     3.4229     3.4229    -0.0000
  4 C      6.0738     6.0000    -0.0738     3.9606     3.9606     0.0000
  5 N      7.5652     7.0000    -0.5652     3.0685     3.0685    -0.0000
  6 C      6.0253     6.0000    -0.0253     3.9628     3.9628    -0.0000
  7 N      7.3370     7.0000    -0.3370     3.4450     3.4450    -0.0000
  8 C      5.7710     6.0000     0.2290     3.8042     3.8042     0.0000
  9 N      7.5660     7.0000    -0.5660     3.0919     3.0919    -0.0000
 10 C      5.8953     6.0000     0.1047     3.8632     3.8632     0.0000
 11 N      7.4394     7.0000    -0.4394     3.3750     3.3750    -0.0000
 12 C      6.0585     6.0000    -0.0585     3.9100     3.9100    -0.0000
 13 N      7.4504     7.0000    -0.4504     3.3212     3.3212    -0.0000
 14 C      5.7803     6.0000     0.2197     3.8093     3.8093    -0.0000
 15 N      7.4417     7.0000    -0.4417     3.3634     3.3634    -0.0000
 16 C      5.7443     6.0000     0.2557     3.8051     3.8051     0.0000
 17 C      6.0331     6.0000    -0.0331     3.9662     3.9662     0.0000
 18 C      6.1749     6.0000    -0.1749     3.6808     3.6808     0.0000
 19 C      5.7722     6.0000     0.2278     3.9027     3.9027     0.0000
 20 C      5.8103     6.0000     0.1897     3.8210     3.8210     0.0000
 21 C      6.0663     6.0000    -0.0663     3.8915     3.8915    -0.0000
 22 C      6.0902     6.0000    -0.0902     3.9850     3.9850    -0.0000
 23 C      6.0665     6.0000    -0.0665     3.9881     3.9881    -0.0000
 24 C      5.7826     6.0000     0.2174     3.8298     3.8298     0.0000
 25 C      5.8853     6.0000     0.1147     3.8930     3.8930    -0.0000
 26 C      6.0668     6.0000    -0.0668     3.9080     3.9080     0.0000
 27 C      5.7539     6.0000     0.2461     3.9019     3.9019    -0.0000
 28 C      6.0402     6.0000    -0.0402     3.9904     3.9904     0.0000
 29 C      6.1955     6.0000    -0.1955     3.7287     3.7287    -0.0000
 30 C      5.7787     6.0000     0.2213     3.7792     3.7792     0.0000
 31 C      5.8106     6.0000     0.1894     3.8336     3.8336     0.0000
 32 C      6.0643     6.0000    -0.0643     3.9136     3.9136    -0.0000
 33 C      6.1016     6.0000    -0.1016     3.9847     3.9847    -0.0000
 34 C      6.0500     6.0000    -0.0500     3.9993     3.9993     0.0000
 35 C      5.8207     6.0000     0.1793     3.8296     3.8296    -0.0000
 36 C      5.8793     6.0000     0.1207     3.9095     3.9095     0.0000
 37 C      6.0703     6.0000    -0.0703     3.9139     3.9139     0.0000
 38 C      5.7553     6.0000     0.2447     3.7952     3.7952     0.0000
 39 C      6.0656     6.0000    -0.0656     3.9986     3.9986    -0.0000
 40 C      6.2033     6.0000    -0.2033     3.7522     3.7522     0.0000
 41 C      5.7843     6.0000     0.2157     3.8738     3.8738    -0.0000
 42 C      5.7886     6.0000     0.2114     3.8324     3.8324    -0.0000
 43 C      6.0773     6.0000    -0.0773     3.9050     3.9050    -0.0000
 44 C      6.0918     6.0000    -0.0918     3.9836     3.9836     0.0000
 45 C      6.0391     6.0000    -0.0391     3.9958     3.9958     0.0000
 46 C      5.8148     6.0000     0.1852     3.8204     3.8204     0.0000
 47 C      5.8833     6.0000     0.1167     3.8971     3.8971    -0.0000
 48 C      6.0823     6.0000    -0.0823     3.8975     3.8975    -0.0000
 49 C      5.7914     6.0000     0.2086     3.8642     3.8642    -0.0000
 50 C      6.0665     6.0000    -0.0665     3.9902     3.9902    -0.0000
 51 C      6.1897     6.0000    -0.1897     3.7413     3.7413     0.0000
 52 H      0.9204     1.0000     0.0796     0.9825     0.9825     0.0000
 53 H      1.0076     1.0000    -0.0076     1.0023     1.0023     0.0000
 54 H      0.9343     1.0000     0.0657     1.0047     1.0047     0.0000
 55 H      0.9216     1.0000     0.0784     0.9832     0.9832     0.0000
 56 H      0.9172     1.0000     0.0828     0.9727     0.9727    -0.0000
 57 H      0.9253     1.0000     0.0747     0.9844     0.9844    -0.0000
 58 H      0.9272     1.0000     0.0728     0.9871     0.9871     0.0000
 59 H      1.0281     1.0000    -0.0281     0.9959     0.9959    -0.0000
 60 H      0.9356     1.0000     0.0644     1.0055     1.0055     0.0000
 61 H      0.8233     1.0000     0.1767     1.0437     1.0437     0.0000
 62 H      0.8318     1.0000     0.1682     1.0433     1.0433    -0.0000
 63 H      0.9468     1.0000     0.0532     0.9862     0.9862    -0.0000
 64 H      1.0342     1.0000    -0.0342     0.9933     0.9933     0.0000
 65 H      0.9589     1.0000     0.0411     1.0079     1.0079    -0.0000
 66 H      0.9447     1.0000     0.0553     0.9846     0.9846     0.0000
 67 H      0.9413     1.0000     0.0587     0.9716     0.9716    -0.0000
 68 H      0.9438     1.0000     0.0562     0.9864     0.9864    -0.0000
 69 H      0.9409     1.0000     0.0591     0.9831     0.9831     0.0000
 70 H      1.0143     1.0000    -0.0143     0.9979     0.9979     0.0000
 71 H      0.9530     1.0000     0.0470     1.0076     1.0076    -0.0000
 72 H      0.9616     1.0000     0.0384     0.9860     0.9860     0.0000
 73 H      1.0190     1.0000    -0.0190     0.9963     0.9963     0.0000
 74 H      0.9697     1.0000     0.0303     1.0092     1.0092     0.0000
 75 H      0.9630     1.0000     0.0370     0.9867     0.9867    -0.0000
 76 H      0.9530     1.0000     0.0470     0.9703     0.9703    -0.0000
 77 H      0.9534     1.0000     0.0466     0.9843     0.9843    -0.0000
 78 H      0.9542     1.0000     0.0458     0.9836     0.9836     0.0000
 79 H      1.0116     1.0000    -0.0116     1.0018     1.0018     0.0000
 80 H      0.9700     1.0000     0.0300     1.0062     1.0062    -0.0000
 81 H      0.9496     1.0000     0.0504     0.9852     0.9852    -0.0000
 82 H      1.0234     1.0000    -0.0234     0.9950     0.9950     0.0000
 83 H      0.9575     1.0000     0.0425     1.0107     1.0107    -0.0000
 84 H      0.9507     1.0000     0.0493     0.9864     0.9864    -0.0000
 85 H      0.9457     1.0000     0.0543     0.9713     0.9713     0.0000
 86 H      0.9438     1.0000     0.0562     0.9841     0.9841    -0.0000
 87 H      0.9455     1.0000     0.0545     0.9852     0.9852    -0.0000
 88 H      1.0304     1.0000    -0.0304     0.9912     0.9912    -0.0000
 89 H      0.9607     1.0000     0.0393     1.0059     1.0059    -0.0000

  Mayer bond orders larger than 0.100000
B(  0-C ,  1-N ) :   1.1971 B(  0-C , 17-C ) :   1.5294 B(  0-C , 52-H ) :   0.9670 
B(  1-N ,  8-C ) :   1.1889 B(  1-N , 10-C ) :   0.9299 B(  2-C , 12-C ) :   1.5749 
B(  2-C , 16-C ) :   1.2781 B(  2-C , 53-H ) :   0.9792 B(  3-N , 14-C ) :   1.1766 
B(  3-N , 16-C ) :   1.2026 B(  3-N , 61-H ) :   0.8957 B(  4-C ,  6-C ) :   1.3477 
B(  4-C , 17-C ) :   1.3499 B(  4-C , 18-C ) :   1.0740 B(  5-N , 19-C ) :   1.3700 
B(  5-N , 27-C ) :   1.4443 B(  6-C ,  8-C ) :   1.5331 B(  6-C , 54-H ) :   0.9707 
B(  7-N , 30-C ) :   1.1839 B(  7-N , 38-C ) :   1.2150 B(  7-N , 62-H ) :   0.9010 
B(  8-C , 55-H ) :   0.9681 B(  9-N , 41-C ) :   1.4312 B(  9-N , 49-C ) :   1.3965 
B( 10-C , 56-H ) :   0.9766 B( 10-C , 57-H ) :   0.9810 B( 10-C , 58-H ) :   0.9817 
B( 11-N , 20-C ) :   1.1006 B( 11-N , 24-C ) :   1.1351 B( 11-N , 25-C ) :   0.9613 
B( 12-C , 14-C ) :   1.2789 B( 12-C , 59-H ) :   0.9772 B( 13-N , 31-C ) :   1.0863 
B( 13-N , 35-C ) :   1.0753 B( 13-N , 36-C ) :   0.9803 B( 14-C , 18-C ) :   1.2572 
B( 15-N , 42-C ) :   1.1251 B( 15-N , 46-C ) :   1.0918 B( 15-N , 47-C ) :   0.9661 
B( 16-C , 51-C ) :   1.2426 B( 17-C , 60-H ) :   0.9710 B( 18-C , 19-C ) :   1.3020 
B( 19-C , 21-C ) :   1.1683 B( 20-C , 28-C ) :   1.6269 B( 20-C , 63-H ) :   0.9708 
B( 21-C , 26-C ) :   1.6778 B( 21-C , 64-H ) :   0.9722 B( 22-C , 23-C ) :   1.2590 
B( 22-C , 28-C ) :   1.2809 B( 22-C , 29-C ) :   1.2517 B( 23-C , 24-C ) :   1.6318 
B( 23-C , 65-H ) :   0.9721 B( 24-C , 66-H ) :   0.9690 B( 25-C , 67-H ) :   0.9763 
B( 25-C , 68-H ) :   0.9833 B( 25-C , 69-H ) :   0.9819 B( 26-C , 27-C ) :   1.1758 
B( 26-C , 70-H ) :   0.9754 B( 27-C , 29-C ) :   1.2404 B( 28-C , 71-H ) :   0.9709 
B( 29-C , 30-C ) :   1.1810 B( 30-C , 32-C ) :   1.3455 B( 31-C , 39-C ) :   1.6796 
B( 31-C , 72-H ) :   0.9708 B( 32-C , 37-C ) :   1.5143 B( 32-C , 73-H ) :   0.9771 
B( 33-C , 34-C ) :   1.2369 B( 33-C , 39-C ) :   1.2286 B( 33-C , 40-C ) :   1.3467 
B( 34-C , 35-C ) :   1.6779 B( 34-C , 74-H ) :   0.9709 B( 35-C , 75-H ) :   0.9708 
B( 36-C , 76-H ) :   0.9756 B( 36-C , 77-H ) :   0.9825 B( 36-C , 78-H ) :   0.9837 
B( 37-C , 38-C ) :   1.3399 B( 37-C , 79-H ) :   0.9792 B( 38-C , 40-C ) :   1.1826 
B( 39-C , 80-H ) :   0.9721 B( 40-C , 41-C ) :   1.1723 B( 41-C , 43-C ) :   1.2540 
B( 42-C , 50-C ) :   1.6415 B( 42-C , 81-H ) :   0.9696 B( 43-C , 48-C ) :   1.5970 
B( 43-C , 82-H ) :   0.9754 B( 44-C , 45-C ) :   1.2796 B( 44-C , 50-C ) :   1.2507 
B( 44-C , 51-C ) :   1.2501 B( 45-C , 46-C ) :   1.6333 B( 45-C , 83-H ) :   0.9703 
B( 46-C , 84-H ) :   0.9708 B( 47-C , 85-H ) :   0.9760 B( 47-C , 86-H ) :   0.9826 
B( 47-C , 87-H ) :   0.9829 B( 48-C , 49-C ) :   1.2488 B( 48-C , 88-H ) :   0.9727 
B( 49-C , 51-C ) :   1.1902 B( 50-C , 89-H ) :   0.9721 

-------
TIMINGS
-------

Total SCF time: 0 days 0 hours 35 min 48 sec 

Total time                  ....    2148.929 sec
Sum of individual times     ....    2144.116 sec  ( 99.8%)

Fock matrix formation       ....    2119.253 sec  ( 98.6%)
Diagonalization             ....       6.369 sec  (  0.3%)
Density matrix formation    ....       0.749 sec  (  0.0%)
Population analysis         ....       0.519 sec  (  0.0%)
Initial guess               ....       2.049 sec  (  0.1%)
Orbital Transformation      ....       0.000 sec  (  0.0%)
Orbital Orthonormalization  ....       0.000 sec  (  0.0%)
DIIS solution               ....       3.174 sec  (  0.1%)
SOSCF solution              ....      10.947 sec  (  0.5%)

Maximum memory used throughout the entire SCF-calculation: 302.6 MB


           ************************************************************
           *        Program running with 16 parallel MPI-processes    *
           *              working on a common directory               *
           ************************************************************

------------------------------------------------------------------------------
                                ORCA  MP2 
------------------------------------------------------------------------------

Freezing NCore=104 chemical core electrons

----------
MP2 ENERGY (disk based algorithm)
----------

Dimension of the basis                    ...  918
Memory devoted to MP2                     ... 2000 MB   
Data format for buffers                   ... DOUBLE
Compression type for matrix containers    ... UNCOMPRESSED

-------------------------------
PARTIAL EXCHANGE TRANSFORMATION
-------------------------------

Transformation type                        ... one-operator
Generation of integrals (i,mue|j,nue)      ... ON
Generation of integrals (mue,kappa|nue,tau)... OFF
Generation of integrals (i,mue|a,nue)      ... OFF
Dimension of the basis                     ...  918
Number of internal MOs                     ...  127 (  52- 178)
Pair cutoff                                ... 2.500e-12 Eh
Number of AO pairs in the trafo            ... 421821
Total Number of distinct AO pairs          ... 421821
Memory devoted for trafo                   ... 2000.0 MB 
Max. Number of MO pairs treated together   ...  311      
Number Format for Storage                  ... Double (8 Byte)
Integral package used                      ... LIBINT

Starting integral evaluation:
    ... done with AO integral generation
Closing buffer AOK     (37.81 GB; CompressionRatio= 1.34)
Collecting buffer AOK 
Number of MO pairs included in the trafo   ... 8128
------------------------
SORTING OF (i,mue|j,nue)
------------------------

IBATCH = 1 of  2
IBATCH = 2 of  2
Closing buffer KAO     (51.03 GB; CompressionRatio= 1.00)
Collecting buffer KAO 
N(AO-Batches) Done                         ...  85675118 
N(AO-Batches) Skipped                      ...  81814732 
N(IJ)-pairs Skipped                        ...         0 
TOTAL TIME for half transformation         ...  2995.930 sec
AO-integral generation                     ...   209.527 sec
Half transformation                        ...   368.056 sec
K-integral sorting                         ...  2224.096 sec
Process 13:   Internal MO 156
Process 10:   Internal MO 132
Process  4:   Internal MO  84
Process  7:   Internal MO 108

Finished integral transformation - now doing MP2 part

OPERATOR COMBINATION   0   0: ij=( 52..178, 52..178)
Process  1:   Internal MO  60
Process  0:   Internal MO  54
Process  0:   Internal MO  57
Process  2:   Internal MO  69
Process  1:   Internal MO  63
Process  5:   Internal MO  93
Process  3:   Internal MO  78
Process 11:   Internal MO 141
Process  8:   Internal MO 117
Process  1:   Internal MO  66
Process  2:   Internal MO  72
Process  6:   Internal MO 102
Process  4:   Internal MO  87
Process 14:   Internal MO 165
Process  2:   Internal MO  75
Process  3:   Internal MO  81
Process  9:   Internal MO 126
Process  7:   Internal MO 111
Process  5:   Internal MO  96
Process 12:   Internal MO 150
Process  4:   Internal MO  90
Process 10:   Internal MO 135
Process 15:   Internal MO 174
Process  6:   Internal MO 105
Process  8:   Internal MO 120
Process 11:   Internal MO 144
Process  5:   Internal MO  99
Process 13:   Internal MO 159
Process  7:   Internal MO 114
Process  9:   Internal MO 129
Process 14:   Internal MO 168
Process  8:   Internal MO 123
Process 12:   Internal MO 153
Process 10:   Internal MO 138
Process 11:   Internal MO 147
Process 15:   Internal MO 177
Process 13:   Internal MO 162
Process 14:   Internal MO 171
-----------------------------------------------
 MP2 CORRELATION ENERGY   :     -7.267259380 Eh
-----------------------------------------------


-------
TIMINGS
-------
Total time                : 3529.032 sec
Integral trafo            : 2998.080 sec ( 85.0%)
K(i,j)                    :    6.114 sec (  0.2%)
T(i,j)                    :    0.083 sec (  0.0%)

---------------------------------------
MP2 TOTAL ENERGY:    -2130.879145658 Eh
---------------------------------------

Maximum memory used throughout the entire MP2-calculation: 2275.2 MB

-------------------------   --------------------
FINAL SINGLE POINT ENERGY     -2130.879145658432
-------------------------   --------------------


                            ***************************************
                            *     ORCA property calculations      *
                            ***************************************


  WARNING: The energy has been calculated at the MP2 level but the densities
           used in the property calculations are still SCF densities
           MP2 response densities have not been calculated 
           use %mp2 Density relaxed end
           or  %mp2 Density unrelaxed end

                                    ---------------------
                                    Active property flags
                                    ---------------------
   (+) Dipole Moment


------------------------------------------------------------------------------
                       ORCA ELECTRIC PROPERTIES CALCULATION
------------------------------------------------------------------------------

Dipole Moment Calculation                       ... on
Quadrupole Moment Calculation                   ... off
Polarizability Calculation                      ... off
GBWName                                         ... /scratch/allen/tmpyp4_amber_gaff2/conf1/conf1/Conf99.orca.gbw
Electron density                                ... /scratch/allen/tmpyp4_amber_gaff2/conf1/conf1/Conf99.orca.scfp
The origin for moment calculation is the CENTER OF MASS  = ( 0.002087, -0.002783  0.003840)

-------------
DIPOLE MOMENT
-------------
                                X             Y             Z
Electronic contribution:     -4.16003       4.59409      -0.16396
Nuclear contribution   :     -0.01956       0.17253       0.21653
                        -----------------------------------------
Total Dipole Moment    :     -4.17959       4.76662       0.05257
                        -----------------------------------------
Magnitude (a.u.)       :      6.33975
Magnitude (Debye)      :     16.11436



--------------------
Rotational spectrum 
--------------------
 
Rotational constants in cm-1:     0.001498     0.001473     0.000763 
Rotational constants in MHz :    44.899261    44.144718    22.867834 

 Dipole components along the rotational axes: 
x,y,z [a.u.] :    -5.695121     2.784932     0.046222 
x,y,z [Debye]:   -14.475847     7.078736     0.117487 

 

Timings for individual modules:

Sum of individual times         ...     5706.082 sec (=  95.101 min)
GTO integral calculation        ...        3.270 sec (=   0.055 min)   0.1 %
SCF iterations                  ...     2150.023 sec (=  35.834 min)  37.7 %
MP2 module                      ...     3552.789 sec (=  59.213 min)  62.3 %
                             ****ORCA TERMINATED NORMALLY****
TOTAL RUN TIME: 0 days 1 hours 35 minutes 9 seconds 398 msec
# of primitive gaussian functions

