
                                 *****************
                                 * O   R   C   A *
                                 *****************

                                            #,                                       
                                            ###                                      
                                            ####                                     
                                            #####                                    
                                            ######                                   
                                           ########,                                 
                                     ,,################,,,,,                         
                               ,,#################################,,                 
                          ,,##########################################,,             
                       ,#########################################, ''#####,          
                    ,#############################################,,   '####,        
                  ,##################################################,,,,####,       
                ,###########''''           ''''###############################       
              ,#####''   ,,,,##########,,,,          '''####'''          '####       
            ,##' ,,,,###########################,,,                        '##       
           ' ,,###''''                  '''############,,,                           
         ,,##''                                '''############,,,,        ,,,,,,###''
      ,#''                                            '''#######################'''  
     '                                                          ''''####''''         
             ,#######,   #######,   ,#######,      ##                                
            ,#'     '#,  ##    ##  ,#'     '#,    #''#        ######   ,####,        
            ##       ##  ##   ,#'  ##            #'  '#       #        #'  '#        
            ##       ##  #######   ##           ,######,      #####,   #    #        
            '#,     ,#'  ##    ##  '#,     ,#' ,#      #,         ##   #,  ,#        
             '#######'   ##     ##  '#######'  #'      '#     #####' # '####'        



                  #######################################################
                  #                        -***-                        #
                  #          Department of theory and spectroscopy      #
                  #    Directorship and core code : Frank Neese         #
                  #        Max Planck Institute fuer Kohlenforschung    #
                  #                Kaiser Wilhelm Platz 1               #
                  #                 D-45470 Muelheim/Ruhr               #
                  #                      Germany                        #
                  #                                                     #
                  #                  All rights reserved                #
                  #                        -***-                        #
                  #######################################################


                         Program Version 5.0.4 -  RELEASE  -


 With contributions from (in alphabetic order):
   Daniel Aravena         : Magnetic Suceptibility
   Michael Atanasov       : Ab Initio Ligand Field Theory (pilot matlab implementation)
   Alexander A. Auer      : GIAO ZORA, VPT2 properties, NMR spectrum
   Ute Becker             : Parallelization
   Giovanni Bistoni       : ED, misc. LED, open-shell LED, HFLD
   Martin Brehm           : Molecular dynamics
   Dmytro Bykov           : SCF Hessian
   Vijay G. Chilkuri      : MRCI spin determinant printing, contributions to CSF-ICE
   Dipayan Datta          : RHF DLPNO-CCSD density
   Achintya Kumar Dutta   : EOM-CC, STEOM-CC
   Dmitry Ganyushin       : Spin-Orbit,Spin-Spin,Magnetic field MRCI
   Miquel Garcia          : C-PCM and meta-GGA Hessian, CC/C-PCM, Gaussian charge scheme
   Yang Guo               : DLPNO-NEVPT2, F12-NEVPT2, CIM, IAO-localization
   Andreas Hansen         : Spin unrestricted coupled pair/coupled cluster methods
   Benjamin Helmich-Paris : MC-RPA, TRAH-SCF, COSX integrals
   Lee Huntington         : MR-EOM, pCC
   Robert Izsak           : Overlap fitted RIJCOSX, COSX-SCS-MP3, EOM
   Marcus Kettner         : VPT2
   Christian Kollmar      : KDIIS, OOCD, Brueckner-CCSD(T), CCSD density, CASPT2, CASPT2-K
   Simone Kossmann        : Meta GGA functionals, TD-DFT gradient, OOMP2, MP2 Hessian
   Martin Krupicka        : Initial AUTO-CI
   Lucas Lang             : DCDCAS
   Marvin Lechner         : AUTO-CI (C++ implementation), FIC-MRCC
   Dagmar Lenk            : GEPOL surface, SMD
   Dimitrios Liakos       : Extrapolation schemes; Compound Job, initial MDCI parallelization
   Dimitrios Manganas     : Further ROCIS development; embedding schemes
   Dimitrios Pantazis     : SARC Basis sets
   Anastasios Papadopoulos: AUTO-CI, single reference methods and gradients
   Taras Petrenko         : DFT Hessian,TD-DFT gradient, ASA, ECA, R-Raman, ABS, FL, XAS/XES, NRVS
   Peter Pinski           : DLPNO-MP2, DLPNO-MP2 Gradient
   Christoph Reimann      : Effective Core Potentials
   Marius Retegan         : Local ZFS, SOC
   Christoph Riplinger    : Optimizer, TS searches, QM/MM, DLPNO-CCSD(T), (RO)-DLPNO pert. Triples
   Tobias Risthaus        : Range-separated hybrids, TD-DFT gradient, RPA, STAB
   Michael Roemelt        : Original ROCIS implementation
   Masaaki Saitow         : Open-shell DLPNO-CCSD energy and density
   Barbara Sandhoefer     : DKH picture change effects
   Avijit Sen             : IP-ROCIS
   Kantharuban Sivalingam : CASSCF convergence, NEVPT2, FIC-MRCI
   Bernardo de Souza      : ESD, SOC TD-DFT
   Georgi Stoychev        : AutoAux, RI-MP2 NMR, DLPNO-MP2 response
   Willem Van den Heuvel  : Paramagnetic NMR
   Boris Wezisla          : Elementary symmetry handling
   Frank Wennmohs         : Technical directorship


 We gratefully acknowledge several colleagues who have allowed us to
 interface, adapt or use parts of their codes:
   Stefan Grimme, W. Hujo, H. Kruse, P. Pracht,  : VdW corrections, initial TS optimization,
                  C. Bannwarth, S. Ehlert          DFT functionals, gCP, sTDA/sTD-DF
   Ed Valeev, F. Pavosevic, A. Kumar             : LibInt (2-el integral package), F12 methods
   Garnet Chan, S. Sharma, J. Yang, R. Olivares  : DMRG
   Ulf Ekstrom                                   : XCFun DFT Library
   Mihaly Kallay                                 : mrcc  (arbitrary order and MRCC methods)
   Jiri Pittner, Ondrej Demel                    : Mk-CCSD
   Frank Weinhold                                : gennbo (NPA and NBO analysis)
   Christopher J. Cramer and Donald G. Truhlar   : smd solvation model
   Lars Goerigk                                  : TD-DFT with DH, B97 family of functionals
   V. Asgeirsson, H. Jonsson                     : NEB implementation
   FAccTs GmbH                                   : IRC, NEB, NEB-TS, DLPNO-Multilevel, CI-OPT
                                                   MM, QMMM, 2- and 3-layer-ONIOM, Crystal-QMMM,
                                                   LR-CPCM, SF, NACMEs, symmetry and pop. for TD-DFT,
                                                   nearIR, NL-DFT gradient (VV10), updates on ESD,
                                                   ML-optimized integration grids
   S Lehtola, MJT Oliveira, MAL Marques          : LibXC Library
   Liviu Ungur et al                             : ANISO software


 Your calculation uses the libint2 library for the computation of 2-el integrals
 For citations please refer to: http://libint.valeyev.net

 Your ORCA version has been built with support for libXC version: 5.1.0
 For citations please refer to: https://tddft.org/programs/libxc/

 This ORCA versions uses:
   CBLAS   interface :  Fast vector & matrix operations
   LAPACKE interface :  Fast linear algebra routines
   SCALAPACK package :  Parallel linear algebra routines
   Shared memory     :  Shared parallel matrices
   BLAS/LAPACK       :  OpenBLAS 0.3.15  USE64BITINT DYNAMIC_ARCH NO_AFFINITY Sandybridge SINGLE_THREADED
        Core in use  :  Sandybridge
   Copyright (c) 2011-2014, The OpenBLAS Project


================================================================================

----- Orbital basis set information -----
Your calculation utilizes the basis: cc-pVDZ 
       H, B-Ne : Obtained from the ccRepo (grant-hill.group.shef.ac.uk/ccrepo) Feb. 2017
                 T. H. Dunning, Jr., J. Chem. Phys. 90, 1007 (1989)
            He : Obtained from the ccRepo (grant-hill.group.shef.ac.uk/ccrepo) Feb. 2017
                 D. E. Woon, T. H. Dunning, Jr., J. Chem. Phys. 100, 2975 (1994)
  Li-Be, Na-Mg : Obtained from the ccRepo (grant-hill.group.shef.ac.uk/ccrepo) Feb. 2017
                 B. P. Prascher, D. E. Woon, K. A. Peterson, T. H. Dunning, Jr., A. K. Wilson, Theor. Chem. Acc. 128, 69 (2011)
         Al-Ar : Obtained from the ccRepo (grant-hill.group.shef.ac.uk/ccrepo) Feb. 2017
                 D. E. Woon, T. H. Dunning, Jr., J. Chem. Phys. 98, 1358 (1993)
            Ca : Obtained from the Peterson Research Group Website (tyr0.chem.wsu.edu/~kipeters) Feb. 2017
                 J. Koput, K. A. Peterson, J. Phys. Chem. 106, 9595 (2002)
         Sc-Zn : Obtained from the ccRepo (grant-hill.group.shef.ac.uk/ccrepo) Feb. 2017
                 N. B. Balabanov, K. A. Peterson, J. Chem. Phys. 123, 064107 (2005)
                 N. B. Balabanov, K. A. Peterson, J. Chem. Phys. 125, 074110 (2006)
         Ga-Kr : Obtained from the ccRepo (grant-hill.group.shef.ac.uk/ccrepo) Feb. 2017
                 A. K. Wilson, D. E. Woon, K. A. Peterson, T. H. Dunning, Jr., J. Chem. Phys. 110, 7667 (1999)

================================================================================
                                        WARNINGS
                       Please study these warnings very carefully!
================================================================================


WARNING: No MP2 level density has been requested!
         To caclulate MP2 level properties use
         %mp2 Density relaxed end
         or
         %mp2 Density unrelaxed end

WARNING: Post HF methods need fully converged wavefunctions
  ===> : Setting SCFConvForced true
         You can overwrite this default with %scf ConvForced false 


INFO   : the flag for use of the SHARK integral package has been found!

================================================================================
                                       INPUT FILE
================================================================================
NAME = /scratch/allen/tmpyp4_amber_gaff2/2.Mdgx/conf11/conf11/Conf311.orca
|  1> ! PAL2
|  2> ! mp2 cc-pvdz TightSCF  NoKeepInts
|  3> 
|  4> %scf
|  5>   MaxCore 2000
|  6> end
|  7> %mp2
|  8>   MaxCore 2000
|  9> end
| 10> * xyz 0 1
| 11>    C       -3.39500         6.23000         1.00200
| 12>    C        1.47400         4.04100         0.05700
| 13>    C       -2.80200         4.09300         0.04900
| 14>    C       -3.84000         4.27600        -0.87700
| 15>    C       -4.61300         5.41900        -0.83700
| 16>    C       -5.20800         7.60600         0.08800
| 17>    C        0.13200         4.30700         0.06100
| 18>    C       -0.56900         3.05600         0.04700
| 19>    C        1.64900         2.61800         0.02300
| 20>    C       -2.59100         5.10600         0.99700
| 21>    N       -4.38800         6.37500         0.09500
| 22>    N        0.38800         2.06700         0.02500
| 23>    N       -2.01000         0.39500        -0.07500
| 24>    N       -0.38800        -2.07400        -0.02700
| 25>    N        2.01000        -0.40100         0.06500
| 26>    C       -1.96000         2.86100         0.02400
| 27>    C       -2.62300         1.61500        -0.01800
| 28>    C       -5.57300        -4.32900         1.06600
| 29>    C       -4.07300         1.47100         0.05600
| 30>    C       -4.10600        -2.75600        -0.02600
| 31>    C       -4.99500        -2.75700        -1.11100
| 32>    C       -6.13200        -3.54200        -1.07600
| 33>    C       -7.65100        -5.11300         0.04000
| 34>    C       -4.32400         0.14100         0.03700
| 35>    C       -3.02500        -0.52000        -0.04800
| 36>    C       -4.42200        -3.56600         1.07500
| 37>    N       -6.40700        -4.31300         0.00100
| 38>    C       -2.86700        -1.92200        -0.04000
| 39>    C       -1.65000        -2.62400        -0.02700
| 40>    C        3.56800        -6.14200        -1.04000
| 41>    C       -1.47600        -4.04900        -0.03400
| 42>    C        2.80300        -4.09900        -0.00800
| 43>    C        3.65700        -4.38400         1.06900
| 44>    C        4.42700        -5.53000         1.05900
| 45>    C        5.24500        -7.58800         0.01400
| 46>    C       -0.13400        -4.31500        -0.02200
| 47>    C        0.56800        -3.06400        -0.02700
| 48>    C        2.77500        -5.01200        -1.07400
| 49>    N        4.37600        -6.39100         0.01700
| 50>    C        1.95900        -2.86900        -0.00900
| 51>    C        2.62100        -1.62200         0.00900
| 52>    C        5.54300         4.33900        -1.13000
| 53>    C        4.07000        -1.47900        -0.09400
| 54>    C        4.10400         2.75100        -0.02100
| 55>    C        5.02700         2.72900         1.03600
| 56>    C        6.16600         3.50900         0.97800
| 57>    C        7.61900         5.15300        -0.11500
| 58>    C        4.32100        -0.14800        -0.09200
| 59>    C        3.02500         0.51400         0.01500
| 60>    C        4.38700         3.58200        -1.11500
| 61>    C        2.86600         1.91600         0.01300
| 62>    N        6.41300         4.29600        -0.09500
| 63>    H       -3.27600         7.03000         1.72200
| 64>    H        2.27400         4.76600         0.08100
| 65>    H       -4.04600         3.53400        -1.64000
| 66>    H       -5.41800         5.60800        -1.53500
| 67>    H       -4.76600         8.32500        -0.60500
| 68>    H       -6.21900         7.35200        -0.23000
| 69>    H       -5.22700         8.02000         1.09600
| 70>    H       -0.33200         5.28200         0.06900
| 71>    H       -1.81400         5.01700         1.74800
| 72>    H        0.18200         1.07200         0.00500
| 73>    H       -0.18300        -1.08000        -0.02100
| 74>    H       -5.86400        -4.96200         1.89500
| 75>    H       -4.79400         2.27200         0.13900
| 76>    H       -4.80000        -2.16000        -1.99400
| 77>    H       -6.84100        -3.58200        -1.89300
| 78>    H       -8.42800        -4.53600         0.54600
| 79>    H       -7.95600        -5.33700        -0.98100
| 80>    H       -7.45600        -6.03700         0.58400
| 81>    H       -5.28700        -0.34400         0.10000
| 82>    H       -3.78000        -3.60100         1.94700
| 83>    H        3.58700        -6.86800        -1.84300
| 84>    H       -2.27600        -4.77400        -0.05000
| 85>    H        3.71400        -3.72400         1.92600
| 86>    H        5.09200        -5.79500         1.87100
| 87>    H        6.20500        -7.32900        -0.43900
| 88>    H        5.39300        -7.91700         1.04200
| 89>    H        4.75900        -8.37300        -0.56400
| 90>    H        0.32900        -5.29000        -0.00800
| 91>    H        2.14600        -4.84200        -1.94000
| 92>    H        5.80800         4.98600        -1.95600
| 93>    H        4.78800        -2.28100        -0.18500
| 94>    H        4.86000         2.11400         1.91200
| 95>    H        6.90100         3.53100         1.77200
| 96>    H        7.38300         6.10900         0.35600
| 97>    H        8.41400         4.65200         0.43500
| 98>    H        7.92100         5.31000        -1.15000
| 99>    H        5.28300         0.33600        -0.17900
|100>    H        3.72000         3.63200        -1.96700
|101> *
|102> 
|103>                          ****END OF INPUT****
================================================================================

                       ****************************
                       * Single Point Calculation *
                       ****************************

---------------------------------
CARTESIAN COORDINATES (ANGSTROEM)
---------------------------------
  C     -3.395000    6.230000    1.002000
  C      1.474000    4.041000    0.057000
  C     -2.802000    4.093000    0.049000
  C     -3.840000    4.276000   -0.877000
  C     -4.613000    5.419000   -0.837000
  C     -5.208000    7.606000    0.088000
  C      0.132000    4.307000    0.061000
  C     -0.569000    3.056000    0.047000
  C      1.649000    2.618000    0.023000
  C     -2.591000    5.106000    0.997000
  N     -4.388000    6.375000    0.095000
  N      0.388000    2.067000    0.025000
  N     -2.010000    0.395000   -0.075000
  N     -0.388000   -2.074000   -0.027000
  N      2.010000   -0.401000    0.065000
  C     -1.960000    2.861000    0.024000
  C     -2.623000    1.615000   -0.018000
  C     -5.573000   -4.329000    1.066000
  C     -4.073000    1.471000    0.056000
  C     -4.106000   -2.756000   -0.026000
  C     -4.995000   -2.757000   -1.111000
  C     -6.132000   -3.542000   -1.076000
  C     -7.651000   -5.113000    0.040000
  C     -4.324000    0.141000    0.037000
  C     -3.025000   -0.520000   -0.048000
  C     -4.422000   -3.566000    1.075000
  N     -6.407000   -4.313000    0.001000
  C     -2.867000   -1.922000   -0.040000
  C     -1.650000   -2.624000   -0.027000
  C      3.568000   -6.142000   -1.040000
  C     -1.476000   -4.049000   -0.034000
  C      2.803000   -4.099000   -0.008000
  C      3.657000   -4.384000    1.069000
  C      4.427000   -5.530000    1.059000
  C      5.245000   -7.588000    0.014000
  C     -0.134000   -4.315000   -0.022000
  C      0.568000   -3.064000   -0.027000
  C      2.775000   -5.012000   -1.074000
  N      4.376000   -6.391000    0.017000
  C      1.959000   -2.869000   -0.009000
  C      2.621000   -1.622000    0.009000
  C      5.543000    4.339000   -1.130000
  C      4.070000   -1.479000   -0.094000
  C      4.104000    2.751000   -0.021000
  C      5.027000    2.729000    1.036000
  C      6.166000    3.509000    0.978000
  C      7.619000    5.153000   -0.115000
  C      4.321000   -0.148000   -0.092000
  C      3.025000    0.514000    0.015000
  C      4.387000    3.582000   -1.115000
  C      2.866000    1.916000    0.013000
  N      6.413000    4.296000   -0.095000
  H     -3.276000    7.030000    1.722000
  H      2.274000    4.766000    0.081000
  H     -4.046000    3.534000   -1.640000
  H     -5.418000    5.608000   -1.535000
  H     -4.766000    8.325000   -0.605000
  H     -6.219000    7.352000   -0.230000
  H     -5.227000    8.020000    1.096000
  H     -0.332000    5.282000    0.069000
  H     -1.814000    5.017000    1.748000
  H      0.182000    1.072000    0.005000
  H     -0.183000   -1.080000   -0.021000
  H     -5.864000   -4.962000    1.895000
  H     -4.794000    2.272000    0.139000
  H     -4.800000   -2.160000   -1.994000
  H     -6.841000   -3.582000   -1.893000
  H     -8.428000   -4.536000    0.546000
  H     -7.956000   -5.337000   -0.981000
  H     -7.456000   -6.037000    0.584000
  H     -5.287000   -0.344000    0.100000
  H     -3.780000   -3.601000    1.947000
  H      3.587000   -6.868000   -1.843000
  H     -2.276000   -4.774000   -0.050000
  H      3.714000   -3.724000    1.926000
  H      5.092000   -5.795000    1.871000
  H      6.205000   -7.329000   -0.439000
  H      5.393000   -7.917000    1.042000
  H      4.759000   -8.373000   -0.564000
  H      0.329000   -5.290000   -0.008000
  H      2.146000   -4.842000   -1.940000
  H      5.808000    4.986000   -1.956000
  H      4.788000   -2.281000   -0.185000
  H      4.860000    2.114000    1.912000
  H      6.901000    3.531000    1.772000
  H      7.383000    6.109000    0.356000
  H      8.414000    4.652000    0.435000
  H      7.921000    5.310000   -1.150000
  H      5.283000    0.336000   -0.179000
  H      3.720000    3.632000   -1.967000

----------------------------
CARTESIAN COORDINATES (A.U.)
----------------------------
  NO LB      ZA    FRAG     MASS         X           Y           Z
   0 C     6.0000    0    12.011   -6.415620   11.772994    1.893506
   1 C     6.0000    0    12.011    2.785456    7.636383    0.107714
   2 C     6.0000    0    12.011   -5.295013    7.734649    0.092597
   3 C     6.0000    0    12.011   -7.256548    8.080469   -1.657290
   4 C     6.0000    0    12.011   -8.717307   10.240426   -1.581701
   5 C     6.0000    0    12.011   -9.841694   14.373257    0.166296
   6 C     6.0000    0    12.011    0.249444    8.139050    0.115273
   7 C     6.0000    0    12.011   -1.075254    5.775003    0.088817
   8 C     6.0000    0    12.011    3.116158    4.947303    0.043464
   9 C     6.0000    0    12.011   -4.896280    9.648942    1.884057
  10 N     7.0000    0    14.007   -8.292118   12.047004    0.179524
  11 N     7.0000    0    14.007    0.733214    3.906064    0.047243
  12 N     7.0000    0    14.007   -3.798350    0.746442   -0.141729
  13 N     7.0000    0    14.007   -0.733214   -3.919292   -0.051023
  14 N     7.0000    0    14.007    3.798350   -0.757780    0.122832
  15 C     6.0000    0    12.011   -3.703863    5.406506    0.045353
  16 C     6.0000    0    12.011   -4.956752    3.051908   -0.034015
  17 C     6.0000    0    12.011  -10.531444   -8.180624    2.014448
  18 C     6.0000    0    12.011   -7.696855    2.779787    0.105825
  19 C     6.0000    0    12.011   -7.759216   -5.208085   -0.049133
  20 C     6.0000    0    12.011   -9.439182   -5.209975   -2.099486
  21 C     6.0000    0    12.011  -11.587801   -6.693410   -2.033345
  22 C     6.0000    0    12.011  -14.458295   -9.662170    0.075589
  23 C     6.0000    0    12.011   -8.171176    0.266451    0.069920
  24 C     6.0000    0    12.011   -5.716422   -0.982658   -0.090707
  25 C     6.0000    0    12.011   -8.356369   -6.738763    2.031456
  26 N     7.0000    0    14.007  -12.107475   -8.150389    0.001890
  27 C     6.0000    0    12.011   -5.417845   -3.632054   -0.075589
  28 C     6.0000    0    12.011   -3.118048   -4.958641   -0.051023
  29 C     6.0000    0    12.011    6.742543  -11.606698   -1.965315
  30 C     6.0000    0    12.011   -2.789236   -7.651501   -0.064251
  31 C     6.0000    0    12.011    5.296902   -7.745987   -0.015118
  32 C     6.0000    0    12.011    6.910728   -8.284559    2.020117
  33 C     6.0000    0    12.011    8.365818  -10.450186    2.001220
  34 C     6.0000    0    12.011    9.911614  -14.339242    0.026456
  35 C     6.0000    0    12.011   -0.253223   -8.154168   -0.041574
  36 C     6.0000    0    12.011    1.073364   -5.790121   -0.051023
  37 C     6.0000    0    12.011    5.243990   -9.471307   -2.029566
  38 N     7.0000    0    14.007    8.269442  -12.077240    0.032125
  39 C     6.0000    0    12.011    3.701973   -5.421624   -0.017008
  40 C     6.0000    0    12.011    4.952972   -3.065136    0.017008
  41 C     6.0000    0    12.011   10.474752    8.199522   -2.135391
  42 C     6.0000    0    12.011    7.691185   -2.794905   -0.177634
  43 C     6.0000    0    12.011    7.755436    5.198637   -0.039684
  44 C     6.0000    0    12.011    9.499653    5.157063    1.957756
  45 C     6.0000    0    12.011   11.652051    6.631049    1.848152
  46 C     6.0000    0    12.011   14.397823    9.737759   -0.217319
  47 C     6.0000    0    12.011    8.165507   -0.279679   -0.173855
  48 C     6.0000    0    12.011    5.716422    0.971319    0.028346
  49 C     6.0000    0    12.011    8.290229    6.768999   -2.107045
  50 C     6.0000    0    12.011    5.415955    3.620715    0.024566
  51 N     7.0000    0    14.007   12.118814    8.118263   -0.179524
  52 H     1.0000    0     1.008   -6.190743   13.284775    3.254108
  53 H     1.0000    0     1.008    4.297237    9.006435    0.153068
  54 H     1.0000    0     1.008   -7.645832    6.678292   -3.099151
  55 H     1.0000    0     1.008  -10.238536   10.597584   -2.900730
  56 H     1.0000    0     1.008   -9.006435   15.731970   -1.143284
  57 H     1.0000    0     1.008  -11.752207   13.893267   -0.434637
  58 H     1.0000    0     1.008   -9.877599   15.155604    2.071140
  59 H     1.0000    0     1.008   -0.627389    9.981533    0.130391
  60 H     1.0000    0     1.008   -3.427963    9.480756    3.303241
  61 H     1.0000    0     1.008    0.343930    2.025786    0.009449
  62 H     1.0000    0     1.008   -0.345820   -2.040904   -0.039684
  63 H     1.0000    0     1.008  -11.081354   -9.376821    3.581031
  64 H     1.0000    0     1.008   -9.059347    4.293458    0.262672
  65 H     1.0000    0     1.008   -9.070685   -4.081808   -3.768114
  66 H     1.0000    0     1.008  -12.927616   -6.768999   -3.577252
  67 H     1.0000    0     1.008  -15.926612   -8.571798    1.031790
  68 H     1.0000    0     1.008  -15.034661  -10.085468   -1.853821
  69 H     1.0000    0     1.008  -14.089798  -11.408277    1.103600
  70 H     1.0000    0     1.008   -9.990982   -0.650066    0.188973
  71 H     1.0000    0     1.008   -7.143165   -6.804904    3.679297
  72 H     1.0000    0     1.008    6.778448  -12.978639   -3.482765
  73 H     1.0000    0     1.008   -4.301017   -9.021553   -0.094486
  74 H     1.0000    0     1.008    7.018443   -7.037340    3.639613
  75 H     1.0000    0     1.008    9.622485  -10.950963    3.535678
  76 H     1.0000    0     1.008   11.725751  -13.849803   -0.829590
  77 H     1.0000    0     1.008   10.191293  -14.960962    1.969095
  78 H     1.0000    0     1.008    8.993207  -15.822677   -1.065806
  79 H     1.0000    0     1.008    0.621720   -9.996651   -0.015118
  80 H     1.0000    0     1.008    4.055352   -9.150054   -3.666069
  81 H     1.0000    0     1.008   10.975529    9.422175   -3.696304
  82 H     1.0000    0     1.008    9.048009   -4.310465   -0.349599
  83 H     1.0000    0     1.008    9.184069    3.994881    3.613156
  84 H     1.0000    0     1.008   13.041000    6.672623    3.348595
  85 H     1.0000    0     1.008   13.951848   11.544337    0.672743
  86 H     1.0000    0     1.008   15.900156    8.791006    0.822031
  87 H     1.0000    0     1.008   14.968521   10.034446   -2.173185
  88 H     1.0000    0     1.008    9.983423    0.634948   -0.338261
  89 H     1.0000    0     1.008    7.029781    6.863485   -3.717091

--------------------------------
INTERNAL COORDINATES (ANGSTROEM)
--------------------------------
 C      0   0   0     0.000000000000     0.00000000     0.00000000
 C      1   0   0     5.421430346320     0.00000000     0.00000000
 C      1   2   0     2.413840715540    49.69081195     0.00000000
 C      3   1   2     1.403000000000    87.89951349   220.62779717
 C      4   3   1     1.380426745612   120.20974870     0.13418351
 C      5   4   3     2.447982638827   152.47192819     1.68064738
 C      2   1   3     1.368114030335    16.26565323    14.52916483
 C      7   2   1     1.434084376876   108.05010202   217.11370827
 C      2   1   3     1.434123425651   120.95471071   333.45854672
 C      1   2   3     1.381961287446    31.62155523    38.35158512
 N      1   2   3     1.352672539826   125.85267826   306.58461537
 N      9   2   1     1.376127174356   106.58526707    10.40813833
 N     12   9   2     2.925062050624   168.53581413   171.12065651
 N     13  12   9     2.954513327098    91.55032014    11.12112580
 N     14  13  12     2.925371258490    88.43092389   359.84326247
 C      8   7   2     1.404790019896   127.24786865   181.11170171
 C     13  12   9     1.366535034311    81.72106996   188.00453233
 C     14  13  12     5.758810554272    80.56209567   166.76250791
 C     17  13  12     1.459010623676   111.08861209   183.82872609
 C     18  14  13     2.412235892279    27.27532823    36.33507194
 C     20  18  14     1.402692767501    87.95206320   148.94598259
 C     21  20  18     1.382106725257   120.14573887   359.70382047
 C     18  14  13     2.446510985056   144.15733107    82.80075377
 C     19  17  13     1.353610726908   106.29293361   359.75308708
 C     13  12   9     1.366813447402   172.21332906    33.46711076
 C     18  14  13     1.380960173213    15.08449437   309.23336894
 N     22  21  20     1.352773077792   120.73759875     0.27865223
 C     25  13  17     1.410897586645   125.60330303   182.37774668
 C     14  13  12     1.376642291955    80.24689249   177.85461986
 C     14  13  12     5.764089607215   164.51507311   312.20821879
 C     29  14  13     1.435600919476   106.58649366   178.76395472
 C     30  14  13     2.413316804732    27.10625047    82.12560436
 C     32  30  14     1.403734305344    87.90059683   149.76154742
 C     33  32  30     1.380694028378   120.14881443   359.74174632
 C     34  33  32     2.448777858443   152.49203239     2.45173620
 C     31  29  14     1.368160809262   108.16950133     0.70383075
 C     14  13  12     1.376239804685   169.26375223   353.09862627
 C     30  14  13     1.380907310430    14.68948582   353.70041132
 N     34  33  32     1.352658863128   120.85575621     0.19603406
 C     37  14  29     1.404717053360   126.01551127   180.90772073
 C     15  14  13     1.366491126938    81.61824056   183.09049352
 C      2   1   3     4.249062720177   151.69307466   142.29661695
 C     41  15  14     1.459677704153   111.05201287   175.08990246
 C     42   2   1     2.412953791518    41.78584867   165.92574010
 C     44  42   2     1.403446472082    87.95153797   233.97558675
 C     45  44  42     1.381696421071   120.11137308     0.19721020
 C     42   2   1     2.450019795838   135.97209175    76.24058921
 C     43  41  15     1.354461516618   106.26758155     0.30894352
 C     15  14  13     1.367461151185   171.87382904   332.35056460
 C     42   2   1     1.381886391857    32.59078432   214.78101930
 C      9   2   1     1.404988612053   126.98745415   191.41247586
 N     42   2   1     1.352765315936   113.57249190   103.97717840
 H      1   2   3     1.082848558202   108.39119099   161.31375320
 H      2   1   3     1.079907866440   112.97770585   163.65237893
 H      4   3   1     1.084052120518   121.05476090   179.55013703
 H      5   4   3     1.082104431190   122.85417003   179.44992612
 H      6   5   4     1.092050365139   104.47990096   100.08856340
 H      6   5   4     1.089844484319    84.66407465   209.50599404
 H      6   5   4     1.089872010834   133.87423733   322.27452825
 H      7   2   1     1.079807853278   126.66122480    37.35212206
 H     10   1   2     1.084274411761   118.76148316    71.44311476
 H     12   9   2     1.016297692608   125.29023241   180.00180175
 H     14  13  12     1.014936943854    44.97226959   359.42596618
 H     18  14  13     1.082871645210   128.03556573   234.20482432
 H     19  17  13     1.080893611786   126.41830519   178.11313280
 H     21  20  18     1.083569563987   121.05669627   180.67006309
 H     22  21  20     1.082483256222   122.73097286   180.59748951
 H     23  18  14     1.092105306278   103.92715769   234.93429879
 H     23  18  14     1.088871893291   134.19244188    12.25587044
 H     23  18  14     1.089833473518    84.85857450   125.45241208
 H     24  19  17     1.080075460327   127.28078426   178.44613241
 H     26  18  14     1.083408048706   118.76995697   244.94906660
 H     30  14  13     1.082703098730   127.99711412   279.66882698
 H     31  29  14     1.079759695488   125.22293469   180.92530585
 H     33  32  30     1.083188810873   121.01964473   180.74284758
 H     34  33  32     1.082494341787   122.70821597   180.59516895
 H     35  34  33     1.092652735319   105.73575241    97.19771933
 H     35  34  33     1.089462711615    84.05943581   206.43036958
 H     35  34  33     1.089268102902   133.08365142   318.50306270
 H     36  31  29     1.079439669458   126.61599965   178.98859863
 H     38  30  73     1.083742127999   118.77264435   359.90091293
 H     42   2   1     1.082178358682   119.31790784   320.60870885
 H     43  41  15     1.080281907652   126.36969097   182.06329380
 H     45  44  42     1.083277434455   121.10105945   179.58025624
 H     46  45  44     1.082194529648   122.72144639   179.46906377
 H     47  42   2     1.091546151109   106.65128841   315.16475048
 H     47  42   2     1.088818625851   132.46019523    94.52397119
 H     47  42   2     1.089531091801    83.63838232   206.04504406
 H     48  43  41     1.080402239909   127.23657387   181.62955349
 H     50  42   2     1.083186502870   118.77001737    94.71359229

---------------------------
INTERNAL COORDINATES (A.U.)
---------------------------
 C      0   0   0     0.000000000000     0.00000000     0.00000000
 C      1   0   0    10.245018608675     0.00000000     0.00000000
 C      1   2   0     4.561497883280    49.69081195     0.00000000
 C      3   1   2     2.651285765892    87.89951349   220.62779717
 C      4   3   1     2.608628497146   120.20974870     0.13418351
 C      5   4   3     4.626016767978   152.47192819     1.68064738
 C      2   1   3     2.585360837309    16.26565323    14.52916483
 C      7   2   1     2.710026725231   108.05010202   217.11370827
 C      2   1   3     2.710100516721   120.95471071   333.45854672
 C      1   2   3     2.611528360955    31.62155523    38.35158512
 N      1   2   3     2.556180649147   125.85267826   306.58461537
 N      9   2   1     2.600503484979   106.58526707    10.40813833
 N     12   9   2     5.527566200405   168.53581413   171.12065651
 N     13  12   9     5.583221047236    91.55032014    11.12112580
 N     14  13  12     5.528150518591    88.43092389   359.84326247
 C      8   7   2     2.654668413270   127.24786865   181.11170171
 C     13  12   9     2.582376967257    81.72106996   188.00453233
 C     14  13  12    10.882574804710    80.56209567   166.76250791
 C     17  13  12     2.757130505230   111.08861209   183.82872609
 C     18  14  13     4.558465206823    27.27532823    36.33507194
 C     20  18  14     2.650705180609    87.95206320   148.94598259
 C     21  20  18     2.611803198586   120.14573887   359.70382047
 C     18  14  13     4.623235745386   144.15733107    82.80075377
 C     19  17  13     2.557953565794   106.29293361   359.75308708
 C     13  12   9     2.582903091751   172.21332906    33.46711076
 C     18  14  13     2.609636529225    15.08449437   309.23336894
 N     22  21  20     2.556370638369   120.73759875     0.27865223
 C     25  13  17     2.666210041769   125.60330303   182.37774668
 C     14  13  12     2.601476916169    80.24689249   177.85461986
 C     14  13  12    10.892550769017   164.51507311   312.20821879
 C     29  14  13     2.712892575415   106.58649366   178.76395472
 C     30  14  13     4.560507835333    27.10625047    82.12560436
 C     32  30  14     2.652673401891    87.90059683   149.76154742
 C     33  32  30     2.609133588376   120.14881443   359.74174632
 C     34  33  32     4.627519515267   152.49203239     2.45173620
 C     31  29  14     2.585449236669   108.16950133     0.70383075
 C     14  13  12     2.600716325456   169.26375223   353.09862627
 C     30  14  13     2.609536633043    14.68948582   353.70041132
 N     34  33  32     2.556154803934   120.85575621     0.19603406
 C     37  14  29     2.654530526499   126.01551127   180.90772073
 C     15  14  13     2.582293994346    81.61824056   183.09049352
 C      2   1   3     8.029564866989   151.69307466   142.29661695
 C     41  15  14     2.758391104639   111.05201287   175.08990246
 C     42   2   1     4.559821839776    41.78584867   165.92574010
 C     44  42   2     2.652129475853    87.95153797   233.97558675
 C     45  44  42     2.611027836043   120.11137308     0.19721020
 C     42   2   1     4.629866436820   135.97209175    76.24058921
 C     43  41  15     2.559561325344   106.26758155     0.30894352
 C     15  14  13     2.584127074516   171.87382904   332.35056460
 C     42   2   1     2.611386828803    32.59078432   214.78101930
 C      9   2   1     2.655043698059   126.98745415   191.41247586
 N     42   2   1     2.556355970587   113.57249190   103.97717840
 H      1   2   3     2.046287219513   108.39119099   161.31375320
 H      2   1   3     2.040730117440   112.97770585   163.65237893
 H      4   3   1     2.048561622676   121.05476090   179.55013703
 H      5   4   3     2.044881023251   122.85417003   179.44992612
 H      6   5   4     2.063676114561   104.47990096   100.08856340
 H      6   5   4     2.059507603927    84.66407465   209.50599404
 H      6   5   4     2.059559621503   133.87423733   322.27452825
 H      7   2   1     2.040541119952   126.66122480    37.35212206
 H     10   1   2     2.048981692247   118.76148316    71.44311476
 H     12   9   2     1.920524309565   125.29023241   180.00180175
 H     14  13  12     1.917952867083    44.97226959   359.42596618
 H     18  14  13     2.046330847636   128.03556573   234.20482432
 H     19  17  13     2.042592906181   126.41830519   178.11313280
 H     21  20  18     2.047649722989   121.05669627   180.67006309
 H     22  21  20     2.045596898814   122.73097286   180.59748951
 H     23  18  14     2.063779938267   103.92715769   234.93429879
 H     23  18  14     2.057669673245   134.19244188    12.25587044
 H     23  18  14     2.059486796529    84.85857450   125.45241208
 H     24  19  17     2.041046823986   127.28078426   178.44613241
 H     26  18  14     2.047344503340   118.76995697   244.94906660
 H     30  14  13     2.046012340948   127.99711412   279.66882698
 H     31  29  14     2.040450114918   125.22293469   180.92530585
 H     33  32  30     2.046930203877   121.01964473   180.74284758
 H     34  33  32     2.045617847496   122.70821597   180.59516895
 H     35  34  33     2.064814429233   105.73575241    97.19771933
 H     35  34  33     2.058786158072    84.05943581   206.43036958
 H     35  34  33     2.058418400901   133.08365142   318.50306270
 H     36  31  29     2.039845353366   126.61599965   178.98859863
 H     38  30  73     2.047975821711   118.77264435   359.90091293
 H     42   2   1     2.045020725966   119.31790784   320.60870885
 H     43  41  15     2.041436952892   126.36969097   182.06329380
 H     45  44  42     2.047097678177   121.10105945   179.58025624
 H     46  45  44     2.045051284662   122.72144639   179.46906377
 H     47  42   2     2.062723288131   106.65128841   315.16475048
 H     47  42   2     2.057569012371   132.46019523    94.52397119
 H     47  42   2     2.058915377895    83.63838232   206.04504406
 H     48  43  41     2.041664347903   127.23657387   181.62955349
 H     50  42   2     2.046925842384   118.77001737    94.71359229

---------------------
BASIS SET INFORMATION
---------------------
There are 3 groups of distinct atoms

 Group   1 Type C   : 17s4p1d contracted to 3s2p1d pattern {881/31/1}
 Group   2 Type N   : 17s4p1d contracted to 3s2p1d pattern {881/31/1}
 Group   3 Type H   : 4s1p contracted to 2s1p pattern {31/1}

Atom   0C    basis set group =>   1
Atom   1N    basis set group =>   2
Atom   2C    basis set group =>   1
Atom   3N    basis set group =>   2
Atom   4C    basis set group =>   1
Atom   5N    basis set group =>   2
Atom   6C    basis set group =>   1
Atom   7N    basis set group =>   2
Atom   8C    basis set group =>   1
Atom   9N    basis set group =>   2
Atom  10C    basis set group =>   1
Atom  11N    basis set group =>   2
Atom  12C    basis set group =>   1
Atom  13N    basis set group =>   2
Atom  14C    basis set group =>   1
Atom  15N    basis set group =>   2
Atom  16C    basis set group =>   1
Atom  17C    basis set group =>   1
Atom  18C    basis set group =>   1
Atom  19C    basis set group =>   1
Atom  20C    basis set group =>   1
Atom  21C    basis set group =>   1
Atom  22C    basis set group =>   1
Atom  23C    basis set group =>   1
Atom  24C    basis set group =>   1
Atom  25C    basis set group =>   1
Atom  26C    basis set group =>   1
Atom  27C    basis set group =>   1
Atom  28C    basis set group =>   1
Atom  29C    basis set group =>   1
Atom  30C    basis set group =>   1
Atom  31C    basis set group =>   1
Atom  32C    basis set group =>   1
Atom  33C    basis set group =>   1
Atom  34C    basis set group =>   1
Atom  35C    basis set group =>   1
Atom  36C    basis set group =>   1
Atom  37C    basis set group =>   1
Atom  38C    basis set group =>   1
Atom  39C    basis set group =>   1
Atom  40C    basis set group =>   1
Atom  41C    basis set group =>   1
Atom  42C    basis set group =>   1
Atom  43C    basis set group =>   1
Atom  44C    basis set group =>   1
Atom  45C    basis set group =>   1
Atom  46C    basis set group =>   1
Atom  47C    basis set group =>   1
Atom  48C    basis set group =>   1
Atom  49C    basis set group =>   1
Atom  50C    basis set group =>   1
Atom  51C    basis set group =>   1
Atom  52H    basis set group =>   3
Atom  53H    basis set group =>   3
Atom  54H    basis set group =>   3
Atom  55H    basis set group =>   3
Atom  56H    basis set group =>   3
Atom  57H    basis set group =>   3
Atom  58H    basis set group =>   3
Atom  59H    basis set group =>   3
Atom  60H    basis set group =>   3
Atom  61H    basis set group =>   3
Atom  62H    basis set group =>   3
Atom  63H    basis set group =>   3
Atom  64H    basis set group =>   3
Atom  65H    basis set group =>   3
Atom  66H    basis set group =>   3
Atom  67H    basis set group =>   3
Atom  68H    basis set group =>   3
Atom  69H    basis set group =>   3
Atom  70H    basis set group =>   3
Atom  71H    basis set group =>   3
Atom  72H    basis set group =>   3
Atom  73H    basis set group =>   3
Atom  74H    basis set group =>   3
Atom  75H    basis set group =>   3
Atom  76H    basis set group =>   3
Atom  77H    basis set group =>   3
Atom  78H    basis set group =>   3
Atom  79H    basis set group =>   3
Atom  80H    basis set group =>   3
Atom  81H    basis set group =>   3
Atom  82H    basis set group =>   3
Atom  83H    basis set group =>   3
Atom  84H    basis set group =>   3
Atom  85H    basis set group =>   3
Atom  86H    basis set group =>   3
Atom  87H    basis set group =>   3
Atom  88H    basis set group =>   3
Atom  89H    basis set group =>   3


           ************************************************************
           *        Program running with 8 parallel MPI-processes     *
           *              working on a common directory               *
           ************************************************************
------------------------------------------------------------------------------
                           ORCA GTO INTEGRAL CALCULATION
------------------------------------------------------------------------------
------------------------------------------------------------------------------
                   ___                                                        
                  /   \      - P O W E R E D   B Y -                         
                 /     \                                                     
                 |  |  |   _    _      __       _____    __    __             
                 |  |  |  | |  | |    /  \     |  _  \  |  |  /  |          
                  \  \/   | |  | |   /    \    | | | |  |  | /  /          
                 / \  \   | |__| |  /  /\  \   | |_| |  |  |/  /          
                |  |  |   |  __  | /  /__\  \  |    /   |      \           
                |  |  |   | |  | | |   __   |  |    \   |  |\   \          
                \     /   | |  | | |  |  |  |  | |\  \  |  | \   \       
                 \___/    |_|  |_| |__|  |__|  |_| \__\ |__|  \__/        
                                                                              
                      - O R C A' S   B I G   F R I E N D -                    
                                      &                                       
                       - I N T E G R A L  F E E D E R -                       
                                                                              
 v1 FN, 2020, v2 2021                                                         
------------------------------------------------------------------------------


Reading SHARK input file /scratch/chu_02/allen/tmpyp4_amber_gaff2/conf1/conf1/Conf311.orca.SHARKINP.tmp ... ok
----------------------
SHARK INTEGRAL PACKAGE
----------------------

Number of atoms                             ...     90
Number of basis functions                   ...   1230
Number of shells                            ...    738
Maximum angular momentum                    ...      2
Integral batch strategy                     ... SHARK/LIBINT Hybrid
RI-J (if used) integral strategy            ... SPLIT-RIJ (Revised 2003 algorithm where possible)
Printlevel                                  ...      1
Contraction scheme used                     ... PARTIAL GENERAL contraction
Coulomb Range Separation                    ... NOT USED
Exchange Range Separation                   ... NOT USED
Finite Nucleus Model                        ... NOT USED
Auxiliary Coulomb fitting basis             ... NOT available
Auxiliary J/K fitting basis                 ... NOT available
Auxiliary Correlation fitting basis         ... NOT available
Auxiliary 'external' fitting basis          ... NOT available
Integral threshold                          ...     2.500000e-11
Primitive cut-off                           ...     2.500000e-12
Primitive pair pre-selection threshold      ...     2.500000e-12

Calculating pre-screening integrals         ... done (  0.1 sec) Dimension = 738
Calculating pre-screening integrals (ORCA)  ... done (  0.3 sec) Dimension = 426
Organizing shell pair data                  ... done (  0.5 sec)
Shell pair information
Total number of shell pairs                 ...    272691
Shell pairs after pre-screening             ...     71605
Total number of primitive shell pairs       ...    422091
Primitive shell pairs kept                  ...     92386
          la=0 lb=0:  29412 shell pairs
          la=1 lb=0:  25970 shell pairs
          la=1 lb=1:   4701 shell pairs
          la=2 lb=0:   7867 shell pairs
          la=2 lb=1:   3124 shell pairs
          la=2 lb=2:    531 shell pairs

Calculating one electron integrals          ... done (  0.2 sec)
Calculating Nuclear repulsion               ... done (  0.0 sec) ENN=   6226.469686547193 Eh

SHARK setup successfully completed in   1.6 seconds

Maximum memory used throughout the entire GTOINT-calculation: 99.0 MB


           ************************************************************
           *        Program running with 8 parallel MPI-processes     *
           *              working on a common directory               *
           ************************************************************
-------------------------------------------------------------------------------
                                 ORCA SCF
-------------------------------------------------------------------------------

------------
SCF SETTINGS
------------
Hamiltonian:
 Ab initio Hamiltonian  Method          .... Hartree-Fock(GTOs)


General Settings:
 Integral files         IntName         .... /scratch/chu_02/allen/tmpyp4_amber_gaff2/conf1/conf1/Conf311.orca
 Hartree-Fock type      HFTyp           .... RHF
 Total Charge           Charge          ....    0
 Multiplicity           Mult            ....    1
 Number of Electrons    NEL             ....  358
 Basis Dimension        Dim             ....  918
 Nuclear Repulsion      ENuc            ....   6226.4696865472 Eh

Convergence Acceleration:
 DIIS                   CNVDIIS         .... on
   Start iteration      DIISMaxIt       ....    12
   Startup error        DIISStart       ....  0.200000
   # of expansion vecs  DIISMaxEq       ....     5
   Bias factor          DIISBfac        ....   1.050
   Max. coefficient     DIISMaxC        ....  10.000
 Trust-Rad. Augm. Hess. CNVTRAH         .... auto
   Auto Start mean grad. ratio tolernc. ....  1.125000
   Auto Start start iteration           ....    20
   Auto Start num. interpolation iter.  ....    10
   Max. Number of Micro iterations      ....    16
   Max. Number of Macro iterations      .... Maxiter - #DIIS iter
   Number of Davidson start vectors     ....     2
   Converg. threshold I  (grad. norm)   ....   1.000e-05
   Converg. threshold II (energy diff.) ....   1.000e-08
   Grad. Scal. Fac. for Micro threshold ....   0.100
   Minimum threshold for Micro iter.    ....   0.010
   NR start threshold (gradient norm)   ....   0.001
   Initial trust radius                 ....   0.400
   Minimum AH scaling param. (alpha)    ....   1.000
   Maximum AH scaling param. (alpha)    .... 1000.000
   Orbital update algorithm             .... Taylor
   White noise on init. David. guess    .... on
   Maximum white noise                  ....   0.010
   Quad. conv. algorithm                .... NR
 SOSCF                  CNVSOSCF        .... on
   Start iteration      SOSCFMaxIt      ....   150
   Startup grad/error   SOSCFStart      ....  0.003300
 Level Shifting         CNVShift        .... on
   Level shift para.    LevelShift      ....    0.2500
   Turn off err/grad.   ShiftErr        ....    0.0010
 Zerner damping         CNVZerner       .... off
 Static damping         CNVDamp         .... on
   Fraction old density DampFac         ....    0.7000
   Max. Damping (<1)    DampMax         ....    0.9800
   Min. Damping (>=0)   DampMin         ....    0.0000
   Turn off err/grad.   DampErr         ....    0.1000
 Fernandez-Rico         CNVRico         .... off

SCF Procedure:
 Maximum # iterations   MaxIter         ....   125
 SCF integral mode      SCFMode         .... Direct
   Integral package                     .... SHARK and LIBINT hybrid scheme
 Reset frequency        DirectResetFreq ....    20
 Integral Threshold     Thresh          ....  2.500e-11 Eh
 Primitive CutOff       TCut            ....  2.500e-12 Eh

Convergence Tolerance:
 Convergence Check Mode ConvCheckMode   .... Total+1el-Energy
 Convergence forced     ConvForced      .... 1
 Energy Change          TolE            ....  1.000e-08 Eh
 1-El. energy change                    ....  1.000e-05 Eh
 Orbital Gradient       TolG            ....  1.000e-05
 Orbital Rotation angle TolX            ....  1.000e-05
 DIIS Error             TolErr          ....  5.000e-07


Diagonalization of the overlap matrix:
Smallest eigenvalue                        ... 2.248e-04
Time for diagonalization                   ...    0.214 sec
Threshold for overlap eigenvalues          ... 1.000e-08
Number of eigenvalues below threshold      ... 0
Time for construction of square roots      ...    0.126 sec
Total time needed                          ...    0.344 sec

Time for model grid setup =    1.342 sec

------------------------------
INITIAL GUESS: MODEL POTENTIAL
------------------------------
Loading Hartree-Fock densities                     ... done
Calculating cut-offs                               ... done
Initializing the effective Hamiltonian             ... done
Setting up the integral package (SHARK)            ... done
Starting the Coulomb interaction                   ... done (   1.6 sec)
Reading the grid                                   ... done
Mapping shells                                     ... done
Starting the XC term evaluation                    ... done (   0.3 sec)
Transforming the Hamiltonian                       ... done (   0.1 sec)
Diagonalizing the Hamiltonian                      ... done (   0.2 sec)
Back transforming the eigenvectors                 ... done (   0.0 sec)
Now organizing SCF variables                       ... done
                      ------------------
                      INITIAL GUESS DONE (   3.7 sec)
                      ------------------
--------------
SCF ITERATIONS
--------------
ITER       Energy         Delta-E        Max-DP      RMS-DP      [F,P]     Damp
               ***  Starting incremental Fock matrix formation  ***
  0  -2121.6865246315   0.000000000000 0.06884955  0.00120729  0.2327245 0.7000
  1  -2122.3486809617  -0.662156330240 0.05220962  0.00097988  0.1440435 0.7000
                               ***Turning on DIIS***
  2  -2122.7598901093  -0.411209147578 0.11645535  0.00222162  0.0802413 0.0000
  3  -2117.7983878702   4.961502239168 0.03019247  0.00067583  0.0441662 0.0000
  4  -2123.4257167371  -5.627328866971 0.00881464  0.00022687  0.0072013 0.0000
  5  -2123.5988399745  -0.173123237337 0.00511581  0.00013380  0.0049737 0.0000
  6  -2123.5814129745   0.017427000001 0.00342013  0.00008648  0.0019363 0.0000
  7  -2123.6840889269  -0.102675952488 0.00289322  0.00006803  0.0015185 0.0000
  8  -2123.6995648098  -0.015475882848 0.00298657  0.00006372  0.0014108 0.0000
  9  -2123.6655847168   0.033980092956 0.00240324  0.00004366  0.0011153 0.0000
 10  -2123.6777396104  -0.012154893568 0.00493303  0.00008670  0.0008522 0.0000
                      *** Initiating the SOSCF procedure ***
                           *** Shutting down DIIS ***
                      *** Re-Reading the Fockian *** 
                      *** Removing any level shift *** 
ITER      Energy       Delta-E        Grad      Rot      Max-DP    RMS-DP
 11  -2123.56483641   0.1129032054  0.000265  0.000265  0.000275  0.000006
               *** Restarting incremental Fock matrix formation ***
 12  -2123.62908750  -0.0642510994  0.000865  0.005827  0.001143  0.000028
 13  -2123.62915890  -0.0000713937  0.000959  0.025719  0.005334  0.000102
 14  -2123.62926271  -0.0001038138  0.000443  0.002035  0.000523  0.000011
 15  -2123.62927650  -0.0000137892  0.000182  0.003335  0.000852  0.000015
 16  -2123.62928453  -0.0000080279  0.000137  0.004381  0.000764  0.000016
 17  -2123.62928885  -0.0000043168  0.000135  0.003264  0.000445  0.000010
 18  -2123.62929101  -0.0000021683  0.000069  0.001543  0.000237  0.000005
 19  -2123.62929209  -0.0000010806  0.000060  0.000492  0.000169  0.000003
 20  -2123.62929243  -0.0000003338  0.000026  0.000508  0.000131  0.000002
 21  -2123.62929258  -0.0000001533  0.000021  0.000189  0.000066  0.000001
 22  -2123.62929267  -0.0000000850  0.000016  0.000384  0.000104  0.000002
 23  -2123.62929273  -0.0000000639  0.000010  0.000123  0.000046  0.000001
 24  -2123.62929275  -0.0000000197  0.000005  0.000079  0.000026  0.000000
 25  -2123.62929276  -0.0000000103  0.000004  0.000047  0.000017  0.000000
                  ***Gradient check signals convergence***
              ***Rediagonalizing the Fockian in SOSCF/NRSCF***

               *****************************************************
               *                     SUCCESS                       *
               *           SCF CONVERGED AFTER  26 CYCLES          *
               *****************************************************


----------------
TOTAL SCF ENERGY
----------------

Total Energy       :        -2123.62929277 Eh          -57786.89088 eV

Components:
Nuclear Repulsion  :         6226.46968655 Eh          169430.85387 eV
Electronic Energy  :        -8350.09897931 Eh         -227217.74475 eV
One Electron Energy:       -15293.98167965 Eh         -416170.39920 eV
Two Electron Energy:         6943.88270034 Eh          188952.65444 eV

Virial components:
Potential Energy   :        -4245.64369445 Eh         -115529.83835 eV
Kinetic Energy     :         2122.01440168 Eh           57742.94746 eV
Virial Ratio       :            2.00076102


---------------
SCF CONVERGENCE
---------------

  Last Energy change         ...   -6.4465e-09  Tolerance :   1.0000e-08
  Last MAX-Density change    ...    1.1504e-05  Tolerance :   1.0000e-07
  Last RMS-Density change    ...    1.9707e-07  Tolerance :   5.0000e-09
  Last Orbital Gradient      ...    2.0495e-06  Tolerance :   1.0000e-05
  Last Orbital Rotation      ...    4.6108e-05  Tolerance :   1.0000e-05

             **** THE GBW FILE WAS UPDATED (/scratch/chu_02/allen/tmpyp4_amber_gaff2/conf1/conf1/Conf311.orca.gbw) ****
             **** DENSITY /scratch/chu_02/allen/tmpyp4_amber_gaff2/conf1/conf1/Conf311.orca.scfp WAS UPDATED ****
             **** ENERGY FILE WAS UPDATED (/scratch/chu_02/allen/tmpyp4_amber_gaff2/conf1/conf1/Conf311.orca.en.tmp) ****
             **** THE GBW FILE WAS UPDATED (/scratch/chu_02/allen/tmpyp4_amber_gaff2/conf1/conf1/Conf311.orca.gbw) ****
             **** DENSITY /scratch/chu_02/allen/tmpyp4_amber_gaff2/conf1/conf1/Conf311.orca.scfp WAS UPDATED ****
----------------
ORBITAL ENERGIES
----------------

  NO   OCC          E(Eh)            E(eV) 
   0   2.0000     -15.653850      -425.9629 
   1   2.0000     -15.639161      -425.5632 
   2   2.0000     -15.628664      -425.2776 
   3   2.0000     -15.607748      -424.7084 
   4   2.0000     -15.521843      -422.3708 
   5   2.0000     -15.515604      -422.2011 
   6   2.0000     -15.447387      -420.3448 
   7   2.0000     -15.443781      -420.2466 
   8   2.0000     -11.311853      -307.8112 
   9   2.0000     -11.308308      -307.7147 
  10   2.0000     -11.305814      -307.6468 
  11   2.0000     -11.302490      -307.5564 
  12   2.0000     -11.296100      -307.3825 
  13   2.0000     -11.295717      -307.3721 
  14   2.0000     -11.292739      -307.2911 
  15   2.0000     -11.286856      -307.1310 
  16   2.0000     -11.284786      -307.0746 
  17   2.0000     -11.283827      -307.0485 
  18   2.0000     -11.270775      -306.6934 
  19   2.0000     -11.268955      -306.6438 
  20   2.0000     -11.257551      -306.3335 
  21   2.0000     -11.244981      -305.9915 
  22   2.0000     -11.244082      -305.9670 
  23   2.0000     -11.242619      -305.9272 
  24   2.0000     -11.234693      -305.7115 
  25   2.0000     -11.234107      -305.6956 
  26   2.0000     -11.233194      -305.6707 
  27   2.0000     -11.226891      -305.4992 
  28   2.0000     -11.226709      -305.4943 
  29   2.0000     -11.216508      -305.2167 
  30   2.0000     -11.211493      -305.0802 
  31   2.0000     -11.211162      -305.0712 
  32   2.0000     -11.205140      -304.9074 
  33   2.0000     -11.204257      -304.8833 
  34   2.0000     -11.191767      -304.5435 
  35   2.0000     -11.191413      -304.5338 
  36   2.0000     -11.179356      -304.2057 
  37   2.0000     -11.176854      -304.1376 
  38   2.0000     -11.176522      -304.1286 
  39   2.0000     -11.173530      -304.0472 
  40   2.0000     -11.167390      -303.8801 
  41   2.0000     -11.166679      -303.8608 
  42   2.0000     -11.165918      -303.8401 
  43   2.0000     -11.165678      -303.8335 
  44   2.0000     -11.163575      -303.7763 
  45   2.0000     -11.163108      -303.7636 
  46   2.0000     -11.150390      -303.4176 
  47   2.0000     -11.149352      -303.3893 
  48   2.0000     -11.147243      -303.3319 
  49   2.0000     -11.146135      -303.3017 
  50   2.0000     -11.138726      -303.1001 
  51   2.0000     -11.134496      -302.9850 
  52   2.0000      -1.338258       -36.4158 
  53   2.0000      -1.325646       -36.0727 
  54   2.0000      -1.316664       -35.8282 
  55   2.0000      -1.299532       -35.3620 
  56   2.0000      -1.221413       -33.2363 
  57   2.0000      -1.211377       -32.9633 
  58   2.0000      -1.164623       -31.6910 
  59   2.0000      -1.156080       -31.4585 
  60   2.0000      -1.124882       -30.6096 
  61   2.0000      -1.113731       -30.3062 
  62   2.0000      -1.106030       -30.0966 
  63   2.0000      -1.092503       -29.7285 
  64   2.0000      -1.061483       -28.8844 
  65   2.0000      -1.049542       -28.5595 
  66   2.0000      -1.041322       -28.3358 
  67   2.0000      -1.030087       -28.0301 
  68   2.0000      -1.026046       -27.9201 
  69   2.0000      -1.012448       -27.5501 
  70   2.0000      -1.009355       -27.4659 
  71   2.0000      -0.994609       -27.0647 
  72   2.0000      -0.985792       -26.8248 
  73   2.0000      -0.974299       -26.5120 
  74   2.0000      -0.972848       -26.4725 
  75   2.0000      -0.958783       -26.0898 
  76   2.0000      -0.951406       -25.8891 
  77   2.0000      -0.946125       -25.7454 
  78   2.0000      -0.938174       -25.5290 
  79   2.0000      -0.922546       -25.1038 
  80   2.0000      -0.895784       -24.3755 
  81   2.0000      -0.886055       -24.1108 
  82   2.0000      -0.876360       -23.8470 
  83   2.0000      -0.869055       -23.6482 
  84   2.0000      -0.862642       -23.4737 
  85   2.0000      -0.854987       -23.2654 
  86   2.0000      -0.848139       -23.0790 
  87   2.0000      -0.840664       -22.8756 
  88   2.0000      -0.821833       -22.3632 
  89   2.0000      -0.798759       -21.7353 
  90   2.0000      -0.796496       -21.6738 
  91   2.0000      -0.741272       -20.1710 
  92   2.0000      -0.734341       -19.9824 
  93   2.0000      -0.730648       -19.8820 
  94   2.0000      -0.722334       -19.6557 
  95   2.0000      -0.719488       -19.5783 
  96   2.0000      -0.712796       -19.3962 
  97   2.0000      -0.705704       -19.2032 
  98   2.0000      -0.700338       -19.0572 
  99   2.0000      -0.695045       -18.9131 
 100   2.0000      -0.690034       -18.7768 
 101   2.0000      -0.681353       -18.5405 
 102   2.0000      -0.678792       -18.4709 
 103   2.0000      -0.673685       -18.3319 
 104   2.0000      -0.670233       -18.2380 
 105   2.0000      -0.667320       -18.1587 
 106   2.0000      -0.664314       -18.0769 
 107   2.0000      -0.660292       -17.9675 
 108   2.0000      -0.657475       -17.8908 
 109   2.0000      -0.656568       -17.8661 
 110   2.0000      -0.651363       -17.7245 
 111   2.0000      -0.648769       -17.6539 
 112   2.0000      -0.644623       -17.5411 
 113   2.0000      -0.637119       -17.3369 
 114   2.0000      -0.634762       -17.2728 
 115   2.0000      -0.627195       -17.0668 
 116   2.0000      -0.622810       -16.9475 
 117   2.0000      -0.616308       -16.7706 
 118   2.0000      -0.612491       -16.6667 
 119   2.0000      -0.610765       -16.6198 
 120   2.0000      -0.608552       -16.5595 
 121   2.0000      -0.602552       -16.3963 
 122   2.0000      -0.594752       -16.1840 
 123   2.0000      -0.594002       -16.1636 
 124   2.0000      -0.590892       -16.0790 
 125   2.0000      -0.584922       -15.9165 
 126   2.0000      -0.578375       -15.7384 
 127   2.0000      -0.575149       -15.6506 
 128   2.0000      -0.565586       -15.3904 
 129   2.0000      -0.558979       -15.2106 
 130   2.0000      -0.553867       -15.0715 
 131   2.0000      -0.548802       -14.9336 
 132   2.0000      -0.541920       -14.7464 
 133   2.0000      -0.537166       -14.6170 
 134   2.0000      -0.534165       -14.5354 
 135   2.0000      -0.529642       -14.4123 
 136   2.0000      -0.525657       -14.3038 
 137   2.0000      -0.522806       -14.2263 
 138   2.0000      -0.518631       -14.1127 
 139   2.0000      -0.517343       -14.0776 
 140   2.0000      -0.509697       -13.8696 
 141   2.0000      -0.507499       -13.8097 
 142   2.0000      -0.506937       -13.7945 
 143   2.0000      -0.501377       -13.6432 
 144   2.0000      -0.500072       -13.6077 
 145   2.0000      -0.498003       -13.5514 
 146   2.0000      -0.494113       -13.4455 
 147   2.0000      -0.490378       -13.3439 
 148   2.0000      -0.488612       -13.2958 
 149   2.0000      -0.469255       -12.7691 
 150   2.0000      -0.462061       -12.5733 
 151   2.0000      -0.453729       -12.3466 
 152   2.0000      -0.448307       -12.1991 
 153   2.0000      -0.446577       -12.1520 
 154   2.0000      -0.446220       -12.1423 
 155   2.0000      -0.439404       -11.9568 
 156   2.0000      -0.434979       -11.8364 
 157   2.0000      -0.430361       -11.7107 
 158   2.0000      -0.395593       -10.7646 
 159   2.0000      -0.384052       -10.4506 
 160   2.0000      -0.379347       -10.3225 
 161   2.0000      -0.371502       -10.1091 
 162   2.0000      -0.370030       -10.0690 
 163   2.0000      -0.359954        -9.7948 
 164   2.0000      -0.353102        -9.6084 
 165   2.0000      -0.339226        -9.2308 
 166   2.0000      -0.337278        -9.1778 
 167   2.0000      -0.334836        -9.1114 
 168   2.0000      -0.329017        -8.9530 
 169   2.0000      -0.300144        -8.1673 
 170   2.0000      -0.299403        -8.1472 
 171   2.0000      -0.287858        -7.8330 
 172   2.0000      -0.286078        -7.7846 
 173   2.0000      -0.257136        -6.9970 
 174   2.0000      -0.247099        -6.7239 
 175   2.0000      -0.188828        -5.1383 
 176   2.0000      -0.178873        -4.8674 
 177   2.0000      -0.069175        -1.8823 
 178   2.0000      -0.056020        -1.5244 
 179   0.0000       0.029875         0.8129 
 180   0.0000       0.069420         1.8890 
 181   0.0000       0.092761         2.5242 
 182   0.0000       0.101076         2.7504 
 183   0.0000       0.123800         3.3688 
 184   0.0000       0.133907         3.6438 
 185   0.0000       0.141657         3.8547 
 186   0.0000       0.154505         4.2043 
 187   0.0000       0.156316         4.2536 
 188   0.0000       0.161947         4.4068 
 189   0.0000       0.162589         4.4243 
 190   0.0000       0.167726         4.5640 
 191   0.0000       0.177835         4.8391 
 192   0.0000       0.194165         5.2835 
 193   0.0000       0.197568         5.3761 
 194   0.0000       0.202061         5.4984 
 195   0.0000       0.205649         5.5960 
 196   0.0000       0.207833         5.6554 
 197   0.0000       0.210859         5.7378 
 198   0.0000       0.217450         5.9171 
 199   0.0000       0.222426         6.0525 
 200   0.0000       0.229201         6.2369 
 201   0.0000       0.237072         6.4511 
 202   0.0000       0.241810         6.5800 
 203   0.0000       0.246849         6.7171 
 204   0.0000       0.252238         6.8637 
 205   0.0000       0.253780         6.9057 
 206   0.0000       0.255369         6.9489 
 207   0.0000       0.259203         7.0533 
 208   0.0000       0.262912         7.1542 
 209   0.0000       0.264003         7.1839 
 210   0.0000       0.266403         7.2492 
 211   0.0000       0.269839         7.3427 
 212   0.0000       0.271361         7.3841 
 213   0.0000       0.275011         7.4834 
 214   0.0000       0.277388         7.5481 
 215   0.0000       0.279199         7.5974 
 216   0.0000       0.281699         7.6654 
 217   0.0000       0.282153         7.6778 
 218   0.0000       0.284086         7.7304 
 219   0.0000       0.287428         7.8213 
 220   0.0000       0.290455         7.9037 
 221   0.0000       0.292705         7.9649 
 222   0.0000       0.293576         7.9886 
 223   0.0000       0.295367         8.0374 
 224   0.0000       0.298611         8.1256 
 225   0.0000       0.300475         8.1763 
 226   0.0000       0.305787         8.3209 
 227   0.0000       0.307370         8.3640 
 228   0.0000       0.309645         8.4259 
 229   0.0000       0.313580         8.5329 
 230   0.0000       0.314987         8.5712 
 231   0.0000       0.320928         8.7329 
 232   0.0000       0.324548         8.8314 
 233   0.0000       0.330109         8.9827 
 234   0.0000       0.332940         9.0598 
 235   0.0000       0.340085         9.2542 
 236   0.0000       0.355331         9.6690 
 237   0.0000       0.384365        10.4591 
 238   0.0000       0.395332        10.7575 
 239   0.0000       0.399150        10.8614 
 240   0.0000       0.404562        11.0087 
 241   0.0000       0.414064        11.2673 
 242   0.0000       0.419146        11.4055 
 243   0.0000       0.424811        11.5597 
 244   0.0000       0.427848        11.6423 
 245   0.0000       0.431911        11.7529 
 246   0.0000       0.433901        11.8070 
 247   0.0000       0.438278        11.9262 
 248   0.0000       0.440588        11.9890 
 249   0.0000       0.443924        12.0798 
 250   0.0000       0.449487        12.2312 
 251   0.0000       0.456369        12.4184 
 252   0.0000       0.457971        12.4620 
 253   0.0000       0.463066        12.6007 
 254   0.0000       0.470145        12.7933 
 255   0.0000       0.474673        12.9165 
 256   0.0000       0.482987        13.1428 
 257   0.0000       0.484881        13.1943 
 258   0.0000       0.492369        13.3980 
 259   0.0000       0.497184        13.5291 
 260   0.0000       0.500610        13.6223 
 261   0.0000       0.502795        13.6818 
 262   0.0000       0.507292        13.8041 
 263   0.0000       0.509829        13.8732 
 264   0.0000       0.511372        13.9152 
 265   0.0000       0.515098        14.0165 
 266   0.0000       0.518598        14.1118 
 267   0.0000       0.523056        14.2331 
 268   0.0000       0.535713        14.5775 
 269   0.0000       0.538103        14.6425 
 270   0.0000       0.541827        14.7439 
 271   0.0000       0.544548        14.8179 
 272   0.0000       0.545560        14.8454 
 273   0.0000       0.553915        15.0728 
 274   0.0000       0.560146        15.2423 
 275   0.0000       0.564868        15.3709 
 276   0.0000       0.572445        15.5770 
 277   0.0000       0.577973        15.7274 
 278   0.0000       0.580631        15.7998 
 279   0.0000       0.584241        15.8980 
 280   0.0000       0.586341        15.9552 
 281   0.0000       0.590856        16.0780 
 282   0.0000       0.593257        16.1433 
 283   0.0000       0.597401        16.2561 
 284   0.0000       0.599282        16.3073 
 285   0.0000       0.600103        16.3296 
 286   0.0000       0.606731        16.5100 
 287   0.0000       0.610290        16.6068 
 288   0.0000       0.611863        16.6496 
 289   0.0000       0.617464        16.8021 
 290   0.0000       0.622668        16.9437 
 291   0.0000       0.627722        17.0812 
 292   0.0000       0.636552        17.3215 
 293   0.0000       0.637513        17.3476 
 294   0.0000       0.644975        17.5507 
 295   0.0000       0.650909        17.7121 
 296   0.0000       0.655524        17.8377 
 297   0.0000       0.658732        17.9250 
 298   0.0000       0.662310        18.0224 
 299   0.0000       0.665113        18.0986 
 300   0.0000       0.670006        18.2318 
 301   0.0000       0.671368        18.2689 
 302   0.0000       0.679715        18.4960 
 303   0.0000       0.682302        18.5664 
 304   0.0000       0.685300        18.6480 
 305   0.0000       0.686866        18.6906 
 306   0.0000       0.689088        18.7510 
 307   0.0000       0.691874        18.8268 
 308   0.0000       0.697327        18.9752 
 309   0.0000       0.698069        18.9954 
 310   0.0000       0.702288        19.1102 
 311   0.0000       0.704771        19.1778 
 312   0.0000       0.706314        19.2198 
 313   0.0000       0.708047        19.2669 
 314   0.0000       0.711843        19.3702 
 315   0.0000       0.713841        19.4246 
 316   0.0000       0.717164        19.5150 
 317   0.0000       0.718500        19.5514 
 318   0.0000       0.720480        19.6053 
 319   0.0000       0.722561        19.6619 
 320   0.0000       0.727344        19.7920 
 321   0.0000       0.730570        19.8798 
 322   0.0000       0.732461        19.9313 
 323   0.0000       0.734265        19.9804 
 324   0.0000       0.739304        20.1175 
 325   0.0000       0.742446        20.2030 
 326   0.0000       0.742852        20.2140 
 327   0.0000       0.744461        20.2578 
 328   0.0000       0.746878        20.3236 
 329   0.0000       0.748835        20.3768 
 330   0.0000       0.752956        20.4890 
 331   0.0000       0.754891        20.5416 
 332   0.0000       0.758615        20.6430 
 333   0.0000       0.762923        20.7602 
 334   0.0000       0.766124        20.8473 
 335   0.0000       0.773171        21.0391 
 336   0.0000       0.777796        21.1649 
 337   0.0000       0.780196        21.2302 
 338   0.0000       0.785507        21.3747 
 339   0.0000       0.788581        21.4584 
 340   0.0000       0.789180        21.4747 
 341   0.0000       0.792730        21.5713 
 342   0.0000       0.796604        21.6767 
 343   0.0000       0.800930        21.7944 
 344   0.0000       0.804919        21.9029 
 345   0.0000       0.806743        21.9526 
 346   0.0000       0.810123        22.0446 
 347   0.0000       0.810867        22.0648 
 348   0.0000       0.814179        22.1549 
 349   0.0000       0.816197        22.2099 
 350   0.0000       0.820109        22.3163 
 351   0.0000       0.824407        22.4332 
 352   0.0000       0.825530        22.4638 
 353   0.0000       0.827966        22.5301 
 354   0.0000       0.829940        22.5838 
 355   0.0000       0.830897        22.6099 
 356   0.0000       0.832204        22.6454 
 357   0.0000       0.834692        22.7131 
 358   0.0000       0.837822        22.7983 
 359   0.0000       0.838974        22.8296 
 360   0.0000       0.840170        22.8622 
 361   0.0000       0.841804        22.9067 
 362   0.0000       0.842493        22.9254 
 363   0.0000       0.845852        23.0168 
 364   0.0000       0.847048        23.0494 
 365   0.0000       0.848402        23.0862 
 366   0.0000       0.852064        23.1858 
 367   0.0000       0.856090        23.2954 
 368   0.0000       0.859522        23.3888 
 369   0.0000       0.863595        23.4996 
 370   0.0000       0.864609        23.5272 
 371   0.0000       0.870829        23.6965 
 372   0.0000       0.873663        23.7736 
 373   0.0000       0.878954        23.9176 
 374   0.0000       0.880370        23.9561 
 375   0.0000       0.881846        23.9963 
 376   0.0000       0.884547        24.0698 
 377   0.0000       0.888542        24.1785 
 378   0.0000       0.891784        24.2667 
 379   0.0000       0.893340        24.3090 
 380   0.0000       0.898201        24.4413 
 381   0.0000       0.899492        24.4764 
 382   0.0000       0.903279        24.5795 
 383   0.0000       0.903997        24.5990 
 384   0.0000       0.904108        24.6020 
 385   0.0000       0.905912        24.6511 
 386   0.0000       0.908685        24.7266 
 387   0.0000       0.910241        24.7689 
 388   0.0000       0.911603        24.8060 
 389   0.0000       0.914925        24.8964 
 390   0.0000       0.918329        24.9890 
 391   0.0000       0.919631        25.0244 
 392   0.0000       0.923289        25.1240 
 393   0.0000       0.926861        25.2212 
 394   0.0000       0.927369        25.2350 
 395   0.0000       0.930816        25.3288 
 396   0.0000       0.934027        25.4162 
 397   0.0000       0.935346        25.4521 
 398   0.0000       0.937424        25.5086 
 399   0.0000       0.941974        25.6324 
 400   0.0000       0.942717        25.6526 
 401   0.0000       0.947319        25.7779 
 402   0.0000       0.949443        25.8357 
 403   0.0000       0.954387        25.9702 
 404   0.0000       0.955756        26.0074 
 405   0.0000       0.957597        26.0575 
 406   0.0000       0.960068        26.1248 
 407   0.0000       0.963469        26.2173 
 408   0.0000       0.965622        26.2759 
 409   0.0000       0.971835        26.4450 
 410   0.0000       0.975079        26.5333 
 411   0.0000       0.978464        26.6253 
 412   0.0000       0.981671        26.7126 
 413   0.0000       0.985666        26.8213 
 414   0.0000       0.988289        26.8927 
 415   0.0000       0.991515        26.9805 
 416   0.0000       0.999565        27.1996 
 417   0.0000       1.002464        27.2784 
 418   0.0000       1.006535        27.3892 
 419   0.0000       1.014953        27.6183 
 420   0.0000       1.022487        27.8233 
 421   0.0000       1.026773        27.9399 
 422   0.0000       1.031832        28.0776 
 423   0.0000       1.040047        28.3011 
 424   0.0000       1.044883        28.4327 
 425   0.0000       1.048831        28.5401 
 426   0.0000       1.054055        28.6823 
 427   0.0000       1.062824        28.9209 
 428   0.0000       1.064565        28.9683 
 429   0.0000       1.070406        29.1272 
 430   0.0000       1.077061        29.3083 
 431   0.0000       1.081114        29.4186 
 432   0.0000       1.084874        29.5209 
 433   0.0000       1.089133        29.6368 
 434   0.0000       1.098849        29.9012 
 435   0.0000       1.104956        30.0674 
 436   0.0000       1.108056        30.1517 
 437   0.0000       1.109824        30.1998 
 438   0.0000       1.115928        30.3660 
 439   0.0000       1.116876        30.3917 
 440   0.0000       1.121005        30.5041 
 441   0.0000       1.124352        30.5952 
 442   0.0000       1.128575        30.7101 
 443   0.0000       1.129792        30.7432 
 444   0.0000       1.133444        30.8426 
 445   0.0000       1.134023        30.8583 
 446   0.0000       1.135884        30.9090 
 447   0.0000       1.141609        31.0648 
 448   0.0000       1.143640        31.1200 
 449   0.0000       1.146968        31.2106 
 450   0.0000       1.151222        31.3263 
 451   0.0000       1.153333        31.3838 
 452   0.0000       1.154490        31.4153 
 453   0.0000       1.157050        31.4849 
 454   0.0000       1.160101        31.5679 
 455   0.0000       1.168566        31.7983 
 456   0.0000       1.172668        31.9099 
 457   0.0000       1.177237        32.0342 
 458   0.0000       1.180767        32.1303 
 459   0.0000       1.184879        32.2422 
 460   0.0000       1.187869        32.3236 
 461   0.0000       1.192101        32.4387 
 462   0.0000       1.201599        32.6972 
 463   0.0000       1.202999        32.7353 
 464   0.0000       1.206807        32.8389 
 465   0.0000       1.207484        32.8573 
 466   0.0000       1.213876        33.0312 
 467   0.0000       1.215655        33.0796 
 468   0.0000       1.221443        33.2371 
 469   0.0000       1.230142        33.4739 
 470   0.0000       1.230672        33.4883 
 471   0.0000       1.233667        33.5698 
 472   0.0000       1.235223        33.6121 
 473   0.0000       1.237550        33.6754 
 474   0.0000       1.242234        33.8029 
 475   0.0000       1.247243        33.9392 
 476   0.0000       1.251598        34.0577 
 477   0.0000       1.252542        34.0834 
 478   0.0000       1.253574        34.1115 
 479   0.0000       1.256104        34.1803 
 480   0.0000       1.259823        34.2815 
 481   0.0000       1.264168        34.3998 
 482   0.0000       1.269478        34.5443 
 483   0.0000       1.272125        34.6163 
 484   0.0000       1.273947        34.6659 
 485   0.0000       1.275647        34.7121 
 486   0.0000       1.280350        34.8401 
 487   0.0000       1.283827        34.9347 
 488   0.0000       1.288898        35.0727 
 489   0.0000       1.291149        35.1340 
 490   0.0000       1.293569        35.1998 
 491   0.0000       1.300921        35.3999 
 492   0.0000       1.301378        35.4123 
 493   0.0000       1.309263        35.6269 
 494   0.0000       1.311096        35.6767 
 495   0.0000       1.314471        35.7686 
 496   0.0000       1.316261        35.8173 
 497   0.0000       1.322317        35.9821 
 498   0.0000       1.324715        36.0473 
 499   0.0000       1.329614        36.1806 
 500   0.0000       1.333391        36.2834 
 501   0.0000       1.337414        36.3929 
 502   0.0000       1.342085        36.5200 
 503   0.0000       1.347441        36.6657 
 504   0.0000       1.350321        36.7441 
 505   0.0000       1.352608        36.8063 
 506   0.0000       1.353970        36.8434 
 507   0.0000       1.356282        36.9063 
 508   0.0000       1.360766        37.0283 
 509   0.0000       1.362160        37.0663 
 510   0.0000       1.365844        37.1665 
 511   0.0000       1.368034        37.2261 
[...]
 76 H s       :     0.889434  s :     0.889434
      pz      :     0.022022  p :     0.079647
      px      :     0.043417
      py      :     0.014209
 77 H s       :     0.887478  s :     0.887478
      pz      :     0.047755  p :     0.079032
      px      :     0.015016
      py      :     0.016262
 78 H s       :     0.887898  s :     0.887898
      pz      :     0.025766  p :     0.078975
      px      :     0.020520
      py      :     0.032689
 79 H s       :     0.909454  s :     0.909454
      pz      :     0.021993  p :     0.086582
      px      :     0.021730
      py      :     0.042858
 80 H s       :     0.868601  s :     0.868601
      pz      :     0.039054  p :     0.084372
      px      :     0.030057
      py      :     0.015261
 81 H s       :     0.887157  s :     0.887157
      pz      :     0.037776  p :     0.083970
      px      :     0.016165
      py      :     0.030029
 82 H s       :     0.915637  s :     0.915637
      pz      :     0.022074  p :     0.086803
      px      :     0.031455
      py      :     0.033274
 83 H s       :     0.873192  s :     0.873192
      pz      :     0.039238  p :     0.084010
      px      :     0.015267
      py      :     0.029504
 84 H s       :     0.887169  s :     0.887169
      pz      :     0.035767  p :     0.083610
      px      :     0.031705
      py      :     0.016138
 85 H s       :     0.893556  s :     0.893556
      pz      :     0.022491  p :     0.079746
      px      :     0.014088
      py      :     0.043167
 86 H s       :     0.890978  s :     0.890978
      pz      :     0.024722  p :     0.078838
      px      :     0.032981
      py      :     0.021135
 87 H s       :     0.890126  s :     0.890126
      pz      :     0.047980  p :     0.078711
      px      :     0.015599
      py      :     0.015132
 88 H s       :     0.912675  s :     0.912675
      pz      :     0.021930  p :     0.086993
      px      :     0.042660
      py      :     0.022403
 89 H s       :     0.871794  s :     0.871794
      pz      :     0.037930  p :     0.083872
      px      :     0.030485
      py      :     0.015456


                      *****************************
                      * MAYER POPULATION ANALYSIS *
                      *****************************

  NA   - Mulliken gross atomic population
  ZA   - Total nuclear charge
  QA   - Mulliken gross atomic charge
  VA   - Mayer's total valence
  BVA  - Mayer's bonded valence
  FA   - Mayer's free valence

  ATOM       NA         ZA         QA         VA         BVA        FA
  0 C      5.7948     6.0000     0.2052     3.8371     3.8371     0.0000
  1 N      7.4491     7.0000    -0.4491     3.3445     3.3445    -0.0000
  2 C      6.0644     6.0000    -0.0644     3.9196     3.9196    -0.0000
  3 N      7.3366     7.0000    -0.3366     3.4522     3.4522    -0.0000
  4 C      6.0620     6.0000    -0.0620     3.9844     3.9844     0.0000
  5 N      7.5610     7.0000    -0.5610     3.0906     3.0906    -0.0000
  6 C      6.0834     6.0000    -0.0834     4.0050     4.0050    -0.0000
  7 N      7.3391     7.0000    -0.3391     3.4378     3.4378    -0.0000
  8 C      5.7980     6.0000     0.2020     3.8336     3.8336    -0.0000
  9 N      7.5628     7.0000    -0.5628     3.0817     3.0817    -0.0000
 10 C      5.8828     6.0000     0.1172     3.9024     3.9024    -0.0000
 11 N      7.4374     7.0000    -0.4374     3.3842     3.3842     0.0000
 12 C      6.0745     6.0000    -0.0745     3.9175     3.9175    -0.0000
 13 N      7.4355     7.0000    -0.4355     3.3998     3.3998    -0.0000
 14 C      5.7654     6.0000     0.2346     3.7853     3.7853    -0.0000
 15 N      7.4411     7.0000    -0.4411     3.3706     3.3706    -0.0000
 16 C      5.7685     6.0000     0.2315     3.7847     3.7847     0.0000
 17 C      6.0904     6.0000    -0.0904     4.0043     4.0043     0.0000
 18 C      6.1913     6.0000    -0.1913     3.7651     3.7651    -0.0000
 19 C      5.7778     6.0000     0.2222     3.8686     3.8686    -0.0000
 20 C      5.7884     6.0000     0.2116     3.8265     3.8265    -0.0000
 21 C      6.0838     6.0000    -0.0838     3.9092     3.9092    -0.0000
 22 C      6.0871     6.0000    -0.0871     3.9826     3.9826     0.0000
 23 C      6.0449     6.0000    -0.0449     3.9910     3.9910     0.0000
 24 C      5.7984     6.0000     0.2016     3.8224     3.8224     0.0000
 25 C      5.8862     6.0000     0.1138     3.8896     3.8896     0.0000
 26 C      6.0734     6.0000    -0.0734     3.9048     3.9048    -0.0000
 27 C      5.7833     6.0000     0.2167     3.8744     3.8744    -0.0000
 28 C      6.0560     6.0000    -0.0560     3.9882     3.9882     0.0000
 29 C      6.1825     6.0000    -0.1825     3.7395     3.7395     0.0000
 30 C      5.7601     6.0000     0.2399     3.7951     3.7951     0.0000
 31 C      5.7803     6.0000     0.2197     3.8234     3.8234    -0.0000
 32 C      6.0634     6.0000    -0.0634     3.9204     3.9204    -0.0000
 33 C      6.0728     6.0000    -0.0728     3.9800     3.9800     0.0000
 34 C      6.0496     6.0000    -0.0496     3.9887     3.9887    -0.0000
 35 C      5.7865     6.0000     0.2135     3.8216     3.8216    -0.0000
 36 C      5.8883     6.0000     0.1117     3.8845     3.8845     0.0000
 37 C      6.0656     6.0000    -0.0656     3.9176     3.9176    -0.0000
 38 C      5.7647     6.0000     0.2353     3.8007     3.8007    -0.0000
 39 C      6.0605     6.0000    -0.0605     3.9878     3.9878    -0.0000
 40 C      6.1852     6.0000    -0.1852     3.7352     3.7352    -0.0000
 41 C      5.7781     6.0000     0.2219     3.8831     3.8831     0.0000
 42 C      5.7999     6.0000     0.2001     3.8269     3.8269     0.0000
 43 C      6.0733     6.0000    -0.0733     3.9017     3.9017    -0.0000
 44 C      6.0900     6.0000    -0.0900     3.9855     3.9855     0.0000
 45 C      6.0568     6.0000    -0.0568     3.9924     3.9924     0.0000
 46 C      5.7936     6.0000     0.2064     3.8272     3.8272    -0.0000
 47 C      5.8843     6.0000     0.1157     3.8938     3.8938     0.0000
 48 C      6.0718     6.0000    -0.0718     3.9063     3.9063     0.0000
 49 C      5.7688     6.0000     0.2312     3.8888     3.8888     0.0000
 50 C      6.0499     6.0000    -0.0499     3.9905     3.9905     0.0000
 51 C      6.1914     6.0000    -0.1914     3.7369     3.7369     0.0000
 52 H      0.9526     1.0000     0.0474     0.9856     0.9856     0.0000
 53 H      1.0152     1.0000    -0.0152     0.9987     0.9987     0.0000
 54 H      0.9539     1.0000     0.0461     1.0113     1.0113    -0.0000
 55 H      0.9546     1.0000     0.0454     0.9863     0.9863     0.0000
 56 H      0.9467     1.0000     0.0533     0.9706     0.9706    -0.0000
 57 H      0.9479     1.0000     0.0521     0.9827     0.9827     0.0000
 58 H      0.9485     1.0000     0.0515     0.9857     0.9857     0.0000
 59 H      1.0066     1.0000    -0.0066     1.0019     1.0019    -0.0000
 60 H      0.9535     1.0000     0.0465     1.0084     1.0084     0.0000
 61 H      0.8282     1.0000     0.1718     1.0421     1.0421     0.0000
 62 H      0.8258     1.0000     0.1742     1.0435     1.0435    -0.0000
 63 H      0.9430     1.0000     0.0570     0.9853     0.9853    -0.0000
 64 H      1.0127     1.0000    -0.0127     0.9958     0.9958    -0.0000
 65 H      0.9532     1.0000     0.0468     1.0095     1.0095     0.0000
 66 H      0.9426     1.0000     0.0574     0.9851     0.9851    -0.0000
 67 H      0.9365     1.0000     0.0635     0.9720     0.9720     0.0000
 68 H      0.9418     1.0000     0.0582     0.9868     0.9868     0.0000
 69 H      0.9416     1.0000     0.0584     0.9829     0.9829    -0.0000
 70 H      1.0263     1.0000    -0.0263     0.9932     0.9932     0.0000
 71 H      0.9524     1.0000     0.0476     1.0063     1.0063     0.0000
 72 H      0.9373     1.0000     0.0627     0.9844     0.9844    -0.0000
 73 H      1.0115     1.0000    -0.0115     0.9996     0.9996     0.0000
 74 H      0.9475     1.0000     0.0525     1.0101     1.0101    -0.0000
 75 H      0.9382     1.0000     0.0618     0.9849     0.9849    -0.0000
 76 H      0.9326     1.0000     0.0674     0.9719     0.9719     0.0000
 77 H      0.9377     1.0000     0.0623     0.9853     0.9853     0.0000
 78 H      0.9386     1.0000     0.0614     0.9850     0.9850     0.0000
 79 H      1.0146     1.0000    -0.0146     0.9988     0.9988    -0.0000
 80 H      0.9471     1.0000     0.0529     1.0071     1.0071    -0.0000
 81 H      0.9464     1.0000     0.0536     0.9856     0.9856    -0.0000
 82 H      1.0245     1.0000    -0.0245     0.9937     0.9937    -0.0000
 83 H      0.9580     1.0000     0.0420     1.0089     1.0089     0.0000
 84 H      0.9469     1.0000     0.0531     0.9854     0.9854    -0.0000
 85 H      0.9406     1.0000     0.0594     0.9716     0.9716     0.0000
 86 H      0.9443     1.0000     0.0557     0.9839     0.9839     0.0000
 87 H      0.9433     1.0000     0.0567     0.9856     0.9856     0.0000
 88 H      1.0188     1.0000    -0.0188     0.9955     0.9955     0.0000
 89 H      0.9543     1.0000     0.0457     1.0069     1.0069    -0.0000

  Mayer bond orders larger than 0.100000
B(  0-C ,  1-N ) :   1.1019 B(  0-C , 17-C ) :   1.6718 B(  0-C , 52-H ) :   0.9687 
B(  1-N ,  8-C ) :   1.0948 B(  1-N , 10-C ) :   0.9711 B(  2-C , 12-C ) :   1.5259 
B(  2-C , 16-C ) :   1.3361 B(  2-C , 53-H ) :   0.9773 B(  3-N , 14-C ) :   1.2108 
B(  3-N , 16-C ) :   1.1937 B(  3-N , 61-H ) :   0.8991 B(  4-C ,  6-C ) :   1.2355 
B(  4-C , 17-C ) :   1.2336 B(  4-C , 18-C ) :   1.3495 B(  5-N , 19-C ) :   1.4364 
B(  5-N , 27-C ) :   1.3926 B(  6-C ,  8-C ) :   1.6735 B(  6-C , 54-H ) :   0.9686 
B(  7-N , 30-C ) :   1.1933 B(  7-N , 38-C ) :   1.1975 B(  7-N , 62-H ) :   0.8975 
B(  8-C , 55-H ) :   0.9701 B(  9-N , 41-C ) :   1.3999 B(  9-N , 49-C ) :   1.4227 
B( 10-C , 56-H ) :   0.9764 B( 10-C , 57-H ) :   0.9828 B( 10-C , 58-H ) :   0.9833 
B( 11-N , 20-C ) :   1.1293 B( 11-N , 24-C ) :   1.1179 B( 11-N , 25-C ) :   0.9580 
B( 12-C , 14-C ) :   1.3392 B( 12-C , 59-H ) :   0.9756 B( 13-N , 31-C ) :   1.1403 
B( 13-N , 35-C ) :   1.1335 B( 13-N , 36-C ) :   0.9521 B( 14-C , 18-C ) :   1.1678 
B( 15-N , 42-C ) :   1.1111 B( 15-N , 46-C ) :   1.1178 B( 15-N , 47-C ) :   0.9623 
B( 16-C , 51-C ) :   1.1880 B( 17-C , 60-H ) :   0.9691 B( 18-C , 19-C ) :   1.1764 
B( 19-C , 21-C ) :   1.2265 B( 20-C , 28-C ) :   1.6233 B( 20-C , 63-H ) :   0.9702 
B( 21-C , 26-C ) :   1.6312 B( 21-C , 64-H ) :   0.9721 B( 22-C , 23-C ) :   1.2882 
B( 22-C , 28-C ) :   1.2721 B( 22-C , 29-C ) :   1.2226 B( 23-C , 24-C ) :   1.6165 
B( 23-C , 65-H ) :   0.9707 B( 24-C , 66-H ) :   0.9693 B( 25-C , 67-H ) :   0.9761 
B( 25-C , 68-H ) :   0.9828 B( 25-C , 69-H ) :   0.9822 B( 26-C , 27-C ) :   1.2217 
B( 26-C , 70-H ) :   0.9723 B( 27-C , 29-C ) :   1.2230 B( 28-C , 71-H ) :   0.9716 
B( 29-C , 30-C ) :   1.2268 B( 30-C , 32-C ) :   1.2969 B( 31-C , 39-C ) :   1.6128 
B( 31-C , 72-H ) :   0.9690 B( 32-C , 37-C ) :   1.5618 B( 32-C , 73-H ) :   0.9781 
B( 33-C , 34-C ) :   1.2896 B( 33-C , 39-C ) :   1.2824 B( 33-C , 40-C ) :   1.2168 
B( 34-C , 35-C ) :   1.6095 B( 34-C , 74-H ) :   0.9701 B( 35-C , 75-H ) :   0.9691 
B( 36-C , 76-H ) :   0.9765 B( 36-C , 77-H ) :   0.9819 B( 36-C , 78-H ) :   0.9828 
B( 37-C , 38-C ) :   1.2996 B( 37-C , 79-H ) :   0.9773 B( 38-C , 40-C ) :   1.2202 
B( 39-C , 80-H ) :   0.9712 B( 40-C , 41-C ) :   1.2318 B( 41-C , 43-C ) :   1.2034 
B( 42-C , 50-C ) :   1.6346 B( 42-C , 81-H ) :   0.9696 B( 43-C , 48-C ) :   1.6481 
B( 43-C , 82-H ) :   0.9730 B( 44-C , 45-C ) :   1.2662 B( 44-C , 50-C ) :   1.2683 
B( 44-C , 51-C ) :   1.2605 B( 45-C , 46-C ) :   1.6349 B( 45-C , 83-H ) :   0.9715 
B( 46-C , 84-H ) :   0.9702 B( 47-C , 85-H ) :   0.9762 B( 47-C , 86-H ) :   0.9829 
B( 47-C , 87-H ) :   0.9825 B( 48-C , 49-C ) :   1.2051 B( 48-C , 88-H ) :   0.9743 
B( 49-C , 51-C ) :   1.2253 B( 50-C , 89-H ) :   0.9711 

-------
TIMINGS
-------

Total SCF time: 0 days 0 hours 40 min 13 sec 

Total time                  ....    2413.012 sec
Sum of individual times     ....    2410.097 sec  ( 99.9%)

Fock matrix formation       ....    2393.358 sec  ( 99.2%)
Diagonalization             ....       4.663 sec  (  0.2%)
Density matrix formation    ....       0.450 sec  (  0.0%)
Population analysis         ....       0.327 sec  (  0.0%)
Initial guess               ....       2.323 sec  (  0.1%)
Orbital Transformation      ....       0.000 sec  (  0.0%)
Orbital Orthonormalization  ....       0.000 sec  (  0.0%)
DIIS solution               ....       2.522 sec  (  0.1%)
SOSCF solution              ....       5.112 sec  (  0.2%)

Maximum memory used throughout the entire SCF-calculation: 304.2 MB


           ************************************************************
           *        Program running with 8 parallel MPI-processes     *
           *              working on a common directory               *
           ************************************************************

------------------------------------------------------------------------------
                                ORCA  MP2 
------------------------------------------------------------------------------

Freezing NCore=104 chemical core electrons

----------
MP2 ENERGY (disk based algorithm)
----------

Dimension of the basis                    ...  918
Memory devoted to MP2                     ... 7000 MB   
Data format for buffers                   ... DOUBLE
Compression type for matrix containers    ... UNCOMPRESSED

-------------------------------
PARTIAL EXCHANGE TRANSFORMATION
-------------------------------

Transformation type                        ... one-operator
Generation of integrals (i,mue|j,nue)      ... ON
Generation of integrals (mue,kappa|nue,tau)... OFF
Generation of integrals (i,mue|a,nue)      ... OFF
Dimension of the basis                     ...  918
Number of internal MOs                     ...  127 (  52- 178)
Pair cutoff                                ... 2.500e-12 Eh
Number of AO pairs in the trafo            ... 421821
Total Number of distinct AO pairs          ... 421821
Memory devoted for trafo                   ... 7000.0 MB 
Max. Number of MO pairs treated together   ... 1088      
Number Format for Storage                  ... Double (8 Byte)
Integral package used                      ... LIBINT

Starting integral evaluation:
    ... done with AO integral generation
Closing buffer AOK     (38.21 GB; CompressionRatio= 1.33)
Collecting buffer AOK 
Number of MO pairs included in the trafo   ... 8128
------------------------
SORTING OF (i,mue|j,nue)
------------------------

IBATCH = 1 of  1
Closing buffer KAO     (51.03 GB; CompressionRatio= 1.00)
Collecting buffer KAO 
N(AO-Batches) Done                         ... 173987206 
N(AO-Batches) Skipped                      ... 167240841 
N(IJ)-pairs Skipped                        ...         0 
TOTAL TIME for half transformation         ...  1503.537 sec
AO-integral generation                     ...   255.072 sec
Half transformation                        ...   481.013 sec
K-integral sorting                         ...   430.431 sec

Finished integral transformation - now doing MP2 part

OPERATOR COMBINATION   0   0: ij=( 52..178, 52..178)
Process 5:   Internal MO 132
Process 2:   Internal MO  84
Process 0:   Internal MO  54
Process 0:   Internal MO  57
Process 1:   Internal MO  69
Process 0:   Internal MO  60
Process 4:   Internal MO 117
Process 0:   Internal MO  63
Process 1:   Internal MO  72
Process 3:   Internal MO 102
Process 0:   Internal MO  66
Process 2:   Internal MO  87
Process 7:   Internal MO 165
Process 1:   Internal MO  75
Process 6:   Internal MO 150
Process 2:   Internal MO  90
Process 1:   Internal MO  78
Process 5:   Internal MO 135
Process 3:   Internal MO 105
Process 4:   Internal MO 120
Process 1:   Internal MO  81
Process 2:   Internal MO  93
Process 3:   Internal MO 108
Process 7:   Internal MO 168
Process 2:   Internal MO  96
Process 4:   Internal MO 123
Process 6:   Internal MO 153
Process 5:   Internal MO 138
Process 3:   Internal MO 111
Process 2:   Internal MO  99
Process 4:   Internal MO 126
Process 5:   Internal MO 141
Process 3:   Internal MO 114
Process 6:   Internal MO 156
Process 7:   Internal MO 171
Process 4:   Internal MO 129
Process 5:   Internal MO 144
Process 6:   Internal MO 159
Process 7:   Internal MO 174
Process 5:   Internal MO 147
Process 6:   Internal MO 162
Process 7:   Internal MO 177
-----------------------------------------------
 MP2 CORRELATION ENERGY   :     -7.286592315 Eh
-----------------------------------------------


-------
TIMINGS
-------
Total time                : 1662.255 sec
Integral trafo            : 1510.539 sec ( 90.9%)
K(i,j)                    :    9.941 sec (  0.6%)
T(i,j)                    :    0.148 sec (  0.0%)

---------------------------------------
MP2 TOTAL ENERGY:    -2130.915885082 Eh
---------------------------------------

Maximum memory used throughout the entire MP2-calculation: 6735.7 MB

-------------------------   --------------------
FINAL SINGLE POINT ENERGY     -2130.915885081755
-------------------------   --------------------


                            ***************************************
                            *     ORCA property calculations      *
                            ***************************************


  WARNING: The energy has been calculated at the MP2 level but the densities
           used in the property calculations are still SCF densities
           MP2 response densities have not been calculated 
           use %mp2 Density relaxed end
           or  %mp2 Density unrelaxed end

                                    ---------------------
                                    Active property flags
                                    ---------------------
   (+) Dipole Moment


------------------------------------------------------------------------------
                       ORCA ELECTRIC PROPERTIES CALCULATION
------------------------------------------------------------------------------

Dipole Moment Calculation                       ... on
Quadrupole Moment Calculation                   ... off
Polarizability Calculation                      ... off
GBWName                                         ... /scratch/chu_02/allen/tmpyp4_amber_gaff2/conf1/conf1/Conf311.orca.gbw
Electron density                                ... /scratch/chu_02/allen/tmpyp4_amber_gaff2/conf1/conf1/Conf311.orca.scfp
The origin for moment calculation is the CENTER OF MASS  = (-0.001014, -0.004711 -0.000450)

-------------
DIPOLE MOMENT
-------------
                                X             Y             Z
Electronic contribution:      0.88691      -2.44661      -0.05908
Nuclear contribution   :      0.01537       0.19757       0.07046
                        -----------------------------------------
Total Dipole Moment    :      0.90228      -2.24904       0.01138
                        -----------------------------------------
Magnitude (a.u.)       :      2.42331
Magnitude (Debye)      :      6.15956



--------------------
Rotational spectrum 
--------------------
 
Rotational constants in cm-1:     0.001500     0.001474     0.000762 
Rotational constants in MHz :    44.977936    44.191593    22.833722 

 Dipole components along the rotational axes: 
x,y,z [a.u.] :     1.536212    -1.874115     0.013172 
x,y,z [Debye]:     3.904740    -4.763622     0.033481 

 

Timings for individual modules:

Sum of individual times         ...     4080.785 sec (=  68.013 min)
GTO integral calculation        ...        2.810 sec (=   0.047 min)   0.1 %
SCF iterations                  ...     2414.325 sec (=  40.239 min)  59.2 %
MP2 module                      ...     1663.650 sec (=  27.727 min)  40.8 %
                             ****ORCA TERMINATED NORMALLY****
TOTAL RUN TIME: 0 days 1 hours 8 minutes 3 seconds 1 msec
# of primitive gaussian functions

