
                                 *****************
                                 * O   R   C   A *
                                 *****************

                                            #,                                       
                                            ###                                      
                                            ####                                     
                                            #####                                    
                                            ######                                   
                                           ########,                                 
                                     ,,################,,,,,                         
                               ,,#################################,,                 
                          ,,##########################################,,             
                       ,#########################################, ''#####,          
                    ,#############################################,,   '####,        
                  ,##################################################,,,,####,       
                ,###########''''           ''''###############################       
              ,#####''   ,,,,##########,,,,          '''####'''          '####       
            ,##' ,,,,###########################,,,                        '##       
           ' ,,###''''                  '''############,,,                           
         ,,##''                                '''############,,,,        ,,,,,,###''
      ,#''                                            '''#######################'''  
     '                                                          ''''####''''         
             ,#######,   #######,   ,#######,      ##                                
            ,#'     '#,  ##    ##  ,#'     '#,    #''#        ######   ,####,        
            ##       ##  ##   ,#'  ##            #'  '#       #        #'  '#        
            ##       ##  #######   ##           ,######,      #####,   #    #        
            '#,     ,#'  ##    ##  '#,     ,#' ,#      #,         ##   #,  ,#        
             '#######'   ##     ##  '#######'  #'      '#     #####' # '####'        



                  #######################################################
                  #                        -***-                        #
                  #          Department of theory and spectroscopy      #
                  #    Directorship and core code : Frank Neese         #
                  #        Max Planck Institute fuer Kohlenforschung    #
                  #                Kaiser Wilhelm Platz 1               #
                  #                 D-45470 Muelheim/Ruhr               #
                  #                      Germany                        #
                  #                                                     #
                  #                  All rights reserved                #
                  #                        -***-                        #
                  #######################################################


                         Program Version 5.0.4 -  RELEASE  -


 With contributions from (in alphabetic order):
   Daniel Aravena         : Magnetic Suceptibility
   Michael Atanasov       : Ab Initio Ligand Field Theory (pilot matlab implementation)
   Alexander A. Auer      : GIAO ZORA, VPT2 properties, NMR spectrum
   Ute Becker             : Parallelization
   Giovanni Bistoni       : ED, misc. LED, open-shell LED, HFLD
   Martin Brehm           : Molecular dynamics
   Dmytro Bykov           : SCF Hessian
   Vijay G. Chilkuri      : MRCI spin determinant printing, contributions to CSF-ICE
   Dipayan Datta          : RHF DLPNO-CCSD density
   Achintya Kumar Dutta   : EOM-CC, STEOM-CC
   Dmitry Ganyushin       : Spin-Orbit,Spin-Spin,Magnetic field MRCI
   Miquel Garcia          : C-PCM and meta-GGA Hessian, CC/C-PCM, Gaussian charge scheme
   Yang Guo               : DLPNO-NEVPT2, F12-NEVPT2, CIM, IAO-localization
   Andreas Hansen         : Spin unrestricted coupled pair/coupled cluster methods
   Benjamin Helmich-Paris : MC-RPA, TRAH-SCF, COSX integrals
   Lee Huntington         : MR-EOM, pCC
   Robert Izsak           : Overlap fitted RIJCOSX, COSX-SCS-MP3, EOM
   Marcus Kettner         : VPT2
   Christian Kollmar      : KDIIS, OOCD, Brueckner-CCSD(T), CCSD density, CASPT2, CASPT2-K
   Simone Kossmann        : Meta GGA functionals, TD-DFT gradient, OOMP2, MP2 Hessian
   Martin Krupicka        : Initial AUTO-CI
   Lucas Lang             : DCDCAS
   Marvin Lechner         : AUTO-CI (C++ implementation), FIC-MRCC
   Dagmar Lenk            : GEPOL surface, SMD
   Dimitrios Liakos       : Extrapolation schemes; Compound Job, initial MDCI parallelization
   Dimitrios Manganas     : Further ROCIS development; embedding schemes
   Dimitrios Pantazis     : SARC Basis sets
   Anastasios Papadopoulos: AUTO-CI, single reference methods and gradients
   Taras Petrenko         : DFT Hessian,TD-DFT gradient, ASA, ECA, R-Raman, ABS, FL, XAS/XES, NRVS
   Peter Pinski           : DLPNO-MP2, DLPNO-MP2 Gradient
   Christoph Reimann      : Effective Core Potentials
   Marius Retegan         : Local ZFS, SOC
   Christoph Riplinger    : Optimizer, TS searches, QM/MM, DLPNO-CCSD(T), (RO)-DLPNO pert. Triples
   Tobias Risthaus        : Range-separated hybrids, TD-DFT gradient, RPA, STAB
   Michael Roemelt        : Original ROCIS implementation
   Masaaki Saitow         : Open-shell DLPNO-CCSD energy and density
   Barbara Sandhoefer     : DKH picture change effects
   Avijit Sen             : IP-ROCIS
   Kantharuban Sivalingam : CASSCF convergence, NEVPT2, FIC-MRCI
   Bernardo de Souza      : ESD, SOC TD-DFT
   Georgi Stoychev        : AutoAux, RI-MP2 NMR, DLPNO-MP2 response
   Willem Van den Heuvel  : Paramagnetic NMR
   Boris Wezisla          : Elementary symmetry handling
   Frank Wennmohs         : Technical directorship


 We gratefully acknowledge several colleagues who have allowed us to
 interface, adapt or use parts of their codes:
   Stefan Grimme, W. Hujo, H. Kruse, P. Pracht,  : VdW corrections, initial TS optimization,
                  C. Bannwarth, S. Ehlert          DFT functionals, gCP, sTDA/sTD-DF
   Ed Valeev, F. Pavosevic, A. Kumar             : LibInt (2-el integral package), F12 methods
   Garnet Chan, S. Sharma, J. Yang, R. Olivares  : DMRG
   Ulf Ekstrom                                   : XCFun DFT Library
   Mihaly Kallay                                 : mrcc  (arbitrary order and MRCC methods)
   Jiri Pittner, Ondrej Demel                    : Mk-CCSD
   Frank Weinhold                                : gennbo (NPA and NBO analysis)
   Christopher J. Cramer and Donald G. Truhlar   : smd solvation model
   Lars Goerigk                                  : TD-DFT with DH, B97 family of functionals
   V. Asgeirsson, H. Jonsson                     : NEB implementation
   FAccTs GmbH                                   : IRC, NEB, NEB-TS, DLPNO-Multilevel, CI-OPT
                                                   MM, QMMM, 2- and 3-layer-ONIOM, Crystal-QMMM,
                                                   LR-CPCM, SF, NACMEs, symmetry and pop. for TD-DFT,
                                                   nearIR, NL-DFT gradient (VV10), updates on ESD,
                                                   ML-optimized integration grids
   S Lehtola, MJT Oliveira, MAL Marques          : LibXC Library
   Liviu Ungur et al                             : ANISO software


 Your calculation uses the libint2 library for the computation of 2-el integrals
 For citations please refer to: http://libint.valeyev.net

 Your ORCA version has been built with support for libXC version: 5.1.0
 For citations please refer to: https://tddft.org/programs/libxc/

 This ORCA versions uses:
   CBLAS   interface :  Fast vector & matrix operations
   LAPACKE interface :  Fast linear algebra routines
   SCALAPACK package :  Parallel linear algebra routines
   Shared memory     :  Shared parallel matrices
   BLAS/LAPACK       :  OpenBLAS 0.3.15  USE64BITINT DYNAMIC_ARCH NO_AFFINITY Sandybridge SINGLE_THREADED
        Core in use  :  Sandybridge
   Copyright (c) 2011-2014, The OpenBLAS Project


================================================================================

----- Orbital basis set information -----
Your calculation utilizes the basis: cc-pVDZ 
       H, B-Ne : Obtained from the ccRepo (grant-hill.group.shef.ac.uk/ccrepo) Feb. 2017
                 T. H. Dunning, Jr., J. Chem. Phys. 90, 1007 (1989)
            He : Obtained from the ccRepo (grant-hill.group.shef.ac.uk/ccrepo) Feb. 2017
                 D. E. Woon, T. H. Dunning, Jr., J. Chem. Phys. 100, 2975 (1994)
  Li-Be, Na-Mg : Obtained from the ccRepo (grant-hill.group.shef.ac.uk/ccrepo) Feb. 2017
                 B. P. Prascher, D. E. Woon, K. A. Peterson, T. H. Dunning, Jr., A. K. Wilson, Theor. Chem. Acc. 128, 69 (2011)
         Al-Ar : Obtained from the ccRepo (grant-hill.group.shef.ac.uk/ccrepo) Feb. 2017
                 D. E. Woon, T. H. Dunning, Jr., J. Chem. Phys. 98, 1358 (1993)
            Ca : Obtained from the Peterson Research Group Website (tyr0.chem.wsu.edu/~kipeters) Feb. 2017
                 J. Koput, K. A. Peterson, J. Phys. Chem. 106, 9595 (2002)
         Sc-Zn : Obtained from the ccRepo (grant-hill.group.shef.ac.uk/ccrepo) Feb. 2017
                 N. B. Balabanov, K. A. Peterson, J. Chem. Phys. 123, 064107 (2005)
                 N. B. Balabanov, K. A. Peterson, J. Chem. Phys. 125, 074110 (2006)
         Ga-Kr : Obtained from the ccRepo (grant-hill.group.shef.ac.uk/ccrepo) Feb. 2017
                 A. K. Wilson, D. E. Woon, K. A. Peterson, T. H. Dunning, Jr., J. Chem. Phys. 110, 7667 (1999)

================================================================================
                                        WARNINGS
                       Please study these warnings very carefully!
================================================================================


WARNING: No MP2 level density has been requested!
         To caclulate MP2 level properties use
         %mp2 Density relaxed end
         or
         %mp2 Density unrelaxed end

WARNING: Post HF methods need fully converged wavefunctions
  ===> : Setting SCFConvForced true
         You can overwrite this default with %scf ConvForced false 


INFO   : the flag for use of the SHARK integral package has been found!

================================================================================
                                       INPUT FILE
================================================================================
NAME = /scratch/allen/tmpyp4_amber_gaff2/2.Mdgx/conf11/conf11/Conf8.orca
|  1> ! PAL2
|  2> ! mp2 cc-pvdz TightSCF  NoKeepInts
|  3> 
|  4> %scf
|  5>   MaxCore 2000
|  6> end
|  7> %mp2
|  8>   MaxCore 2000
|  9> end
| 10> * xyz 0 1
| 11>    C       -3.04000         6.49300        -0.03300
| 12>    C        1.47400         4.04100         0.05700
| 13>    C       -2.80200         4.09300         0.04900
| 14>    C       -4.19500         4.01100         0.19900
| 15>    C       -4.95800         5.16200         0.22500
| 16>    C       -5.22900         7.59100         0.10700
| 17>    C        0.13200         4.30700         0.06100
| 18>    C       -0.56900         3.05600         0.04700
| 19>    C        1.64900         2.61800         0.02300
| 20>    C       -2.23500         5.37100        -0.07000
| 21>    N       -4.37900         6.38000         0.11400
| 22>    N        0.38800         2.06700         0.02500
| 23>    N       -2.01000         0.39500        -0.07500
| 24>    N       -0.38800        -2.07400        -0.02700
| 25>    N        2.01000        -0.40100         0.06500
| 26>    C       -1.96000         2.86100         0.02400
| 27>    C       -2.62300         1.61500        -0.01800
| 28>    C       -5.57300        -4.32900         1.06600
| 29>    C       -4.07300         1.47100         0.05600
| 30>    C       -4.10600        -2.75600        -0.02600
| 31>    C       -4.99500        -2.75700        -1.11100
| 32>    C       -6.13200        -3.54200        -1.07600
| 33>    C       -7.65100        -5.11300         0.04000
| 34>    C       -4.32400         0.14100         0.03700
| 35>    C       -3.02500        -0.52000        -0.04800
| 36>    C       -4.42200        -3.56600         1.07500
| 37>    N       -6.40700        -4.31300         0.00100
| 38>    C       -2.86700        -1.92200        -0.04000
| 39>    C       -1.65000        -2.62400        -0.02700
| 40>    C        3.56800        -6.14200        -1.04000
| 41>    C       -1.47600        -4.04900        -0.03400
| 42>    C        2.80300        -4.09900        -0.00800
| 43>    C        3.65700        -4.38400         1.06900
| 44>    C        4.42700        -5.53000         1.05900
| 45>    C        5.24500        -7.58800         0.01400
| 46>    C       -0.13400        -4.31500        -0.02200
| 47>    C        0.56800        -3.06400        -0.02700
| 48>    C        2.77500        -5.01200        -1.07400
| 49>    N        4.37600        -6.39100         0.01700
| 50>    C        1.95900        -2.86900        -0.00900
| 51>    C        2.62100        -1.62200         0.00900
| 52>    C        5.54300         4.33900        -1.13000
| 53>    C        4.07000        -1.47900        -0.09400
| 54>    C        4.10400         2.75100        -0.02100
| 55>    C        5.02700         2.72900         1.03600
| 56>    C        6.16600         3.50900         0.97800
| 57>    C        7.61900         5.15300        -0.11500
| 58>    C        4.32100        -0.14800        -0.09200
| 59>    C        3.02500         0.51400         0.01500
| 60>    C        4.38700         3.58200        -1.11500
| 61>    C        2.86600         1.91600         0.01300
| 62>    N        6.41300         4.29600        -0.09500
| 63>    H       -2.64400         7.49900        -0.10900
| 64>    H        2.27400         4.76600         0.08100
| 65>    H       -4.69300         3.05300         0.28600
| 66>    H       -6.03500         5.14800         0.33000
| 67>    H       -5.57400         7.77800        -0.91200
| 68>    H       -6.08000         7.42700         0.76800
| 69>    H       -4.63800         8.43500         0.46300
| 70>    H       -0.33200         5.28200         0.06900
| 71>    H       -1.16400         5.50100        -0.17400
| 72>    H        0.18200         1.07200         0.00500
| 73>    H       -0.18300        -1.08000        -0.02100
| 74>    H       -5.86400        -4.96200         1.89500
| 75>    H       -4.79400         2.27200         0.13900
| 76>    H       -4.80000        -2.16000        -1.99400
| 77>    H       -6.84100        -3.58200        -1.89300
| 78>    H       -8.42800        -4.53600         0.54600
| 79>    H       -7.95600        -5.33700        -0.98100
| 80>    H       -7.45600        -6.03700         0.58400
| 81>    H       -5.28700        -0.34400         0.10000
| 82>    H       -3.78000        -3.60100         1.94700
| 83>    H        3.58700        -6.86800        -1.84300
| 84>    H       -2.27600        -4.77400        -0.05000
| 85>    H        3.71400        -3.72400         1.92600
| 86>    H        5.09200        -5.79500         1.87100
| 87>    H        6.20500        -7.32900        -0.43900
| 88>    H        5.39300        -7.91700         1.04200
| 89>    H        4.75900        -8.37300        -0.56400
| 90>    H        0.32900        -5.29000        -0.00800
| 91>    H        2.14600        -4.84200        -1.94000
| 92>    H        5.80800         4.98600        -1.95600
| 93>    H        4.78800        -2.28100        -0.18500
| 94>    H        4.86000         2.11400         1.91200
| 95>    H        6.90100         3.53100         1.77200
| 96>    H        7.38300         6.10900         0.35600
| 97>    H        8.41400         4.65200         0.43500
| 98>    H        7.92100         5.31000        -1.15000
| 99>    H        5.28300         0.33600        -0.17900
|100>    H        3.72000         3.63200        -1.96700
|101> *
|102> 
|103>                          ****END OF INPUT****
================================================================================

                       ****************************
                       * Single Point Calculation *
                       ****************************

---------------------------------
CARTESIAN COORDINATES (ANGSTROEM)
---------------------------------
  C     -3.040000    6.493000   -0.033000
  C      1.474000    4.041000    0.057000
  C     -2.802000    4.093000    0.049000
  C     -4.195000    4.011000    0.199000
  C     -4.958000    5.162000    0.225000
  C     -5.229000    7.591000    0.107000
  C      0.132000    4.307000    0.061000
  C     -0.569000    3.056000    0.047000
  C      1.649000    2.618000    0.023000
  C     -2.235000    5.371000   -0.070000
  N     -4.379000    6.380000    0.114000
  N      0.388000    2.067000    0.025000
  N     -2.010000    0.395000   -0.075000
  N     -0.388000   -2.074000   -0.027000
  N      2.010000   -0.401000    0.065000
  C     -1.960000    2.861000    0.024000
  C     -2.623000    1.615000   -0.018000
  C     -5.573000   -4.329000    1.066000
  C     -4.073000    1.471000    0.056000
  C     -4.106000   -2.756000   -0.026000
  C     -4.995000   -2.757000   -1.111000
  C     -6.132000   -3.542000   -1.076000
  C     -7.651000   -5.113000    0.040000
  C     -4.324000    0.141000    0.037000
  C     -3.025000   -0.520000   -0.048000
  C     -4.422000   -3.566000    1.075000
  N     -6.407000   -4.313000    0.001000
  C     -2.867000   -1.922000   -0.040000
  C     -1.650000   -2.624000   -0.027000
  C      3.568000   -6.142000   -1.040000
  C     -1.476000   -4.049000   -0.034000
  C      2.803000   -4.099000   -0.008000
  C      3.657000   -4.384000    1.069000
  C      4.427000   -5.530000    1.059000
  C      5.245000   -7.588000    0.014000
  C     -0.134000   -4.315000   -0.022000
  C      0.568000   -3.064000   -0.027000
  C      2.775000   -5.012000   -1.074000
  N      4.376000   -6.391000    0.017000
  C      1.959000   -2.869000   -0.009000
  C      2.621000   -1.622000    0.009000
  C      5.543000    4.339000   -1.130000
  C      4.070000   -1.479000   -0.094000
  C      4.104000    2.751000   -0.021000
  C      5.027000    2.729000    1.036000
  C      6.166000    3.509000    0.978000
  C      7.619000    5.153000   -0.115000
  C      4.321000   -0.148000   -0.092000
  C      3.025000    0.514000    0.015000
  C      4.387000    3.582000   -1.115000
  C      2.866000    1.916000    0.013000
  N      6.413000    4.296000   -0.095000
  H     -2.644000    7.499000   -0.109000
  H      2.274000    4.766000    0.081000
  H     -4.693000    3.053000    0.286000
  H     -6.035000    5.148000    0.330000
  H     -5.574000    7.778000   -0.912000
  H     -6.080000    7.427000    0.768000
  H     -4.638000    8.435000    0.463000
  H     -0.332000    5.282000    0.069000
  H     -1.164000    5.501000   -0.174000
  H      0.182000    1.072000    0.005000
  H     -0.183000   -1.080000   -0.021000
  H     -5.864000   -4.962000    1.895000
  H     -4.794000    2.272000    0.139000
  H     -4.800000   -2.160000   -1.994000
  H     -6.841000   -3.582000   -1.893000
  H     -8.428000   -4.536000    0.546000
  H     -7.956000   -5.337000   -0.981000
  H     -7.456000   -6.037000    0.584000
  H     -5.287000   -0.344000    0.100000
  H     -3.780000   -3.601000    1.947000
  H      3.587000   -6.868000   -1.843000
  H     -2.276000   -4.774000   -0.050000
  H      3.714000   -3.724000    1.926000
  H      5.092000   -5.795000    1.871000
  H      6.205000   -7.329000   -0.439000
  H      5.393000   -7.917000    1.042000
  H      4.759000   -8.373000   -0.564000
  H      0.329000   -5.290000   -0.008000
  H      2.146000   -4.842000   -1.940000
  H      5.808000    4.986000   -1.956000
  H      4.788000   -2.281000   -0.185000
  H      4.860000    2.114000    1.912000
  H      6.901000    3.531000    1.772000
  H      7.383000    6.109000    0.356000
  H      8.414000    4.652000    0.435000
  H      7.921000    5.310000   -1.150000
  H      5.283000    0.336000   -0.179000
  H      3.720000    3.632000   -1.967000

----------------------------
CARTESIAN COORDINATES (A.U.)
----------------------------
  NO LB      ZA    FRAG     MASS         X           Y           Z
   0 C     6.0000    0    12.011   -5.744767   12.269992   -0.062361
   1 C     6.0000    0    12.011    2.785456    7.636383    0.107714
   2 C     6.0000    0    12.011   -5.295013    7.734649    0.092597
   3 C     6.0000    0    12.011   -7.927401    7.579692    0.376056
   4 C     6.0000    0    12.011   -9.369262    9.754766    0.425188
   5 C     6.0000    0    12.011   -9.881378   14.344911    0.202201
   6 C     6.0000    0    12.011    0.249444    8.139050    0.115273
   7 C     6.0000    0    12.011   -1.075254    5.775003    0.088817
   8 C     6.0000    0    12.011    3.116158    4.947303    0.043464
   9 C     6.0000    0    12.011   -4.223538   10.149719   -0.132281
  10 N     7.0000    0    14.007   -8.275111   12.056453    0.215429
  11 N     7.0000    0    14.007    0.733214    3.906064    0.047243
  12 N     7.0000    0    14.007   -3.798350    0.746442   -0.141729
  13 N     7.0000    0    14.007   -0.733214   -3.919292   -0.051023
  14 N     7.0000    0    14.007    3.798350   -0.757780    0.122832
  15 C     6.0000    0    12.011   -3.703863    5.406506    0.045353
  16 C     6.0000    0    12.011   -4.956752    3.051908   -0.034015
  17 C     6.0000    0    12.011  -10.531444   -8.180624    2.014448
  18 C     6.0000    0    12.011   -7.696855    2.779787    0.105825
  19 C     6.0000    0    12.011   -7.759216   -5.208085   -0.049133
  20 C     6.0000    0    12.011   -9.439182   -5.209975   -2.099486
  21 C     6.0000    0    12.011  -11.587801   -6.693410   -2.033345
  22 C     6.0000    0    12.011  -14.458295   -9.662170    0.075589
  23 C     6.0000    0    12.011   -8.171176    0.266451    0.069920
  24 C     6.0000    0    12.011   -5.716422   -0.982658   -0.090707
  25 C     6.0000    0    12.011   -8.356369   -6.738763    2.031456
  26 N     7.0000    0    14.007  -12.107475   -8.150389    0.001890
  27 C     6.0000    0    12.011   -5.417845   -3.632054   -0.075589
  28 C     6.0000    0    12.011   -3.118048   -4.958641   -0.051023
  29 C     6.0000    0    12.011    6.742543  -11.606698   -1.965315
  30 C     6.0000    0    12.011   -2.789236   -7.651501   -0.064251
  31 C     6.0000    0    12.011    5.296902   -7.745987   -0.015118
  32 C     6.0000    0    12.011    6.910728   -8.284559    2.020117
  33 C     6.0000    0    12.011    8.365818  -10.450186    2.001220
  34 C     6.0000    0    12.011    9.911614  -14.339242    0.026456
  35 C     6.0000    0    12.011   -0.253223   -8.154168   -0.041574
  36 C     6.0000    0    12.011    1.073364   -5.790121   -0.051023
  37 C     6.0000    0    12.011    5.243990   -9.471307   -2.029566
  38 N     7.0000    0    14.007    8.269442  -12.077240    0.032125
  39 C     6.0000    0    12.011    3.701973   -5.421624   -0.017008
  40 C     6.0000    0    12.011    4.952972   -3.065136    0.017008
  41 C     6.0000    0    12.011   10.474752    8.199522   -2.135391
  42 C     6.0000    0    12.011    7.691185   -2.794905   -0.177634
  43 C     6.0000    0    12.011    7.755436    5.198637   -0.039684
  44 C     6.0000    0    12.011    9.499653    5.157063    1.957756
  45 C     6.0000    0    12.011   11.652051    6.631049    1.848152
  46 C     6.0000    0    12.011   14.397823    9.737759   -0.217319
  47 C     6.0000    0    12.011    8.165507   -0.279679   -0.173855
  48 C     6.0000    0    12.011    5.716422    0.971319    0.028346
  49 C     6.0000    0    12.011    8.290229    6.768999   -2.107045
  50 C     6.0000    0    12.011    5.415955    3.620715    0.024566
  51 N     7.0000    0    14.007   12.118814    8.118263   -0.179524
  52 H     1.0000    0     1.008   -4.996436   14.171056   -0.205980
  53 H     1.0000    0     1.008    4.297237    9.006435    0.153068
  54 H     1.0000    0     1.008   -8.868485    5.769334    0.540462
  55 H     1.0000    0     1.008  -11.404497    9.728310    0.623610
  56 H     1.0000    0     1.008  -10.533333   14.698290   -1.723430
  57 H     1.0000    0     1.008  -11.489535   14.034996    1.451310
  58 H     1.0000    0     1.008   -8.764550   15.939840    0.874943
  59 H     1.0000    0     1.008   -0.627389    9.981533    0.130391
  60 H     1.0000    0     1.008   -2.199641   10.395383   -0.328812
  61 H     1.0000    0     1.008    0.343930    2.025786    0.009449
  62 H     1.0000    0     1.008   -0.345820   -2.040904   -0.039684
  63 H     1.0000    0     1.008  -11.081354   -9.376821    3.581031
  64 H     1.0000    0     1.008   -9.059347    4.293458    0.262672
  65 H     1.0000    0     1.008   -9.070685   -4.081808   -3.768114
  66 H     1.0000    0     1.008  -12.927616   -6.768999   -3.577252
  67 H     1.0000    0     1.008  -15.926612   -8.571798    1.031790
  68 H     1.0000    0     1.008  -15.034661  -10.085468   -1.853821
  69 H     1.0000    0     1.008  -14.089798  -11.408277    1.103600
  70 H     1.0000    0     1.008   -9.990982   -0.650066    0.188973
  71 H     1.0000    0     1.008   -7.143165   -6.804904    3.679297
  72 H     1.0000    0     1.008    6.778448  -12.978639   -3.482765
  73 H     1.0000    0     1.008   -4.301017   -9.021553   -0.094486
  74 H     1.0000    0     1.008    7.018443   -7.037340    3.639613
  75 H     1.0000    0     1.008    9.622485  -10.950963    3.535678
  76 H     1.0000    0     1.008   11.725751  -13.849803   -0.829590
  77 H     1.0000    0     1.008   10.191293  -14.960962    1.969095
  78 H     1.0000    0     1.008    8.993207  -15.822677   -1.065806
  79 H     1.0000    0     1.008    0.621720   -9.996651   -0.015118
  80 H     1.0000    0     1.008    4.055352   -9.150054   -3.666069
  81 H     1.0000    0     1.008   10.975529    9.422175   -3.696304
  82 H     1.0000    0     1.008    9.048009   -4.310465   -0.349599
  83 H     1.0000    0     1.008    9.184069    3.994881    3.613156
  84 H     1.0000    0     1.008   13.041000    6.672623    3.348595
  85 H     1.0000    0     1.008   13.951848   11.544337    0.672743
  86 H     1.0000    0     1.008   15.900156    8.791006    0.822031
  87 H     1.0000    0     1.008   14.968521   10.034446   -2.173185
  88 H     1.0000    0     1.008    9.983423    0.634948   -0.338261
  89 H     1.0000    0     1.008    7.029781    6.863485   -3.717091

--------------------------------
INTERNAL COORDINATES (ANGSTROEM)
--------------------------------
 C      0   0   0     0.000000000000     0.00000000     0.00000000
 C      1   0   0     5.137762158761     0.00000000     0.00000000
 C      1   2   0     2.413165555862    55.81312871     0.00000000
 C      3   1   2     1.403450391001    87.92826059   173.89528798
 C      4   3   1     1.381175586231   120.10829777     0.13536617
 C      5   4   3     2.446917652885   152.56328581     1.63421309
 C      2   1   3     1.368114030335    17.33822842   357.89204602
 C      7   2   1     1.434084376876   108.05010202   175.44959094
 C      2   1   3     1.434123425651   125.47477965     4.05662910
 C      1   2   3     1.381404357891    25.95302439   352.74922448
 N      1   2   3     1.351776238880   145.94378994    11.04469657
 N      9   2   1     1.376127174356   106.58526707   357.30678918
 N     12   9   2     2.925062050624   168.53581413   171.12065651
 N     13  12   9     2.954513327098    91.55032014    11.12112580
 N     14  13  12     2.925371258490    88.43092389   359.84326247
 C      8   7   2     1.404790019896   127.24786865   181.11170171
 C     13  12   9     1.366535034311    81.72106996   188.00453233
 C     14  13  12     5.758810554272    80.56209567   166.76250791
 C     17  13  12     1.459010623676   111.08861209   183.82872609
 C     18  14  13     2.412235892279    27.27532823    36.33507194
 C     20  18  14     1.402692767501    87.95206320   148.94598259
 C     21  20  18     1.382106725257   120.14573887   359.70382047
 C     18  14  13     2.446510985056   144.15733107    82.80075377
 C     19  17  13     1.353610726908   106.29293361   359.75308708
 C     13  12   9     1.366813447402   172.21332906    33.46711076
 C     18  14  13     1.380960173213    15.08449437   309.23336894
 N     22  21  20     1.352773077792   120.73759875     0.27865223
 C     25  13  17     1.410897586645   125.60330303   182.37774668
 C     14  13  12     1.376642291955    80.24689249   177.85461986
 C     14  13  12     5.764089607215   164.51507311   312.20821879
 C     29  14  13     1.435600919476   106.58649366   178.76395472
 C     30  14  13     2.413316804732    27.10625047    82.12560436
 C     32  30  14     1.403734305344    87.90059683   149.76154742
 C     33  32  30     1.380694028378   120.14881443   359.74174632
 C     34  33  32     2.448777858443   152.49203239     2.45173620
 C     31  29  14     1.368160809262   108.16950133     0.70383075
 C     14  13  12     1.376239804685   169.26375223   353.09862627
 C     30  14  13     1.380907310430    14.68948582   353.70041132
 N     34  33  32     1.352658863128   120.85575621     0.19603406
 C     37  14  29     1.404717053360   126.01551127   180.90772073
 C     15  14  13     1.366491126938    81.61824056   183.09049352
 C      2   1   3     4.249062720177   143.41714332   152.17342137
 C     41  15  14     1.459677704153   111.05201287   175.08990246
 C     42   2   1     2.412953791518    41.78584867   181.87203196
 C     44  42   2     1.403446472082    87.95153797   233.97558675
 C     45  44  42     1.381696421071   120.11137308     0.19721020
 C     42   2   1     2.450019795838   135.97209175    92.18688106
 C     43  41  15     1.354461516618   106.26758155     0.30894352
 C     15  14  13     1.367461151185   171.87382904   332.35056460
 C     42   2   1     1.381886391857    32.59078432   230.72731115
 C      9   2   1     1.404988612053   126.98745415   178.31112671
 N     42   2   1     1.352765315936   113.57249190   119.92347026
 H      1   2   3     1.083802565046    97.07672659   182.25535578
 H      2   1   3     1.079907866440   109.32039388   182.67000385
 H      4   3   1     1.083206813125   121.10317242   179.50710547
 H      5   4   3     1.082196839766   122.73953474   179.45891037
 H      6   5   4     1.091950090435   104.47711380   100.04437462
 H      6   5   4     1.089962384672    84.71345858   209.55376714
 H      6   5   4     1.090116048868   133.84964732   322.32179152
 H      7   2   1     1.079807853278   126.66122480   355.68800472
 H     60   7   2     0.893998881431   128.24913126   159.49964147
 H     12   9   2     1.016297692608   125.29023241   180.00180175
 H     14  13  12     1.014936943854    44.97226959   359.42596618
 H     18  14  13     1.082871645210   128.03556573   234.20482432
 H     55   4   3     0.801106110325   154.88247352   327.12439194
 H     21  20  18     1.083569563987   121.05669627   180.67006309
 H     22  21  20     1.082483256222   122.73097286   180.59748951
 H     23  18  14     1.092105306278   103.92715769   234.93429879
 H     23  18  14     1.088871893291   134.19244188    12.25587044
 H     23  18  14     1.089833473518    84.85857450   125.45241208
 H     24  19  17     1.080075460327   127.28078426   178.44613241
 H     26  18  14     1.083408048706   118.76995697   244.94906660
 H     30  14  13     1.082703098730   127.99711412   279.66882698
 H     31  29  14     1.079759695488   125.22293469   180.92530585
 H     33  32  30     1.083188810873   121.01964473   180.74284758
 H     34  33  32     1.082494341787   122.70821597   180.59516895
 H     35  34  33     1.092652735319   105.73575241    97.19771933
 H     35  34  33     1.089462711615    84.05943581   206.43036958
 H     35  34  33     1.089268102902   133.08365142   318.50306270
 H     36  31  29     1.079439669458   126.61599965   178.98859863
 H     38  30  73     1.083742127999   118.77264435   359.90091293
 H     42   2   1     1.082178358682   119.31790784   336.55500071
 H     43  41  15     1.080281907652   126.36969097   182.06329380
 H     45  44  42     1.083277434455   121.10105945   179.58025624
 H     46  45  44     1.082194529648   122.72144639   179.46906377
 H     47  42   2     1.091546151109   106.65128841   315.16475048
 H     47  42   2     1.088818625851   132.46019523    94.52397119
 H     47  42   2     1.089531091801    83.63838232   206.04504406
 H     48  43  41     1.080402239909   127.23657387   181.62955349
 H     50  42   2     1.083186502870   118.77001737    94.71359229

---------------------------
INTERNAL COORDINATES (A.U.)
---------------------------
 C      0   0   0     0.000000000000     0.00000000     0.00000000
 C      1   0   0     9.708963421283     0.00000000     0.00000000
 C      1   2   0     4.560222016392    55.81312871     0.00000000
 C      3   1   2     2.652136881536    87.92826059   173.89528798
 C      4   3   1     2.610043600834   120.10829777     0.13536617
 C      5   4   3     4.624004236210   152.56328581     1.63421309
 C      2   1   3     2.585360837309    17.33822842   357.89204602
 C      7   2   1     2.710026725231   108.05010202   175.44959094
 C      2   1   3     2.710100516721   125.47477965     4.05662910
 C      1   2   3     2.610475916619    25.95302439   352.74922448
 N      1   2   3     2.554486885825   145.94378994    11.04469657
 N      9   2   1     2.600503484979   106.58526707   357.30678918
 N     12   9   2     5.527566200405   168.53581413   171.12065651
 N     13  12   9     5.583221047236    91.55032014    11.12112580
 N     14  13  12     5.528150518591    88.43092389   359.84326247
 C      8   7   2     2.654668413270   127.24786865   181.11170171
 C     13  12   9     2.582376967257    81.72106996   188.00453233
 C     14  13  12    10.882574804710    80.56209567   166.76250791
 C     17  13  12     2.757130505230   111.08861209   183.82872609
 C     18  14  13     4.558465206823    27.27532823    36.33507194
 C     20  18  14     2.650705180609    87.95206320   148.94598259
 C     21  20  18     2.611803198586   120.14573887   359.70382047
 C     18  14  13     4.623235745386   144.15733107    82.80075377
 C     19  17  13     2.557953565794   106.29293361   359.75308708
 C     13  12   9     2.582903091751   172.21332906    33.46711076
 C     18  14  13     2.609636529225    15.08449437   309.23336894
 N     22  21  20     2.556370638369   120.73759875     0.27865223
 C     25  13  17     2.666210041769   125.60330303   182.37774668
 C     14  13  12     2.601476916169    80.24689249   177.85461986
 C     14  13  12    10.892550769017   164.51507311   312.20821879
 C     29  14  13     2.712892575415   106.58649366   178.76395472
 C     30  14  13     4.560507835333    27.10625047    82.12560436
 C     32  30  14     2.652673401891    87.90059683   149.76154742
 C     33  32  30     2.609133588376   120.14881443   359.74174632
 C     34  33  32     4.627519515267   152.49203239     2.45173620
 C     31  29  14     2.585449236669   108.16950133     0.70383075
 C     14  13  12     2.600716325456   169.26375223   353.09862627
 C     30  14  13     2.609536633043    14.68948582   353.70041132
 N     34  33  32     2.556154803934   120.85575621     0.19603406
 C     37  14  29     2.654530526499   126.01551127   180.90772073
 C     15  14  13     2.582293994346    81.61824056   183.09049352
 C      2   1   3     8.029564866989   143.41714332   152.17342137
 C     41  15  14     2.758391104639   111.05201287   175.08990246
 C     42   2   1     4.559821839776    41.78584867   181.87203196
 C     44  42   2     2.652129475853    87.95153797   233.97558675
 C     45  44  42     2.611027836043   120.11137308     0.19721020
 C     42   2   1     4.629866436820   135.97209175    92.18688106
 C     43  41  15     2.559561325344   106.26758155     0.30894352
 C     15  14  13     2.584127074516   171.87382904   332.35056460
 C     42   2   1     2.611386828803    32.59078432   230.72731115
 C      9   2   1     2.655043698059   126.98745415   178.31112671
 N     42   2   1     2.556355970587   113.57249190   119.92347026
 H      1   2   3     2.048090031178    97.07672659   182.25535578
 H      2   1   3     2.040730117440   109.32039388   182.67000385
 H      4   3   1     2.046964223203   121.10317242   179.50710547
 H      5   4   3     2.045055650153   122.73953474   179.45891037
 H      6   5   4     2.063486622832   104.47711380   100.04437462
 H      6   5   4     2.059730403306    84.71345858   209.55376714
 H      6   5   4     2.060020786553   133.84964732   322.32179152
 H      7   2   1     2.040541119952   126.66122480   355.68800472
 H     60   7   2     1.689413049937   128.24913126   159.49964147
 H     12   9   2     1.920524309565   125.29023241   180.00180175
 H     14  13  12     1.917952867083    44.97226959   359.42596618
 H     18  14  13     2.046330847636   128.03556573   234.20482432
 H     55   4   3     1.513871152725   154.88247352   327.12439194
 H     21  20  18     2.047649722989   121.05669627   180.67006309
 H     22  21  20     2.045596898814   122.73097286   180.59748951
 H     23  18  14     2.063779938267   103.92715769   234.93429879
 H     23  18  14     2.057669673245   134.19244188    12.25587044
 H     23  18  14     2.059486796529    84.85857450   125.45241208
 H     24  19  17     2.041046823986   127.28078426   178.44613241
 H     26  18  14     2.047344503340   118.76995697   244.94906660
 H     30  14  13     2.046012340948   127.99711412   279.66882698
 H     31  29  14     2.040450114918   125.22293469   180.92530585
 H     33  32  30     2.046930203877   121.01964473   180.74284758
 H     34  33  32     2.045617847496   122.70821597   180.59516895
 H     35  34  33     2.064814429233   105.73575241    97.19771933
 H     35  34  33     2.058786158072    84.05943581   206.43036958
 H     35  34  33     2.058418400901   133.08365142   318.50306270
 H     36  31  29     2.039845353366   126.61599965   178.98859863
 H     38  30  73     2.047975821711   118.77264435   359.90091293
 H     42   2   1     2.045020725966   119.31790784   336.55500071
 H     43  41  15     2.041436952892   126.36969097   182.06329380
 H     45  44  42     2.047097678177   121.10105945   179.58025624
 H     46  45  44     2.045051284662   122.72144639   179.46906377
 H     47  42   2     2.062723288131   106.65128841   315.16475048
 H     47  42   2     2.057569012371   132.46019523    94.52397119
 H     47  42   2     2.058915377895    83.63838232   206.04504406
 H     48  43  41     2.041664347903   127.23657387   181.62955349
 H     50  42   2     2.046925842384   118.77001737    94.71359229

---------------------
BASIS SET INFORMATION
---------------------
There are 3 groups of distinct atoms

 Group   1 Type C   : 17s4p1d contracted to 3s2p1d pattern {881/31/1}
 Group   2 Type N   : 17s4p1d contracted to 3s2p1d pattern {881/31/1}
 Group   3 Type H   : 4s1p contracted to 2s1p pattern {31/1}

Atom   0C    basis set group =>   1
Atom   1N    basis set group =>   2
Atom   2C    basis set group =>   1
Atom   3N    basis set group =>   2
Atom   4C    basis set group =>   1
Atom   5N    basis set group =>   2
Atom   6C    basis set group =>   1
Atom   7N    basis set group =>   2
Atom   8C    basis set group =>   1
Atom   9N    basis set group =>   2
Atom  10C    basis set group =>   1
Atom  11N    basis set group =>   2
Atom  12C    basis set group =>   1
Atom  13N    basis set group =>   2
Atom  14C    basis set group =>   1
Atom  15N    basis set group =>   2
Atom  16C    basis set group =>   1
Atom  17C    basis set group =>   1
Atom  18C    basis set group =>   1
Atom  19C    basis set group =>   1
Atom  20C    basis set group =>   1
Atom  21C    basis set group =>   1
Atom  22C    basis set group =>   1
Atom  23C    basis set group =>   1
Atom  24C    basis set group =>   1
Atom  25C    basis set group =>   1
Atom  26C    basis set group =>   1
Atom  27C    basis set group =>   1
Atom  28C    basis set group =>   1
Atom  29C    basis set group =>   1
Atom  30C    basis set group =>   1
Atom  31C    basis set group =>   1
Atom  32C    basis set group =>   1
Atom  33C    basis set group =>   1
Atom  34C    basis set group =>   1
Atom  35C    basis set group =>   1
Atom  36C    basis set group =>   1
Atom  37C    basis set group =>   1
Atom  38C    basis set group =>   1
Atom  39C    basis set group =>   1
Atom  40C    basis set group =>   1
Atom  41C    basis set group =>   1
Atom  42C    basis set group =>   1
Atom  43C    basis set group =>   1
Atom  44C    basis set group =>   1
Atom  45C    basis set group =>   1
Atom  46C    basis set group =>   1
Atom  47C    basis set group =>   1
Atom  48C    basis set group =>   1
Atom  49C    basis set group =>   1
Atom  50C    basis set group =>   1
Atom  51C    basis set group =>   1
Atom  52H    basis set group =>   3
Atom  53H    basis set group =>   3
Atom  54H    basis set group =>   3
Atom  55H    basis set group =>   3
Atom  56H    basis set group =>   3
Atom  57H    basis set group =>   3
Atom  58H    basis set group =>   3
Atom  59H    basis set group =>   3
Atom  60H    basis set group =>   3
Atom  61H    basis set group =>   3
Atom  62H    basis set group =>   3
Atom  63H    basis set group =>   3
Atom  64H    basis set group =>   3
Atom  65H    basis set group =>   3
Atom  66H    basis set group =>   3
Atom  67H    basis set group =>   3
Atom  68H    basis set group =>   3
Atom  69H    basis set group =>   3
Atom  70H    basis set group =>   3
Atom  71H    basis set group =>   3
Atom  72H    basis set group =>   3
Atom  73H    basis set group =>   3
Atom  74H    basis set group =>   3
Atom  75H    basis set group =>   3
Atom  76H    basis set group =>   3
Atom  77H    basis set group =>   3
Atom  78H    basis set group =>   3
Atom  79H    basis set group =>   3
Atom  80H    basis set group =>   3
Atom  81H    basis set group =>   3
Atom  82H    basis set group =>   3
Atom  83H    basis set group =>   3
Atom  84H    basis set group =>   3
Atom  85H    basis set group =>   3
Atom  86H    basis set group =>   3
Atom  87H    basis set group =>   3
Atom  88H    basis set group =>   3
Atom  89H    basis set group =>   3


           ************************************************************
           *        Program running with 16 parallel MPI-processes    *
           *              working on a common directory               *
           ************************************************************
------------------------------------------------------------------------------
                           ORCA GTO INTEGRAL CALCULATION
------------------------------------------------------------------------------
------------------------------------------------------------------------------
                   ___                                                        
                  /   \      - P O W E R E D   B Y -                         
                 /     \                                                     
                 |  |  |   _    _      __       _____    __    __             
                 |  |  |  | |  | |    /  \     |  _  \  |  |  /  |          
                  \  \/   | |  | |   /    \    | | | |  |  | /  /          
                 / \  \   | |__| |  /  /\  \   | |_| |  |  |/  /          
                |  |  |   |  __  | /  /__\  \  |    /   |      \           
                |  |  |   | |  | | |   __   |  |    \   |  |\   \          
                \     /   | |  | | |  |  |  |  | |\  \  |  | \   \       
                 \___/    |_|  |_| |__|  |__|  |_| \__\ |__|  \__/        
                                                                              
                      - O R C A' S   B I G   F R I E N D -                    
                                      &                                       
                       - I N T E G R A L  F E E D E R -                       
                                                                              
 v1 FN, 2020, v2 2021                                                         
------------------------------------------------------------------------------


Reading SHARK input file /scratch/allen/tmpyp4_amber_gaff2/conf1/conf1/Conf8.orca.SHARKINP.tmp ... ok
----------------------
SHARK INTEGRAL PACKAGE
----------------------

Number of atoms                             ...     90
Number of basis functions                   ...   1230
Number of shells                            ...    738
Maximum angular momentum                    ...      2
Integral batch strategy                     ... SHARK/LIBINT Hybrid
RI-J (if used) integral strategy            ... SPLIT-RIJ (Revised 2003 algorithm where possible)
Printlevel                                  ...      1
Contraction scheme used                     ... PARTIAL GENERAL contraction
Coulomb Range Separation                    ... NOT USED
Exchange Range Separation                   ... NOT USED
Finite Nucleus Model                        ... NOT USED
Auxiliary Coulomb fitting basis             ... NOT available
Auxiliary J/K fitting basis                 ... NOT available
Auxiliary Correlation fitting basis         ... NOT available
Auxiliary 'external' fitting basis          ... NOT available
Integral threshold                          ...     2.500000e-11
Primitive cut-off                           ...     2.500000e-12
Primitive pair pre-selection threshold      ...     2.500000e-12

Calculating pre-screening integrals         ... done (  0.1 sec) Dimension = 738
Calculating pre-screening integrals (ORCA)  ... done (  0.3 sec) Dimension = 426
Organizing shell pair data                  ... done (  0.8 sec)
Shell pair information
Total number of shell pairs                 ...    272691
Shell pairs after pre-screening             ...     71738
Total number of primitive shell pairs       ...    422091
Primitive shell pairs kept                  ...     92637
          la=0 lb=0:  29446 shell pairs
          la=1 lb=0:  26039 shell pairs
          la=1 lb=1:   4700 shell pairs
          la=2 lb=0:   7894 shell pairs
          la=2 lb=1:   3130 shell pairs
          la=2 lb=2:    529 shell pairs

Calculating one electron integrals          ... done (  0.3 sec)
Calculating Nuclear repulsion               ... done (  0.0 sec) ENN=   6235.671147805573 Eh

SHARK setup successfully completed in   2.5 seconds

Maximum memory used throughout the entire GTOINT-calculation: 99.1 MB


           ************************************************************
           *        Program running with 16 parallel MPI-processes    *
           *              working on a common directory               *
           ************************************************************
-------------------------------------------------------------------------------
                                 ORCA SCF
-------------------------------------------------------------------------------

------------
SCF SETTINGS
------------
Hamiltonian:
 Ab initio Hamiltonian  Method          .... Hartree-Fock(GTOs)


General Settings:
 Integral files         IntName         .... /scratch/allen/tmpyp4_amber_gaff2/conf1/conf1/Conf8.orca
 Hartree-Fock type      HFTyp           .... RHF
 Total Charge           Charge          ....    0
 Multiplicity           Mult            ....    1
 Number of Electrons    NEL             ....  358
 Basis Dimension        Dim             ....  918
 Nuclear Repulsion      ENuc            ....   6235.6711478056 Eh

Convergence Acceleration:
 DIIS                   CNVDIIS         .... on
   Start iteration      DIISMaxIt       ....    12
   Startup error        DIISStart       ....  0.200000
   # of expansion vecs  DIISMaxEq       ....     5
   Bias factor          DIISBfac        ....   1.050
   Max. coefficient     DIISMaxC        ....  10.000
 Trust-Rad. Augm. Hess. CNVTRAH         .... auto
   Auto Start mean grad. ratio tolernc. ....  1.125000
   Auto Start start iteration           ....    20
   Auto Start num. interpolation iter.  ....    10
   Max. Number of Micro iterations      ....    16
   Max. Number of Macro iterations      .... Maxiter - #DIIS iter
   Number of Davidson start vectors     ....     2
   Converg. threshold I  (grad. norm)   ....   1.000e-05
   Converg. threshold II (energy diff.) ....   1.000e-08
   Grad. Scal. Fac. for Micro threshold ....   0.100
   Minimum threshold for Micro iter.    ....   0.010
   NR start threshold (gradient norm)   ....   0.001
   Initial trust radius                 ....   0.400
   Minimum AH scaling param. (alpha)    ....   1.000
   Maximum AH scaling param. (alpha)    .... 1000.000
   Orbital update algorithm             .... Taylor
   White noise on init. David. guess    .... on
   Maximum white noise                  ....   0.010
   Quad. conv. algorithm                .... NR
 SOSCF                  CNVSOSCF        .... on
   Start iteration      SOSCFMaxIt      ....   150
   Startup grad/error   SOSCFStart      ....  0.003300
 Level Shifting         CNVShift        .... on
   Level shift para.    LevelShift      ....    0.2500
   Turn off err/grad.   ShiftErr        ....    0.0010
 Zerner damping         CNVZerner       .... off
 Static damping         CNVDamp         .... on
   Fraction old density DampFac         ....    0.7000
   Max. Damping (<1)    DampMax         ....    0.9800
   Min. Damping (>=0)   DampMin         ....    0.0000
   Turn off err/grad.   DampErr         ....    0.1000
 Fernandez-Rico         CNVRico         .... off

SCF Procedure:
 Maximum # iterations   MaxIter         ....   125
 SCF integral mode      SCFMode         .... Direct
   Integral package                     .... SHARK and LIBINT hybrid scheme
 Reset frequency        DirectResetFreq ....    20
 Integral Threshold     Thresh          ....  2.500e-11 Eh
 Primitive CutOff       TCut            ....  2.500e-12 Eh

Convergence Tolerance:
 Convergence Check Mode ConvCheckMode   .... Total+1el-Energy
 Convergence forced     ConvForced      .... 1
 Energy Change          TolE            ....  1.000e-08 Eh
 1-El. energy change                    ....  1.000e-05 Eh
 Orbital Gradient       TolG            ....  1.000e-05
 Orbital Rotation angle TolX            ....  1.000e-05
 DIIS Error             TolErr          ....  5.000e-07


Diagonalization of the overlap matrix:
Smallest eigenvalue                        ... 1.683e-04
Time for diagonalization                   ...    0.396 sec
Threshold for overlap eigenvalues          ... 1.000e-08
Number of eigenvalues below threshold      ... 0
Time for construction of square roots      ...    0.243 sec
Total time needed                          ...    0.645 sec

Time for model grid setup =    1.055 sec

------------------------------
INITIAL GUESS: MODEL POTENTIAL
------------------------------
Loading Hartree-Fock densities                     ... done
Calculating cut-offs                               ... done
Initializing the effective Hamiltonian             ... done
Setting up the integral package (SHARK)            ... done
Starting the Coulomb interaction                   ... done (   1.2 sec)
Reading the grid                                   ... done
Mapping shells                                     ... done
Starting the XC term evaluation                    ... done (   0.2 sec)
Transforming the Hamiltonian                       ... done (   0.2 sec)
Diagonalizing the Hamiltonian                      ... done (   0.3 sec)
Back transforming the eigenvectors                 ... done (   0.1 sec)
Now organizing SCF variables                       ... done
                      ------------------
                      INITIAL GUESS DONE (   3.1 sec)
                      ------------------
--------------
SCF ITERATIONS
--------------
ITER       Energy         Delta-E        Max-DP      RMS-DP      [F,P]     Damp
               ***  Starting incremental Fock matrix formation  ***
  0  -2121.5615445763   0.000000000000 0.07485425  0.00130551  0.2310915 0.7000
  1  -2122.2002518349  -0.638707258551 0.06092860  0.00106118  0.1434470 0.7000
                               ***Turning on DIIS***
  2  -2122.5993772973  -0.399125462416 0.13512552  0.00240382  0.0803269 0.0000
  3  -2118.0448706263   4.554506670971 0.08539208  0.00072749  0.0434005 0.0000
  4  -2123.3051512376  -5.260280611265 0.02701589  0.00023920  0.0093751 0.0000
  5  -2123.4266893264  -0.121538088793 0.01203580  0.00013611  0.0048093 0.0000
  6  -2123.4104962984   0.016193027952 0.00691290  0.00008599  0.0022689 0.0000
  7  -2123.5020408803  -0.091544581894 0.00413181  0.00006700  0.0016323 0.0000
  8  -2123.5076332368  -0.005592356467 0.00333141  0.00006384  0.0015303 0.0000
  9  -2123.4818144715   0.025818765263 0.00268299  0.00004573  0.0012322 0.0000
 10  -2123.4890377838  -0.007223312276 0.00540121  0.00009599  0.0009674 0.0000
                      *** Initiating the SOSCF procedure ***
                           *** Shutting down DIIS ***
                      *** Re-Reading the Fockian *** 
                      *** Removing any level shift *** 
ITER      Energy       Delta-E        Grad      Rot      Max-DP    RMS-DP
 11  -2123.38376225   0.1052755385  0.000185  0.000185  0.000250  0.000005
               *** Restarting incremental Fock matrix formation ***
 12  -2123.44945289  -0.0656906404  0.000946  0.006327  0.001503  0.000035
 13  -2123.44956522  -0.0001123370  0.001153  0.031364  0.006836  0.000137
 14  -2123.44975063  -0.0001854089  0.000397  0.001959  0.000622  0.000013
 15  -2123.44976593  -0.0000152947  0.000193  0.002335  0.000495  0.000013
 16  -2123.44977264  -0.0000067158  0.000131  0.002040  0.000497  0.000009
 17  -2123.44977538  -0.0000027361  0.000131  0.002109  0.000300  0.000008
 18  -2123.44977668  -0.0000012989  0.000060  0.001248  0.000216  0.000004
 19  -2123.44977749  -0.0000008122  0.000047  0.001876  0.000274  0.000006
 20  -2123.44977805  -0.0000005568  0.000028  0.001060  0.000150  0.000003
 21  -2123.44977830  -0.0000002513  0.000028  0.001267  0.000181  0.000004
 22  -2123.44977854  -0.0000002464  0.000026  0.001067  0.000164  0.000003
 23  -2123.44977869  -0.0000001472  0.000016  0.000381  0.000066  0.000001
 24  -2123.44977874  -0.0000000521  0.000009  0.000250  0.000054  0.000001
 25  -2123.44977877  -0.0000000283  0.000008  0.000128  0.000042  0.000001
 26  -2123.44977878  -0.0000000134  0.000006  0.000077  0.000028  0.000000
 27  -2123.44977878   0.0000000012  0.000003  0.000061  0.000020  0.000000
                  ***Gradient check signals convergence***
              ***Rediagonalizing the Fockian in SOSCF/NRSCF***

               *****************************************************
               *                     SUCCESS                       *
               *           SCF CONVERGED AFTER  28 CYCLES          *
               *****************************************************


----------------
TOTAL SCF ENERGY
----------------

Total Energy       :        -2123.44977878 Eh          -57782.00606 eV

Components:
Nuclear Repulsion  :         6235.67114781 Eh          169681.23836 eV
Electronic Energy  :        -8359.12092659 Eh         -227463.24442 eV
One Electron Energy:       -15311.75065752 Eh         -416653.91767 eV
Two Electron Energy:         6952.62973093 Eh          189190.67325 eV

Virial components:
Potential Energy   :        -4246.08478576 Eh         -115541.84105 eV
Kinetic Energy     :         2122.63500697 Eh           57759.83499 eV
Virial Ratio       :            2.00038385


---------------
SCF CONVERGENCE
---------------

  Last Energy change         ...    8.6220e-10  Tolerance :   1.0000e-08
  Last MAX-Density change    ...    9.6804e-06  Tolerance :   1.0000e-07
  Last RMS-Density change    ...    1.6769e-07  Tolerance :   5.0000e-09
  Last Orbital Gradient      ...    1.8193e-06  Tolerance :   1.0000e-05
  Last Orbital Rotation      ...    3.2959e-05  Tolerance :   1.0000e-05

             **** THE GBW FILE WAS UPDATED (/scratch/allen/tmpyp4_amber_gaff2/conf1/conf1/Conf8.orca.gbw) ****
             **** DENSITY /scratch/allen/tmpyp4_amber_gaff2/conf1/conf1/Conf8.orca.scfp WAS UPDATED ****
             **** ENERGY FILE WAS UPDATED (/scratch/allen/tmpyp4_amber_gaff2/conf1/conf1/Conf8.orca.en.tmp) ****
             **** THE GBW FILE WAS UPDATED (/scratch/allen/tmpyp4_amber_gaff2/conf1/conf1/Conf8.orca.gbw) ****
             **** DENSITY /scratch/allen/tmpyp4_amber_gaff2/conf1/conf1/Conf8.orca.scfp WAS UPDATED ****
----------------
ORBITAL ENERGIES
----------------

  NO   OCC          E(Eh)            E(eV) 
   0   2.0000     -15.679839      -426.6701 
   1   2.0000     -15.632824      -425.3908 
   2   2.0000     -15.632814      -425.3905 
   3   2.0000     -15.588358      -424.1808 
   4   2.0000     -15.524801      -422.4513 
   5   2.0000     -15.515422      -422.1961 
   6   2.0000     -15.453970      -420.5239 
   7   2.0000     -15.439329      -420.1255 
   8   2.0000     -11.329328      -308.2867 
   9   2.0000     -11.328526      -308.2649 
  10   2.0000     -11.327952      -308.2492 
  11   2.0000     -11.298983      -307.4610 
  12   2.0000     -11.298625      -307.4512 
  13   2.0000     -11.292075      -307.2730 
  14   2.0000     -11.292071      -307.2729 
  15   2.0000     -11.287326      -307.1438 
  16   2.0000     -11.285522      -307.0947 
  17   2.0000     -11.282067      -307.0007 
  18   2.0000     -11.269691      -306.6639 
  19   2.0000     -11.263349      -306.4913 
  20   2.0000     -11.262347      -306.4640 
  21   2.0000     -11.251601      -306.1716 
  22   2.0000     -11.247769      -306.0674 
  23   2.0000     -11.237540      -305.7890 
  24   2.0000     -11.236641      -305.7646 
  25   2.0000     -11.230463      -305.5964 
  26   2.0000     -11.230297      -305.5919 
  27   2.0000     -11.230286      -305.5916 
  28   2.0000     -11.229569      -305.5721 
  29   2.0000     -11.210664      -305.0577 
  30   2.0000     -11.209228      -305.0186 
  31   2.0000     -11.194084      -304.6065 
  32   2.0000     -11.192123      -304.5532 
  33   2.0000     -11.191291      -304.5305 
  34   2.0000     -11.188766      -304.4618 
  35   2.0000     -11.188151      -304.4451 
  36   2.0000     -11.187269      -304.4211 
  37   2.0000     -11.174344      -304.0694 
  38   2.0000     -11.172576      -304.0213 
  39   2.0000     -11.171628      -303.9954 
  40   2.0000     -11.171371      -303.9885 
  41   2.0000     -11.167898      -303.8940 
  42   2.0000     -11.166779      -303.8635 
  43   2.0000     -11.162142      -303.7373 
  44   2.0000     -11.161004      -303.7064 
  45   2.0000     -11.157097      -303.6000 
  46   2.0000     -11.156168      -303.5748 
  47   2.0000     -11.150894      -303.4312 
  48   2.0000     -11.147301      -303.3335 
  49   2.0000     -11.135548      -303.0137 
  50   2.0000     -11.129438      -302.8474 
  51   2.0000     -11.117757      -302.5295 
  52   2.0000      -1.360413       -37.0187 
  53   2.0000      -1.320461       -35.9316 
  54   2.0000      -1.320233       -35.9254 
  55   2.0000      -1.280520       -34.8447 
  56   2.0000      -1.225856       -33.3572 
  57   2.0000      -1.210394       -32.9365 
  58   2.0000      -1.173685       -31.9376 
  59   2.0000      -1.150642       -31.3106 
  60   2.0000      -1.143664       -31.1207 
  61   2.0000      -1.110322       -30.2134 
  62   2.0000      -1.108800       -30.1720 
  63   2.0000      -1.082089       -29.4451 
  64   2.0000      -1.077450       -29.3189 
  65   2.0000      -1.045061       -28.4375 
  66   2.0000      -1.044476       -28.4216 
  67   2.0000      -1.041082       -28.3293 
  68   2.0000      -1.014910       -27.6171 
  69   2.0000      -1.014780       -27.6136 
  70   2.0000      -1.009106       -27.4592 
  71   2.0000      -0.993245       -27.0276 
  72   2.0000      -0.985698       -26.8222 
  73   2.0000      -0.981699       -26.7134 
  74   2.0000      -0.973826       -26.4992 
  75   2.0000      -0.962480       -26.1904 
  76   2.0000      -0.955041       -25.9880 
  77   2.0000      -0.946814       -25.7641 
  78   2.0000      -0.939800       -25.5732 
  79   2.0000      -0.916792       -24.9472 
  80   2.0000      -0.910604       -24.7788 
  81   2.0000      -0.898194       -24.4411 
  82   2.0000      -0.877155       -23.8686 
  83   2.0000      -0.871697       -23.7201 
  84   2.0000      -0.871216       -23.7070 
  85   2.0000      -0.861566       -23.4444 
  86   2.0000      -0.846191       -23.0260 
  87   2.0000      -0.837445       -22.7880 
  88   2.0000      -0.829292       -22.5662 
  89   2.0000      -0.796350       -21.6698 
  90   2.0000      -0.789299       -21.4779 
  91   2.0000      -0.774155       -21.0658 
  92   2.0000      -0.753039       -20.4912 
  93   2.0000      -0.733919       -19.9709 
  94   2.0000      -0.728316       -19.8185 
  95   2.0000      -0.726886       -19.7796 
  96   2.0000      -0.720365       -19.6021 
  97   2.0000      -0.717903       -19.5351 
  98   2.0000      -0.714303       -19.4372 
  99   2.0000      -0.699993       -19.0478 
 100   2.0000      -0.698205       -18.9991 
 101   2.0000      -0.694703       -18.9038 
 102   2.0000      -0.685373       -18.6499 
 103   2.0000      -0.684373       -18.6227 
 104   2.0000      -0.678774       -18.4704 
 105   2.0000      -0.674568       -18.3559 
 106   2.0000      -0.672886       -18.3102 
 107   2.0000      -0.661078       -17.9889 
 108   2.0000      -0.658128       -17.9086 
 109   2.0000      -0.652831       -17.7644 
 110   2.0000      -0.652036       -17.7428 
 111   2.0000      -0.646212       -17.5843 
 112   2.0000      -0.645742       -17.5715 
 113   2.0000      -0.637911       -17.3585 
 114   2.0000      -0.635604       -17.2957 
 115   2.0000      -0.628901       -17.1133 
 116   2.0000      -0.623352       -16.9623 
 117   2.0000      -0.620912       -16.8959 
 118   2.0000      -0.612824       -16.6758 
 119   2.0000      -0.612222       -16.6594 
 120   2.0000      -0.611583       -16.6420 
 121   2.0000      -0.611449       -16.6384 
 122   2.0000      -0.601721       -16.3737 
 123   2.0000      -0.589147       -16.0315 
 124   2.0000      -0.581369       -15.8198 
 125   2.0000      -0.580871       -15.8063 
 126   2.0000      -0.580187       -15.7877 
 127   2.0000      -0.571114       -15.5408 
 128   2.0000      -0.566665       -15.4197 
 129   2.0000      -0.560035       -15.2393 
 130   2.0000      -0.555478       -15.1153 
 131   2.0000      -0.547774       -14.9057 
 132   2.0000      -0.542661       -14.7666 
 133   2.0000      -0.540162       -14.6985 
 134   2.0000      -0.538367       -14.6497 
 135   2.0000      -0.536430       -14.5970 
 136   2.0000      -0.531789       -14.4707 
 137   2.0000      -0.518282       -14.1032 
 138   2.0000      -0.516423       -14.0526 
 139   2.0000      -0.514606       -14.0031 
 140   2.0000      -0.512145       -13.9362 
 141   2.0000      -0.509888       -13.8748 
 142   2.0000      -0.507238       -13.8027 
 143   2.0000      -0.505700       -13.7608 
 144   2.0000      -0.502584       -13.6760 
 145   2.0000      -0.495638       -13.4870 
 146   2.0000      -0.488229       -13.2854 
 147   2.0000      -0.481083       -13.0909 
 148   2.0000      -0.476857       -12.9759 
 149   2.0000      -0.467792       -12.7293 
 150   2.0000      -0.466235       -12.6869 
 151   2.0000      -0.456483       -12.4215 
 152   2.0000      -0.451678       -12.2908 
 153   2.0000      -0.445073       -12.1110 
 154   2.0000      -0.437997       -11.9185 
 155   2.0000      -0.427691       -11.6381 
 156   2.0000      -0.409295       -11.1375 
 157   2.0000      -0.391207       -10.6453 
 158   2.0000      -0.388815       -10.5802 
 159   2.0000      -0.387430       -10.5425 
 160   2.0000      -0.378523       -10.3001 
 161   2.0000      -0.372737       -10.1427 
 162   2.0000      -0.358927        -9.7669 
 163   2.0000      -0.356650        -9.7049 
 164   2.0000      -0.355754        -9.6806 
 165   2.0000      -0.342009        -9.3065 
 166   2.0000      -0.337548        -9.1852 
 167   2.0000      -0.324504        -8.8302 
 168   2.0000      -0.321568        -8.7503 
 169   2.0000      -0.305037        -8.3005 
 170   2.0000      -0.299389        -8.1468 
 171   2.0000      -0.285897        -7.7797 
 172   2.0000      -0.278314        -7.5733 
 173   2.0000      -0.263705        -7.1758 
 174   2.0000      -0.242114        -6.5883 
 175   2.0000      -0.189947        -5.1687 
 176   2.0000      -0.181319        -4.9339 
 177   2.0000      -0.079948        -2.1755 
 178   2.0000      -0.059738        -1.6256 
 179   0.0000       0.028460         0.7744 
 180   0.0000       0.065409         1.7799 
 181   0.0000       0.090204         2.4546 
 182   0.0000       0.106250         2.8912 
 183   0.0000       0.116747         3.1769 
 184   0.0000       0.137217         3.7339 
 185   0.0000       0.139343         3.7917 
 186   0.0000       0.140935         3.8350 
 187   0.0000       0.164306         4.4710 
 188   0.0000       0.165180         4.4948 
 189   0.0000       0.165673         4.5082 
 190   0.0000       0.174498         4.7483 
 191   0.0000       0.180365         4.9080 
 192   0.0000       0.183772         5.0007 
 193   0.0000       0.189199         5.1484 
 194   0.0000       0.204889         5.5753 
 195   0.0000       0.205597         5.5946 
 196   0.0000       0.208120         5.6632 
 197   0.0000       0.208836         5.6827 
 198   0.0000       0.216542         5.8924 
 199   0.0000       0.228225         6.2103 
 200   0.0000       0.233756         6.3608 
 201   0.0000       0.233774         6.3613 
 202   0.0000       0.238998         6.5035 
 203   0.0000       0.239758         6.5242 
 204   0.0000       0.246271         6.7014 
 205   0.0000       0.255081         6.9411 
 206   0.0000       0.256309         6.9745 
 207   0.0000       0.257813         7.0154 
 208   0.0000       0.259050         7.0491 
 209   0.0000       0.260589         7.0910 
 210   0.0000       0.263689         7.1753 
 211   0.0000       0.265697         7.2300 
 212   0.0000       0.268659         7.3106 
 213   0.0000       0.270895         7.3714 
 214   0.0000       0.273038         7.4297 
 215   0.0000       0.275793         7.5047 
 216   0.0000       0.278110         7.5678 
 217   0.0000       0.283221         7.7068 
 218   0.0000       0.286673         7.8008 
 219   0.0000       0.287513         7.8236 
 220   0.0000       0.290034         7.8922 
 221   0.0000       0.292479         7.9588 
 222   0.0000       0.294760         8.0208 
 223   0.0000       0.296758         8.0752 
 224   0.0000       0.297288         8.0896 
 225   0.0000       0.301668         8.2088 
 226   0.0000       0.305739         8.3196 
 227   0.0000       0.307883         8.3779 
 228   0.0000       0.317872         8.6497 
 229   0.0000       0.324559         8.8317 
 230   0.0000       0.328295         8.9334 
 231   0.0000       0.335240         9.1224 
 232   0.0000       0.342908         9.3310 
 233   0.0000       0.356991         9.7142 
 234   0.0000       0.371446        10.1075 
 235   0.0000       0.373678        10.1683 
 236   0.0000       0.386858        10.5269 
 237   0.0000       0.390299        10.6206 
 238   0.0000       0.397676        10.8213 
 239   0.0000       0.402638        10.9563 
 240   0.0000       0.407648        11.0927 
 241   0.0000       0.411157        11.1881 
 242   0.0000       0.414836        11.2883 
 243   0.0000       0.417348        11.3566 
 244   0.0000       0.429845        11.6967 
 245   0.0000       0.433630        11.7997 
 246   0.0000       0.440129        11.9765 
 247   0.0000       0.441820        12.0225 
 248   0.0000       0.442753        12.0479 
 249   0.0000       0.447981        12.1902 
 250   0.0000       0.453503        12.3404 
 251   0.0000       0.460657        12.5351 
 252   0.0000       0.465689        12.6720 
 253   0.0000       0.468272        12.7423 
 254   0.0000       0.472678        12.8622 
 255   0.0000       0.474206        12.9038 
 256   0.0000       0.475124        12.9288 
 257   0.0000       0.482601        13.1323 
 258   0.0000       0.489215        13.3122 
 259   0.0000       0.495135        13.4733 
 260   0.0000       0.503719        13.7069 
 261   0.0000       0.504627        13.7316 
 262   0.0000       0.506523        13.7832 
 263   0.0000       0.512175        13.9370 
 264   0.0000       0.515801        14.0356 
 265   0.0000       0.520577        14.1656 
 266   0.0000       0.525317        14.2946 
 267   0.0000       0.528152        14.3717 
 268   0.0000       0.535461        14.5706 
 269   0.0000       0.540887        14.7183 
 270   0.0000       0.550620        14.9831 
 271   0.0000       0.553708        15.0672 
 272   0.0000       0.558707        15.2032 
 273   0.0000       0.560391        15.2490 
 274   0.0000       0.566522        15.4159 
 275   0.0000       0.572003        15.5650 
 276   0.0000       0.573541        15.6068 
 277   0.0000       0.575353        15.6562 
 278   0.0000       0.581571        15.8253 
 279   0.0000       0.586918        15.9708 
 280   0.0000       0.593156        16.1406 
 281   0.0000       0.593517        16.1504 
 282   0.0000       0.595754        16.2113 
 283   0.0000       0.596646        16.2356 
 284   0.0000       0.598315        16.2810 
 285   0.0000       0.601071        16.3560 
 286   0.0000       0.604758        16.4563 
 287   0.0000       0.612107        16.6563 
 288   0.0000       0.618166        16.8212 
 289   0.0000       0.623133        16.9563 
 290   0.0000       0.625231        17.0134 
 291   0.0000       0.631647        17.1880 
 292   0.0000       0.634417        17.2634 
 293   0.0000       0.636515        17.3205 
 294   0.0000       0.646301        17.5867 
 295   0.0000       0.650480        17.7005 
 296   0.0000       0.653756        17.7896 
 297   0.0000       0.656322        17.8594 
 298   0.0000       0.662360        18.0237 
 299   0.0000       0.666227        18.1290 
 300   0.0000       0.670967        18.2579 
 301   0.0000       0.675803        18.3895 
 302   0.0000       0.678809        18.4713 
 303   0.0000       0.681008        18.5312 
 304   0.0000       0.683650        18.6031 
 305   0.0000       0.686854        18.6903 
 306   0.0000       0.689163        18.7531 
 307   0.0000       0.693075        18.8595 
 308   0.0000       0.695704        18.9311 
 309   0.0000       0.701000        19.0752 
 310   0.0000       0.702732        19.1223 
 311   0.0000       0.705020        19.1846 
 312   0.0000       0.706867        19.2348 
 313   0.0000       0.711216        19.3532 
 314   0.0000       0.711958        19.3734 
 315   0.0000       0.716394        19.4941 
 316   0.0000       0.717173        19.5153 
 317   0.0000       0.718633        19.5550 
 318   0.0000       0.724569        19.7165 
 319   0.0000       0.727388        19.7932 
 320   0.0000       0.727985        19.8095 
 321   0.0000       0.729852        19.8603 
 322   0.0000       0.732091        19.9212 
 323   0.0000       0.733642        19.9634 
 324   0.0000       0.736707        20.0468 
 325   0.0000       0.741179        20.1685 
 326   0.0000       0.742055        20.1923 
 327   0.0000       0.746758        20.3203 
 328   0.0000       0.751607        20.4523 
 329   0.0000       0.755509        20.5584 
 330   0.0000       0.758114        20.6293 
 331   0.0000       0.765826        20.8392 
 332   0.0000       0.767198        20.8765 
 333   0.0000       0.768350        20.9079 
 334   0.0000       0.770529        20.9672 
 335   0.0000       0.772903        21.0318 
 336   0.0000       0.779229        21.2039 
 337   0.0000       0.780988        21.2518 
 338   0.0000       0.785622        21.3779 
 339   0.0000       0.790189        21.5021 
 340   0.0000       0.792491        21.5648 
 341   0.0000       0.795233        21.6394 
 342   0.0000       0.800134        21.7727 
 343   0.0000       0.801425        21.8079 
 344   0.0000       0.805543        21.9199 
 345   0.0000       0.808634        22.0041 
 346   0.0000       0.813528        22.1372 
 347   0.0000       0.813764        22.1437 
 348   0.0000       0.815968        22.2036 
 349   0.0000       0.817477        22.2447 
 350   0.0000       0.820520        22.3275 
 351   0.0000       0.824131        22.4257 
 352   0.0000       0.826813        22.4987 
 353   0.0000       0.827584        22.5197 
 354   0.0000       0.831503        22.6263 
 355   0.0000       0.832369        22.6499 
 356   0.0000       0.834529        22.7087 
 357   0.0000       0.837501        22.7896 
 358   0.0000       0.838697        22.8221 
 359   0.0000       0.839557        22.8455 
 360   0.0000       0.842518        22.9261 
 361   0.0000       0.843527        22.9535 
 362   0.0000       0.845785        23.0150 
 363   0.0000       0.848980        23.1019 
 364   0.0000       0.852685        23.2027 
 365   0.0000       0.855550        23.2807 
 366   0.0000       0.861158        23.4333 
 367   0.0000       0.862727        23.4760 
 368   0.0000       0.867813        23.6144 
 369   0.0000       0.870228        23.6801 
 370   0.0000       0.872597        23.7446 
 371   0.0000       0.874782        23.8040 
 372   0.0000       0.876230        23.8434 
 373   0.0000       0.877327        23.8733 
 374   0.0000       0.881380        23.9836 
 375   0.0000       0.882736        24.0205 
 376   0.0000       0.889695        24.2098 
 377   0.0000       0.891543        24.2601 
 378   0.0000       0.893700        24.3188 
 379   0.0000       0.895363        24.3641 
 380   0.0000       0.897369        24.4186 
 381   0.0000       0.899528        24.4774 
 382   0.0000       0.901137        24.5212 
 383   0.0000       0.902703        24.5638 
 384   0.0000       0.906887        24.6776 
 385   0.0000       0.907728        24.7005 
 386   0.0000       0.909835        24.7579 
 387   0.0000       0.913170        24.8486 
 388   0.0000       0.915640        24.9158 
 389   0.0000       0.918998        25.0072 
 390   0.0000       0.922827        25.1114 
 391   0.0000       0.926339        25.2070 
 392   0.0000       0.927498        25.2385 
 393   0.0000       0.929616        25.2961 
 394   0.0000       0.930236        25.3130 
 395   0.0000       0.934366        25.4254 
 396   0.0000       0.936782        25.4911 
 397   0.0000       0.941520        25.6201 
 398   0.0000       0.945609        25.7313 
 399   0.0000       0.947870        25.7929 
 400   0.0000       0.949231        25.8299 
 401   0.0000       0.953998        25.9596 
 402   0.0000       0.954925        25.9848 
 403   0.0000       0.959077        26.0978 
 404   0.0000       0.961385        26.1606 
 405   0.0000       0.962586        26.1933 
 406   0.0000       0.972140        26.4533 
 407   0.0000       0.979159        26.6443 
 408   0.0000       0.982429        26.7333 
 409   0.0000       0.987463        26.8702 
 410   0.0000       0.989917        26.9370 
 411   0.0000       0.993387        27.0314 
 412   0.0000       0.999875        27.2080 
 413   0.0000       1.006526        27.3890 
 414   0.0000       1.011772        27.5317 
 415   0.0000       1.013793        27.5867 
 416   0.0000       1.019516        27.7424 
 417   0.0000       1.024129        27.8680 
 418   0.0000       1.031536        28.0695 
 419   0.0000       1.034990        28.1635 
 420   0.0000       1.038158        28.2497 
 421   0.0000       1.040772        28.3209 
 422   0.0000       1.044889        28.4329 
 423   0.0000       1.053963        28.6798 
 424   0.0000       1.064343        28.9622 
 425   0.0000       1.069789        29.1104 
 426   0.0000       1.075099        29.2549 
 427   0.0000       1.077563        29.3220 
 428   0.0000       1.080478        29.4013 
 429   0.0000       1.088694        29.6249 
 430   0.0000       1.089569        29.6487 
 431   0.0000       1.094790        29.7907 
 432   0.0000       1.098620        29.8950 
 433   0.0000       1.103754        30.0347 
 434   0.0000       1.108657        30.1681 
 435   0.0000       1.112305        30.2674 
 436   0.0000       1.116876        30.3917 
 437   0.0000       1.118844        30.4453 
 438   0.0000       1.121751        30.5244 
 439   0.0000       1.124623        30.6025 
 440   0.0000       1.126587        30.6560 
 441   0.0000       1.130675        30.7672 
 442   0.0000       1.134496        30.8712 
 443   0.0000       1.135717        30.9044 
 444   0.0000       1.138849        30.9896 
 445   0.0000       1.143887        31.1267 
 446   0.0000       1.147148        31.2155 
 447   0.0000       1.150755        31.3136 
 448   0.0000       1.154516        31.4160 
 449   0.0000       1.158837        31.5336 
 450   0.0000       1.160889        31.5894 
 451   0.0000       1.165551        31.7163 
 452   0.0000       1.168212        31.7887 
 453   0.0000       1.169405        31.8211 
 454   0.0000       1.172941        31.9173 
 455   0.0000       1.177937        32.0533 
 456   0.0000       1.183392        32.2017 
 457   0.0000       1.192107        32.4389 
 458   0.0000       1.196823        32.5672 
 459   0.0000       1.199050        32.6278 
 460   0.0000       1.202996        32.7352 
 461   0.0000       1.205518        32.8038 
 462   0.0000       1.208275        32.8788 
 463   0.0000       1.210594        32.9419 
 464   0.0000       1.213973        33.0339 
 465   0.0000       1.217571        33.1318 
 466   0.0000       1.223395        33.2903 
 467   0.0000       1.229078        33.4449 
 468   0.0000       1.229559        33.4580 
 469   0.0000       1.232882        33.5484 
 470   0.0000       1.237324        33.6693 
 471   0.0000       1.240198        33.7475 
 472   0.0000       1.243145        33.8277 
 473   0.0000       1.245345        33.8876 
 474   0.0000       1.248138        33.9636 
 475   0.0000       1.250802        34.0361 
 476   0.0000       1.251649        34.0591 
 477   0.0000       1.252557        34.0838 
 478   0.0000       1.261035        34.3145 
 479   0.0000       1.264336        34.4043 
 480   0.0000       1.265582        34.4382 
 481   0.0000       1.268228        34.5102 
 482   0.0000       1.269591        34.5473 
 483   0.0000       1.275674        34.7128 
 484   0.0000       1.279910        34.8281 
 485   0.0000       1.282947        34.9108 
 486   0.0000       1.286940        35.0194 
 487   0.0000       1.290409        35.1138 
 488   0.0000       1.291964        35.1561 
 489   0.0000       1.295370        35.2488 
 490   0.0000       1.300177        35.3796 
 491   0.0000       1.303896        35.4808 
 492   0.0000       1.308487        35.6057 
 493   0.0000       1.311662        35.6921 
 494   0.0000       1.318009        35.8649 
 495   0.0000       1.319973        35.9183 
 496   0.0000       1.322997        36.0006 
 497   0.0000       1.326048        36.0836 
 498   0.0000       1.328830        36.1593 
 499   0.0000       1.334906        36.3246 
 500   0.0000       1.337614        36.3983 
 501   0.0000       1.341487        36.5037 
 502   0.0000       1.343178        36.5497 
 503   0.0000       1.345450        36.6115 
 504   0.0000       1.348633        36.6982 
 505   0.0000       1.350154        36.7396 
 506   0.0000       1.352378        36.8001 
 507   0.0000       1.359659        36.9982 
 508   0.0000       1.360540        37.0222 
 509   0.0000       1.363735        37.1091 
[...]
      px      :     0.043611
      py      :     0.014046
 77 H s       :     0.884460  s :     0.884460
      pz      :     0.047979  p :     0.079296
      px      :     0.015024
      py      :     0.016293
 78 H s       :     0.884784  s :     0.884784
      pz      :     0.025886  p :     0.079270
      px      :     0.020455
      py      :     0.032930
 79 H s       :     0.910885  s :     0.910885
      pz      :     0.021799  p :     0.086290
      px      :     0.021655
      py      :     0.042836
 80 H s       :     0.864294  s :     0.864294
      pz      :     0.039396  p :     0.084833
      px      :     0.030285
      py      :     0.015151
 81 H s       :     0.886614  s :     0.886614
      pz      :     0.037840  p :     0.084135
      px      :     0.016170
      py      :     0.030125
 82 H s       :     0.915988  s :     0.915988
      pz      :     0.021954  p :     0.086733
      px      :     0.031658
      py      :     0.033121
 83 H s       :     0.873206  s :     0.873206
      pz      :     0.039295  p :     0.084127
      px      :     0.015270
      py      :     0.029562
 84 H s       :     0.886473  s :     0.886473
      pz      :     0.035781  p :     0.083422
      px      :     0.031705
      py      :     0.015936
 85 H s       :     0.892634  s :     0.892634
      pz      :     0.022495  p :     0.079794
      px      :     0.014061
      py      :     0.043238
 86 H s       :     0.890856  s :     0.890856
      pz      :     0.024736  p :     0.078840
      px      :     0.032990
      py      :     0.021114
 87 H s       :     0.889706  s :     0.889706
      pz      :     0.048030  p :     0.078754
      px      :     0.015586
      py      :     0.015139
 88 H s       :     0.910558  s :     0.910558
      pz      :     0.021602  p :     0.087007
      px      :     0.042949
      py      :     0.022456
 89 H s       :     0.870932  s :     0.870932
      pz      :     0.037972  p :     0.083874
      px      :     0.030518
      py      :     0.015384


                      *****************************
                      * MAYER POPULATION ANALYSIS *
                      *****************************

  NA   - Mulliken gross atomic population
  ZA   - Total nuclear charge
  QA   - Mulliken gross atomic charge
  VA   - Mayer's total valence
  BVA  - Mayer's bonded valence
  FA   - Mayer's free valence

  ATOM       NA         ZA         QA         VA         BVA        FA
  0 C      5.7758     6.0000     0.2242     3.8512     3.8512     0.0000
  1 N      7.4544     7.0000    -0.4544     3.3505     3.3505    -0.0000
  2 C      6.0695     6.0000    -0.0695     3.9232     3.9232    -0.0000
  3 N      7.3416     7.0000    -0.3416     3.4540     3.4540    -0.0000
  4 C      6.1064     6.0000    -0.1064     4.1653     4.1653    -0.0000
  5 N      7.5687     7.0000    -0.5687     3.0960     3.0960    -0.0000
  6 C      6.0931     6.0000    -0.0931     3.9247     3.9247    -0.0000
  7 N      7.3411     7.0000    -0.3411     3.4323     3.4323     0.0000
  8 C      5.7833     6.0000     0.2167     3.8536     3.8536    -0.0000
  9 N      7.5622     7.0000    -0.5622     3.0768     3.0768     0.0000
 10 C      5.8807     6.0000     0.1193     3.9089     3.9089     0.0000
 11 N      7.4387     7.0000    -0.4387     3.3768     3.3768     0.0000
 12 C      6.0519     6.0000    -0.0519     3.8259     3.8259    -0.0000
 13 N      7.4293     7.0000    -0.4293     3.4286     3.4286    -0.0000
 14 C      5.7840     6.0000     0.2160     3.8081     3.8081    -0.0000
 15 N      7.4407     7.0000    -0.4407     3.3737     3.3737    -0.0000
 16 C      5.7669     6.0000     0.2331     3.7764     3.7764    -0.0000
 17 C      6.1091     6.0000    -0.1091     3.9408     3.9408    -0.0000
 18 C      6.1807     6.0000    -0.1807     3.7500     3.7500    -0.0000
 19 C      5.7862     6.0000     0.2138     3.8857     3.8857     0.0000
 20 C      5.7867     6.0000     0.2133     3.8293     3.8293     0.0000
 21 C      6.0545     6.0000    -0.0545     3.7801     3.7801    -0.0000
 22 C      6.0912     6.0000    -0.0912     3.9827     3.9827     0.0000
 23 C      6.0396     6.0000    -0.0396     3.9928     3.9928     0.0000
 24 C      5.8071     6.0000     0.1929     3.8211     3.8211     0.0000
 25 C      5.8852     6.0000     0.1148     3.8920     3.8920     0.0000
 26 C      6.0843     6.0000    -0.0843     3.9075     3.9075     0.0000
 27 C      5.7813     6.0000     0.2187     3.8630     3.8630    -0.0000
 28 C      6.0619     6.0000    -0.0619     3.9888     3.9888    -0.0000
 29 C      6.1828     6.0000    -0.1828     3.7474     3.7474    -0.0000
 30 C      5.7544     6.0000     0.2456     3.8010     3.8010    -0.0000
 31 C      5.7700     6.0000     0.2300     3.8169     3.8169     0.0000
 32 C      6.0615     6.0000    -0.0615     3.9231     3.9231    -0.0000
 33 C      6.0600     6.0000    -0.0600     3.9711     3.9711     0.0000
 34 C      6.0516     6.0000    -0.0516     3.9833     3.9833    -0.0000
 35 C      5.7709     6.0000     0.2291     3.8165     3.8165    -0.0000
 36 C      5.8918     6.0000     0.1082     3.8747     3.8747    -0.0000
 37 C      6.0645     6.0000    -0.0645     3.9177     3.9177    -0.0000
 38 C      5.7692     6.0000     0.2308     3.8010     3.8010    -0.0000
 39 C      6.0573     6.0000    -0.0573     3.9830     3.9830     0.0000
 40 C      6.1818     6.0000    -0.1818     3.7261     3.7261    -0.0000
 41 C      5.7735     6.0000     0.2265     3.8882     3.8882    -0.0000
 42 C      5.8025     6.0000     0.1975     3.8254     3.8254    -0.0000
 43 C      6.0725     6.0000    -0.0725     3.8999     3.8999    -0.0000
 44 C      6.0891     6.0000    -0.0891     3.9848     3.9848     0.0000
 45 C      6.0617     6.0000    -0.0617     3.9918     3.9918    -0.0000
 46 C      5.7876     6.0000     0.2124     3.8283     3.8283    -0.0000
 47 C      5.8848     6.0000     0.1152     3.8925     3.8925    -0.0000
 48 C      6.0664     6.0000    -0.0664     3.9096     3.9096    -0.0000
 49 C      5.7616     6.0000     0.2384     3.8947     3.8947    -0.0000
 50 C      6.0460     6.0000    -0.0460     3.9903     3.9903    -0.0000
 51 C      6.1926     6.0000    -0.1926     3.7377     3.7377     0.0000
 52 H      0.9658     1.0000     0.0342     0.9856     0.9856    -0.0000
 53 H      1.0186     1.0000    -0.0186     0.9990     0.9990    -0.0000
 54 H      0.9397     1.0000     0.0603     0.9628     0.9628    -0.0000
 55 H      0.9685     1.0000     0.0315     0.9863     0.9863    -0.0000
 56 H      0.9505     1.0000     0.0495     0.9695     0.9695     0.0000
 57 H      0.9522     1.0000     0.0478     0.9824     0.9824    -0.0000
 58 H      0.9536     1.0000     0.0464     0.9846     0.9846     0.0000
 59 H      1.0188     1.0000    -0.0188     0.9842     0.9842     0.0000
 60 H      0.9532     1.0000     0.0468     0.9858     0.9858     0.0000
 61 H      0.8289     1.0000     0.1711     1.0423     1.0423    -0.0000
 62 H      0.8246     1.0000     0.1754     1.0436     1.0436     0.0000
 63 H      0.9452     1.0000     0.0548     0.9853     0.9853     0.0000
 64 H      1.0450     1.0000    -0.0450     0.9733     0.9733    -0.0000
 65 H      0.9533     1.0000     0.0467     1.0100     1.0100     0.0000
 66 H      0.9449     1.0000     0.0551     0.9855     0.9855    -0.0000
 67 H      0.9380     1.0000     0.0620     0.9719     0.9719    -0.0000
 68 H      0.9430     1.0000     0.0570     0.9868     0.9868     0.0000
 69 H      0.9439     1.0000     0.0561     0.9828     0.9828     0.0000
 70 H      1.0309     1.0000    -0.0309     0.9945     0.9945     0.0000
 71 H      0.9556     1.0000     0.0444     1.0059     1.0059    -0.0000
 72 H      0.9285     1.0000     0.0715     0.9835     0.9835    -0.0000
 73 H      1.0079     1.0000    -0.0079     1.0010     1.0010     0.0000
 74 H      0.9395     1.0000     0.0605     1.0100     1.0100    -0.0000
 75 H      0.9290     1.0000     0.0710     0.9838     0.9838    -0.0000
 76 H      0.9249     1.0000     0.0751     0.9721     0.9721     0.0000
 77 H      0.9319     1.0000     0.0681     0.9855     0.9855    -0.0000
 78 H      0.9325     1.0000     0.0675     0.9854     0.9854    -0.0000
 79 H      1.0169     1.0000    -0.0169     0.9974     0.9974    -0.0000
 80 H      0.9385     1.0000     0.0615     1.0072     1.0072    -0.0000
 81 H      0.9452     1.0000     0.0548     0.9856     0.9856     0.0000
 82 H      1.0248     1.0000    -0.0248     0.9935     0.9935     0.0000
 83 H      0.9577     1.0000     0.0423     1.0082     1.0082    -0.0000
 84 H      0.9454     1.0000     0.0546     0.9852     0.9852    -0.0000
 85 H      0.9388     1.0000     0.0612     0.9716     0.9716     0.0000
 86 H      0.9442     1.0000     0.0558     0.9839     0.9839    -0.0000
 87 H      0.9425     1.0000     0.0575     0.9857     0.9857    -0.0000
 88 H      1.0144     1.0000    -0.0144     0.9968     0.9968     0.0000
 89 H      0.9527     1.0000     0.0473     1.0077     1.0077    -0.0000

  Mayer bond orders larger than 0.100000
B(  0-C ,  1-N ) :   1.1039 B(  0-C , 17-C ) :   1.7191 B(  0-C , 52-H ) :   0.9602 
B(  1-N ,  8-C ) :   1.0910 B(  1-N , 10-C ) :   0.9771 B(  2-C , 12-C ) :   1.4867 
B(  2-C , 16-C ) :   1.3757 B(  2-C , 53-H ) :   0.9711 B(  3-N , 14-C ) :   1.2242 
B(  3-N , 16-C ) :   1.1777 B(  3-N , 61-H ) :   0.8980 B(  4-C ,  6-C ) :   1.2247 
B(  4-C , 17-C ) :   1.2266 B(  4-C , 18-C ) :   1.4839 B(  5-N , 19-C ) :   1.4644 
B(  5-N , 27-C ) :   1.3682 B(  6-C ,  8-C ) :   1.7362 B(  6-C , 54-H ) :   0.8421 
B(  7-N , 30-C ) :   1.1954 B(  7-N , 38-C ) :   1.1893 B(  7-N , 62-H ) :   0.8968 
B(  8-C , 55-H ) :   0.9598 B(  9-N , 41-C ) :   1.3955 B(  9-N , 49-C ) :   1.4238 
B( 10-C , 56-H ) :   0.9777 B( 10-C , 57-H ) :   0.9823 B( 10-C , 58-H ) :   0.9838 
B( 11-N , 20-C ) :   1.1304 B( 11-N , 24-C ) :   1.1056 B( 11-N , 25-C ) :   0.9607 
B( 12-C , 14-C ) :   1.3594 B( 12-C , 59-H ) :   0.9148 B( 13-N , 31-C ) :   1.1613 
B( 13-N , 35-C ) :   1.1613 B( 13-N , 36-C ) :   0.9412 B( 14-C , 18-C ) :   1.1176 
B( 15-N , 42-C ) :   1.1084 B( 15-N , 46-C ) :   1.1257 B( 15-N , 47-C ) :   0.9608 
B( 16-C , 51-C ) :   1.1684 B( 17-C , 60-H ) :   0.8767 B( 18-C , 19-C ) :   1.1152 
B( 19-C , 21-C ) :   1.2556 B( 20-C , 28-C ) :   1.6298 B( 20-C , 63-H ) :   0.9703 
B( 21-C , 26-C ) :   1.5756 B( 21-C , 64-H ) :   0.8821 B( 22-C , 23-C ) :   1.2885 
B( 22-C , 28-C ) :   1.2626 B( 22-C , 29-C ) :   1.2280 B( 23-C , 24-C ) :   1.6213 
B( 23-C , 65-H ) :   0.9703 B( 24-C , 66-H ) :   0.9696 B( 25-C , 67-H ) :   0.9760 
B( 25-C , 68-H ) :   0.9828 B( 25-C , 69-H ) :   0.9824 B( 26-C , 27-C ) :   1.2689 
B( 26-C , 70-H ) :   0.9656 B( 27-C , 29-C ) :   1.2050 B( 28-C , 71-H ) :   0.9720 
B( 29-C , 30-C ) :   1.2469 B( 30-C , 32-C ) :   1.2791 B( 31-C , 39-C ) :   1.5873 
B( 31-C , 72-H ) :   0.9681 B( 32-C , 37-C ) :   1.5796 B( 32-C , 73-H ) :   0.9787 
B( 33-C , 34-C ) :   1.3066 B( 33-C , 39-C ) :   1.3047 B( 33-C , 40-C ) :   1.1761 
B( 34-C , 35-C ) :   1.5853 B( 34-C , 74-H ) :   0.9696 B( 35-C , 75-H ) :   0.9681 
B( 36-C , 76-H ) :   0.9768 B( 36-C , 77-H ) :   0.9816 B( 36-C , 78-H ) :   0.9823 
B( 37-C , 38-C ) :   1.2854 B( 37-C , 79-H ) :   0.9764 B( 38-C , 40-C ) :   1.2338 
B( 39-C , 80-H ) :   0.9705 B( 40-C , 41-C ) :   1.2505 B( 41-C , 43-C ) :   1.1836 
B( 42-C , 50-C ) :   1.6317 B( 42-C , 81-H ) :   0.9696 B( 43-C , 48-C ) :   1.6695 
B( 43-C , 82-H ) :   0.9721 B( 44-C , 45-C ) :   1.2642 B( 44-C , 50-C ) :   1.2737 
B( 44-C , 51-C ) :   1.2584 B( 45-C , 46-C ) :   1.6334 B( 45-C , 83-H ) :   0.9718 
B( 46-C , 84-H ) :   0.9700 B( 47-C , 85-H ) :   0.9762 B( 47-C , 86-H ) :   0.9829 
B( 47-C , 87-H ) :   0.9824 B( 48-C , 49-C ) :   1.1869 B( 48-C , 88-H ) :   0.9748 
B( 49-C , 51-C ) :   1.2467 B( 50-C , 89-H ) :   0.9708 B( 54-H , 64-H ) :   0.1418 


-------
TIMINGS
-------

Total SCF time: 0 days 0 hours 30 min 23 sec 

Total time                  ....    1823.365 sec
Sum of individual times     ....    1818.591 sec  ( 99.7%)

Fock matrix formation       ....    1795.315 sec  ( 98.5%)
Diagonalization             ....       6.913 sec  (  0.4%)
Density matrix formation    ....       0.695 sec  (  0.0%)
Population analysis         ....       0.528 sec  (  0.0%)
Initial guess               ....       2.056 sec  (  0.1%)
Orbital Transformation      ....       0.000 sec  (  0.0%)
Orbital Orthonormalization  ....       0.000 sec  (  0.0%)
DIIS solution               ....       3.523 sec  (  0.2%)
SOSCF solution              ....       8.506 sec  (  0.5%)

Maximum memory used throughout the entire SCF-calculation: 302.7 MB


           ************************************************************
           *        Program running with 16 parallel MPI-processes    *
           *              working on a common directory               *
           ************************************************************

------------------------------------------------------------------------------
                                ORCA  MP2 
------------------------------------------------------------------------------

Freezing NCore=104 chemical core electrons

----------
MP2 ENERGY (disk based algorithm)
----------

Dimension of the basis                    ...  918
Memory devoted to MP2                     ... 2000 MB   
Data format for buffers                   ... DOUBLE
Compression type for matrix containers    ... UNCOMPRESSED

-------------------------------
PARTIAL EXCHANGE TRANSFORMATION
-------------------------------

Transformation type                        ... one-operator
Generation of integrals (i,mue|j,nue)      ... ON
Generation of integrals (mue,kappa|nue,tau)... OFF
Generation of integrals (i,mue|a,nue)      ... OFF
Dimension of the basis                     ...  918
Number of internal MOs                     ...  127 (  52- 178)
Pair cutoff                                ... 2.500e-12 Eh
Number of AO pairs in the trafo            ... 421821
Total Number of distinct AO pairs          ... 421821
Memory devoted for trafo                   ... 2000.0 MB 
Max. Number of MO pairs treated together   ...  311      
Number Format for Storage                  ... Double (8 Byte)
Integral package used                      ... LIBINT

Starting integral evaluation:
    ... done with AO integral generation
Closing buffer AOK     (38.26 GB; CompressionRatio= 1.32)
Collecting buffer AOK 
Number of MO pairs included in the trafo   ... 8128
------------------------
SORTING OF (i,mue|j,nue)
------------------------

IBATCH = 1 of  2
IBATCH = 2 of  2
Closing buffer KAO     (51.03 GB; CompressionRatio= 1.00)
Collecting buffer KAO 
N(AO-Batches) Done                         ...  86176205 
N(AO-Batches) Skipped                      ...  82290443 
N(IJ)-pairs Skipped                        ...         0 
TOTAL TIME for half transformation         ...  3163.563 sec
AO-integral generation                     ...   215.640 sec
Half transformation                        ...   374.596 sec
K-integral sorting                         ...  2400.699 sec

Finished integral transformation - now doing MP2 part

OPERATOR COMBINATION   0   0: ij=( 52..178, 52..178)
Process 10:   Internal MO 132
Process 13:   Internal MO 156
Process  1:   Internal MO  60
Process  4:   Internal MO  84
Process  7:   Internal MO 108
Process  0:   Internal MO  54
Process  2:   Internal MO  69
Process  0:   Internal MO  57
Process  8:   Internal MO 117
Process  2:   Internal MO  72
Process  3:   Internal MO  78
Process 14:   Internal MO 165
Process  5:   Internal MO  93
Process  4:   Internal MO  87
Process  1:   Internal MO  63
Process  2:   Internal MO  75
Process 11:   Internal MO 141
Process  7:   Internal MO 111
Process  3:   Internal MO  81
Process  9:   Internal MO 126
Process  1:   Internal MO  66
Process  4:   Internal MO  90
Process 12:   Internal MO 150
Process  5:   Internal MO  96
Process 15:   Internal MO 174
Process  6:   Internal MO 102
Process 10:   Internal MO 135
Process  8:   Internal MO 120
Process  7:   Internal MO 114
Process  5:   Internal MO  99
Process  9:   Internal MO 129
Process 13:   Internal MO 159
Process  6:   Internal MO 105
Process 11:   Internal MO 144
Process 14:   Internal MO 168
Process  8:   Internal MO 123
Process 10:   Internal MO 138
Process 12:   Internal MO 153
Process 15:   Internal MO 177
Process 11:   Internal MO 147
Process 13:   Internal MO 162
Process 14:   Internal MO 171
-----------------------------------------------
 MP2 CORRELATION ENERGY   :     -7.293198572 Eh
-----------------------------------------------


-------
TIMINGS
-------
Total time                : 3523.508 sec
Integral trafo            : 3165.877 sec ( 89.9%)
K(i,j)                    :    5.056 sec (  0.1%)
T(i,j)                    :    0.069 sec (  0.0%)

---------------------------------------
MP2 TOTAL ENERGY:    -2130.742977355 Eh
---------------------------------------

Maximum memory used throughout the entire MP2-calculation: 2275.3 MB

-------------------------   --------------------
FINAL SINGLE POINT ENERGY     -2130.742977354728
-------------------------   --------------------


                            ***************************************
                            *     ORCA property calculations      *
                            ***************************************


  WARNING: The energy has been calculated at the MP2 level but the densities
           used in the property calculations are still SCF densities
           MP2 response densities have not been calculated 
           use %mp2 Density relaxed end
           or  %mp2 Density unrelaxed end

                                    ---------------------
                                    Active property flags
                                    ---------------------
   (+) Dipole Moment


------------------------------------------------------------------------------
                       ORCA ELECTRIC PROPERTIES CALCULATION
------------------------------------------------------------------------------

Dipole Moment Calculation                       ... on
Quadrupole Moment Calculation                   ... off
Polarizability Calculation                      ... off
GBWName                                         ... /scratch/allen/tmpyp4_amber_gaff2/conf1/conf1/Conf8.orca.gbw
Electron density                                ... /scratch/allen/tmpyp4_amber_gaff2/conf1/conf1/Conf8.orca.scfp
The origin for moment calculation is the CENTER OF MASS  = (-0.001172, -0.004944  0.002399)

-------------
DIPOLE MOMENT
-------------
                                X             Y             Z
Electronic contribution:      2.93764      -4.23148      -0.08942
Nuclear contribution   :     -0.03977       0.15976       0.10681
                        -----------------------------------------
Total Dipole Moment    :      2.89786      -4.07171       0.01739
                        -----------------------------------------
Magnitude (a.u.)       :      4.99767
Magnitude (Debye)      :     12.70308



--------------------
Rotational spectrum 
--------------------
 
Rotational constants in cm-1:     0.001503     0.001478     0.000760 
Rotational constants in MHz :    45.071988    44.300631    22.781418 

 Dipole components along the rotational axes: 
x,y,z [a.u.] :     3.558326     3.509218     0.021215 
x,y,z [Debye]:     9.044546     8.919722     0.053925 

 

Timings for individual modules:

Sum of individual times         ...     5370.725 sec (=  89.512 min)
GTO integral calculation        ...        7.034 sec (=   0.117 min)   0.1 %
SCF iterations                  ...     1824.618 sec (=  30.410 min)  34.0 %
MP2 module                      ...     3539.074 sec (=  58.985 min)  65.9 %
                             ****ORCA TERMINATED NORMALLY****
TOTAL RUN TIME: 0 days 1 hours 29 minutes 34 seconds 251 msec
# of primitive gaussian functions

