
                                 *****************
                                 * O   R   C   A *
                                 *****************

                                            #,                                       
                                            ###                                      
                                            ####                                     
                                            #####                                    
                                            ######                                   
                                           ########,                                 
                                     ,,################,,,,,                         
                               ,,#################################,,                 
                          ,,##########################################,,             
                       ,#########################################, ''#####,          
                    ,#############################################,,   '####,        
                  ,##################################################,,,,####,       
                ,###########''''           ''''###############################       
              ,#####''   ,,,,##########,,,,          '''####'''          '####       
            ,##' ,,,,###########################,,,                        '##       
           ' ,,###''''                  '''############,,,                           
         ,,##''                                '''############,,,,        ,,,,,,###''
      ,#''                                            '''#######################'''  
     '                                                          ''''####''''         
             ,#######,   #######,   ,#######,      ##                                
            ,#'     '#,  ##    ##  ,#'     '#,    #''#        ######   ,####,        
            ##       ##  ##   ,#'  ##            #'  '#       #        #'  '#        
            ##       ##  #######   ##           ,######,      #####,   #    #        
            '#,     ,#'  ##    ##  '#,     ,#' ,#      #,         ##   #,  ,#        
             '#######'   ##     ##  '#######'  #'      '#     #####' # '####'        



                  #######################################################
                  #                        -***-                        #
                  #          Department of theory and spectroscopy      #
                  #    Directorship and core code : Frank Neese         #
                  #        Max Planck Institute fuer Kohlenforschung    #
                  #                Kaiser Wilhelm Platz 1               #
                  #                 D-45470 Muelheim/Ruhr               #
                  #                      Germany                        #
                  #                                                     #
                  #                  All rights reserved                #
                  #                        -***-                        #
                  #######################################################


                         Program Version 5.0.4 -  RELEASE  -


 With contributions from (in alphabetic order):
   Daniel Aravena         : Magnetic Suceptibility
   Michael Atanasov       : Ab Initio Ligand Field Theory (pilot matlab implementation)
   Alexander A. Auer      : GIAO ZORA, VPT2 properties, NMR spectrum
   Ute Becker             : Parallelization
   Giovanni Bistoni       : ED, misc. LED, open-shell LED, HFLD
   Martin Brehm           : Molecular dynamics
   Dmytro Bykov           : SCF Hessian
   Vijay G. Chilkuri      : MRCI spin determinant printing, contributions to CSF-ICE
   Dipayan Datta          : RHF DLPNO-CCSD density
   Achintya Kumar Dutta   : EOM-CC, STEOM-CC
   Dmitry Ganyushin       : Spin-Orbit,Spin-Spin,Magnetic field MRCI
   Miquel Garcia          : C-PCM and meta-GGA Hessian, CC/C-PCM, Gaussian charge scheme
   Yang Guo               : DLPNO-NEVPT2, F12-NEVPT2, CIM, IAO-localization
   Andreas Hansen         : Spin unrestricted coupled pair/coupled cluster methods
   Benjamin Helmich-Paris : MC-RPA, TRAH-SCF, COSX integrals
   Lee Huntington         : MR-EOM, pCC
   Robert Izsak           : Overlap fitted RIJCOSX, COSX-SCS-MP3, EOM
   Marcus Kettner         : VPT2
   Christian Kollmar      : KDIIS, OOCD, Brueckner-CCSD(T), CCSD density, CASPT2, CASPT2-K
   Simone Kossmann        : Meta GGA functionals, TD-DFT gradient, OOMP2, MP2 Hessian
   Martin Krupicka        : Initial AUTO-CI
   Lucas Lang             : DCDCAS
   Marvin Lechner         : AUTO-CI (C++ implementation), FIC-MRCC
   Dagmar Lenk            : GEPOL surface, SMD
   Dimitrios Liakos       : Extrapolation schemes; Compound Job, initial MDCI parallelization
   Dimitrios Manganas     : Further ROCIS development; embedding schemes
   Dimitrios Pantazis     : SARC Basis sets
   Anastasios Papadopoulos: AUTO-CI, single reference methods and gradients
   Taras Petrenko         : DFT Hessian,TD-DFT gradient, ASA, ECA, R-Raman, ABS, FL, XAS/XES, NRVS
   Peter Pinski           : DLPNO-MP2, DLPNO-MP2 Gradient
   Christoph Reimann      : Effective Core Potentials
   Marius Retegan         : Local ZFS, SOC
   Christoph Riplinger    : Optimizer, TS searches, QM/MM, DLPNO-CCSD(T), (RO)-DLPNO pert. Triples
   Tobias Risthaus        : Range-separated hybrids, TD-DFT gradient, RPA, STAB
   Michael Roemelt        : Original ROCIS implementation
   Masaaki Saitow         : Open-shell DLPNO-CCSD energy and density
   Barbara Sandhoefer     : DKH picture change effects
   Avijit Sen             : IP-ROCIS
   Kantharuban Sivalingam : CASSCF convergence, NEVPT2, FIC-MRCI
   Bernardo de Souza      : ESD, SOC TD-DFT
   Georgi Stoychev        : AutoAux, RI-MP2 NMR, DLPNO-MP2 response
   Willem Van den Heuvel  : Paramagnetic NMR
   Boris Wezisla          : Elementary symmetry handling
   Frank Wennmohs         : Technical directorship


 We gratefully acknowledge several colleagues who have allowed us to
 interface, adapt or use parts of their codes:
   Stefan Grimme, W. Hujo, H. Kruse, P. Pracht,  : VdW corrections, initial TS optimization,
                  C. Bannwarth, S. Ehlert          DFT functionals, gCP, sTDA/sTD-DF
   Ed Valeev, F. Pavosevic, A. Kumar             : LibInt (2-el integral package), F12 methods
   Garnet Chan, S. Sharma, J. Yang, R. Olivares  : DMRG
   Ulf Ekstrom                                   : XCFun DFT Library
   Mihaly Kallay                                 : mrcc  (arbitrary order and MRCC methods)
   Jiri Pittner, Ondrej Demel                    : Mk-CCSD
   Frank Weinhold                                : gennbo (NPA and NBO analysis)
   Christopher J. Cramer and Donald G. Truhlar   : smd solvation model
   Lars Goerigk                                  : TD-DFT with DH, B97 family of functionals
   V. Asgeirsson, H. Jonsson                     : NEB implementation
   FAccTs GmbH                                   : IRC, NEB, NEB-TS, DLPNO-Multilevel, CI-OPT
                                                   MM, QMMM, 2- and 3-layer-ONIOM, Crystal-QMMM,
                                                   LR-CPCM, SF, NACMEs, symmetry and pop. for TD-DFT,
                                                   nearIR, NL-DFT gradient (VV10), updates on ESD,
                                                   ML-optimized integration grids
   S Lehtola, MJT Oliveira, MAL Marques          : LibXC Library
   Liviu Ungur et al                             : ANISO software


 Your calculation uses the libint2 library for the computation of 2-el integrals
 For citations please refer to: http://libint.valeyev.net

 Your ORCA version has been built with support for libXC version: 5.1.0
 For citations please refer to: https://tddft.org/programs/libxc/

 This ORCA versions uses:
   CBLAS   interface :  Fast vector & matrix operations
   LAPACKE interface :  Fast linear algebra routines
   SCALAPACK package :  Parallel linear algebra routines
   Shared memory     :  Shared parallel matrices
   BLAS/LAPACK       :  OpenBLAS 0.3.15  USE64BITINT DYNAMIC_ARCH NO_AFFINITY Sandybridge SINGLE_THREADED
        Core in use  :  Sandybridge
   Copyright (c) 2011-2014, The OpenBLAS Project


================================================================================

----- Orbital basis set information -----
Your calculation utilizes the basis: cc-pVDZ 
       H, B-Ne : Obtained from the ccRepo (grant-hill.group.shef.ac.uk/ccrepo) Feb. 2017
                 T. H. Dunning, Jr., J. Chem. Phys. 90, 1007 (1989)
            He : Obtained from the ccRepo (grant-hill.group.shef.ac.uk/ccrepo) Feb. 2017
                 D. E. Woon, T. H. Dunning, Jr., J. Chem. Phys. 100, 2975 (1994)
  Li-Be, Na-Mg : Obtained from the ccRepo (grant-hill.group.shef.ac.uk/ccrepo) Feb. 2017
                 B. P. Prascher, D. E. Woon, K. A. Peterson, T. H. Dunning, Jr., A. K. Wilson, Theor. Chem. Acc. 128, 69 (2011)
         Al-Ar : Obtained from the ccRepo (grant-hill.group.shef.ac.uk/ccrepo) Feb. 2017
                 D. E. Woon, T. H. Dunning, Jr., J. Chem. Phys. 98, 1358 (1993)
            Ca : Obtained from the Peterson Research Group Website (tyr0.chem.wsu.edu/~kipeters) Feb. 2017
                 J. Koput, K. A. Peterson, J. Phys. Chem. 106, 9595 (2002)
         Sc-Zn : Obtained from the ccRepo (grant-hill.group.shef.ac.uk/ccrepo) Feb. 2017
                 N. B. Balabanov, K. A. Peterson, J. Chem. Phys. 123, 064107 (2005)
                 N. B. Balabanov, K. A. Peterson, J. Chem. Phys. 125, 074110 (2006)
         Ga-Kr : Obtained from the ccRepo (grant-hill.group.shef.ac.uk/ccrepo) Feb. 2017
                 A. K. Wilson, D. E. Woon, K. A. Peterson, T. H. Dunning, Jr., J. Chem. Phys. 110, 7667 (1999)

================================================================================
                                        WARNINGS
                       Please study these warnings very carefully!
================================================================================


WARNING: No MP2 level density has been requested!
         To caclulate MP2 level properties use
         %mp2 Density relaxed end
         or
         %mp2 Density unrelaxed end

WARNING: Post HF methods need fully converged wavefunctions
  ===> : Setting SCFConvForced true
         You can overwrite this default with %scf ConvForced false 


INFO   : the flag for use of the SHARK integral package has been found!

================================================================================
                                       INPUT FILE
================================================================================
NAME = /scratch/allen/tmpyp4_amber_gaff2/2.Mdgx/conf11/conf11/Conf190.orca
|  1> ! PAL2
|  2> ! mp2 cc-pvdz TightSCF  NoKeepInts
|  3> 
|  4> %scf
|  5>   MaxCore 2000
|  6> end
|  7> %mp2
|  8>   MaxCore 2000
|  9> end
| 10> * xyz 0 1
| 11>    C       -4.94700         5.18400         0.22600
| 12>    C        1.47400         4.04100         0.05700
| 13>    C       -2.80200         4.09300         0.04900
| 14>    C       -2.22500         5.36400        -0.10200
| 15>    C       -3.02000         6.49200        -0.08200
| 16>    C       -5.17900         7.62500         0.13300
| 17>    C        0.13200         4.30700         0.06100
| 18>    C       -0.56900         3.05600         0.04700
| 19>    C        1.64900         2.61800         0.02300
| 20>    C       -4.19400         4.02700         0.21800
| 21>    N       -4.36000         6.39400         0.07700
| 22>    N        0.38800         2.06700         0.02500
| 23>    N       -2.01000         0.39500        -0.07500
| 24>    N       -0.38800        -2.07400        -0.02700
| 25>    N        2.01000        -0.40100         0.06500
| 26>    C       -1.96000         2.86100         0.02400
| 27>    C       -2.62300         1.61500        -0.01800
| 28>    C       -5.57300        -4.32900         1.06600
| 29>    C       -4.07300         1.47100         0.05600
| 30>    C       -4.10600        -2.75600        -0.02600
| 31>    C       -4.99500        -2.75700        -1.11100
| 32>    C       -6.13200        -3.54200        -1.07600
| 33>    C       -7.65100        -5.11300         0.04000
| 34>    C       -4.32400         0.14100         0.03700
| 35>    C       -3.02500        -0.52000        -0.04800
| 36>    C       -4.42200        -3.56600         1.07500
| 37>    N       -6.40700        -4.31300         0.00100
| 38>    C       -2.86700        -1.92200        -0.04000
| 39>    C       -1.65000        -2.62400        -0.02700
| 40>    C        3.56800        -6.14200        -1.04000
| 41>    C       -1.47600        -4.04900        -0.03400
| 42>    C        2.80300        -4.09900        -0.00800
| 43>    C        3.65700        -4.38400         1.06900
| 44>    C        4.42700        -5.53000         1.05900
| 45>    C        5.24500        -7.58800         0.01400
| 46>    C       -0.13400        -4.31500        -0.02200
| 47>    C        0.56800        -3.06400        -0.02700
| 48>    C        2.77500        -5.01200        -1.07400
| 49>    N        4.37600        -6.39100         0.01700
| 50>    C        1.95900        -2.86900        -0.00900
| 51>    C        2.62100        -1.62200         0.00900
| 52>    C        5.54300         4.33900        -1.13000
| 53>    C        4.07000        -1.47900        -0.09400
| 54>    C        4.10400         2.75100        -0.02100
| 55>    C        5.02700         2.72900         1.03600
| 56>    C        6.16600         3.50900         0.97800
| 57>    C        7.61900         5.15300        -0.11500
| 58>    C        4.32100        -0.14800        -0.09200
| 59>    C        3.02500         0.51400         0.01500
| 60>    C        4.38700         3.58200        -1.11500
| 61>    C        2.86600         1.91600         0.01300
| 62>    N        6.41300         4.29600        -0.09500
| 63>    H       -6.02400         5.18000         0.34100
| 64>    H        2.27400         4.76600         0.08100
| 65>    H       -1.15600         5.48100        -0.22700
| 66>    H       -2.62000         7.49300        -0.18500
| 67>    H       -5.19000         7.99800         1.15900
| 68>    H       -4.74100         8.36800        -0.53300
| 69>    H       -6.19300         7.38600        -0.18900
| 70>    H       -0.33200         5.28200         0.06900
| 71>    H       -4.70000         3.07400         0.32600
| 72>    H        0.18200         1.07200         0.00500
| 73>    H       -0.18300        -1.08000        -0.02100
| 74>    H       -5.86400        -4.96200         1.89500
| 75>    H       -4.79400         2.27200         0.13900
| 76>    H       -4.80000        -2.16000        -1.99400
| 77>    H       -6.84100        -3.58200        -1.89300
| 78>    H       -8.42800        -4.53600         0.54600
| 79>    H       -7.95600        -5.33700        -0.98100
| 80>    H       -7.45600        -6.03700         0.58400
| 81>    H       -5.28700        -0.34400         0.10000
| 82>    H       -3.78000        -3.60100         1.94700
| 83>    H        3.58700        -6.86800        -1.84300
| 84>    H       -2.27600        -4.77400        -0.05000
| 85>    H        3.71400        -3.72400         1.92600
| 86>    H        5.09200        -5.79500         1.87100
| 87>    H        6.20500        -7.32900        -0.43900
| 88>    H        5.39300        -7.91700         1.04200
| 89>    H        4.75900        -8.37300        -0.56400
| 90>    H        0.32900        -5.29000        -0.00800
| 91>    H        2.14600        -4.84200        -1.94000
| 92>    H        5.80800         4.98600        -1.95600
| 93>    H        4.78800        -2.28100        -0.18500
| 94>    H        4.86000         2.11400         1.91200
| 95>    H        6.90100         3.53100         1.77200
| 96>    H        7.38300         6.10900         0.35600
| 97>    H        8.41400         4.65200         0.43500
| 98>    H        7.92100         5.31000        -1.15000
| 99>    H        5.28300         0.33600        -0.17900
|100>    H        3.72000         3.63200        -1.96700
|101> *
|102> 
|103>                          ****END OF INPUT****
================================================================================

                       ****************************
                       * Single Point Calculation *
                       ****************************

---------------------------------
CARTESIAN COORDINATES (ANGSTROEM)
---------------------------------
  C     -4.947000    5.184000    0.226000
  C      1.474000    4.041000    0.057000
  C     -2.802000    4.093000    0.049000
  C     -2.225000    5.364000   -0.102000
  C     -3.020000    6.492000   -0.082000
  C     -5.179000    7.625000    0.133000
  C      0.132000    4.307000    0.061000
  C     -0.569000    3.056000    0.047000
  C      1.649000    2.618000    0.023000
  C     -4.194000    4.027000    0.218000
  N     -4.360000    6.394000    0.077000
  N      0.388000    2.067000    0.025000
  N     -2.010000    0.395000   -0.075000
  N     -0.388000   -2.074000   -0.027000
  N      2.010000   -0.401000    0.065000
  C     -1.960000    2.861000    0.024000
  C     -2.623000    1.615000   -0.018000
  C     -5.573000   -4.329000    1.066000
  C     -4.073000    1.471000    0.056000
  C     -4.106000   -2.756000   -0.026000
  C     -4.995000   -2.757000   -1.111000
  C     -6.132000   -3.542000   -1.076000
  C     -7.651000   -5.113000    0.040000
  C     -4.324000    0.141000    0.037000
  C     -3.025000   -0.520000   -0.048000
  C     -4.422000   -3.566000    1.075000
  N     -6.407000   -4.313000    0.001000
  C     -2.867000   -1.922000   -0.040000
  C     -1.650000   -2.624000   -0.027000
  C      3.568000   -6.142000   -1.040000
  C     -1.476000   -4.049000   -0.034000
  C      2.803000   -4.099000   -0.008000
  C      3.657000   -4.384000    1.069000
  C      4.427000   -5.530000    1.059000
  C      5.245000   -7.588000    0.014000
  C     -0.134000   -4.315000   -0.022000
  C      0.568000   -3.064000   -0.027000
  C      2.775000   -5.012000   -1.074000
  N      4.376000   -6.391000    0.017000
  C      1.959000   -2.869000   -0.009000
  C      2.621000   -1.622000    0.009000
  C      5.543000    4.339000   -1.130000
  C      4.070000   -1.479000   -0.094000
  C      4.104000    2.751000   -0.021000
  C      5.027000    2.729000    1.036000
  C      6.166000    3.509000    0.978000
  C      7.619000    5.153000   -0.115000
  C      4.321000   -0.148000   -0.092000
  C      3.025000    0.514000    0.015000
  C      4.387000    3.582000   -1.115000
  C      2.866000    1.916000    0.013000
  N      6.413000    4.296000   -0.095000
  H     -6.024000    5.180000    0.341000
  H      2.274000    4.766000    0.081000
  H     -1.156000    5.481000   -0.227000
  H     -2.620000    7.493000   -0.185000
  H     -5.190000    7.998000    1.159000
  H     -4.741000    8.368000   -0.533000
  H     -6.193000    7.386000   -0.189000
  H     -0.332000    5.282000    0.069000
  H     -4.700000    3.074000    0.326000
  H      0.182000    1.072000    0.005000
  H     -0.183000   -1.080000   -0.021000
  H     -5.864000   -4.962000    1.895000
  H     -4.794000    2.272000    0.139000
  H     -4.800000   -2.160000   -1.994000
  H     -6.841000   -3.582000   -1.893000
  H     -8.428000   -4.536000    0.546000
  H     -7.956000   -5.337000   -0.981000
  H     -7.456000   -6.037000    0.584000
  H     -5.287000   -0.344000    0.100000
  H     -3.780000   -3.601000    1.947000
  H      3.587000   -6.868000   -1.843000
  H     -2.276000   -4.774000   -0.050000
  H      3.714000   -3.724000    1.926000
  H      5.092000   -5.795000    1.871000
  H      6.205000   -7.329000   -0.439000
  H      5.393000   -7.917000    1.042000
  H      4.759000   -8.373000   -0.564000
  H      0.329000   -5.290000   -0.008000
  H      2.146000   -4.842000   -1.940000
  H      5.808000    4.986000   -1.956000
  H      4.788000   -2.281000   -0.185000
  H      4.860000    2.114000    1.912000
  H      6.901000    3.531000    1.772000
  H      7.383000    6.109000    0.356000
  H      8.414000    4.652000    0.435000
  H      7.921000    5.310000   -1.150000
  H      5.283000    0.336000   -0.179000
  H      3.720000    3.632000   -1.967000

----------------------------
CARTESIAN COORDINATES (A.U.)
----------------------------
  NO LB      ZA    FRAG     MASS         X           Y           Z
   0 C     6.0000    0    12.011   -9.348475    9.796340    0.427078
   1 C     6.0000    0    12.011    2.785456    7.636383    0.107714
   2 C     6.0000    0    12.011   -5.295013    7.734649    0.092597
   3 C     6.0000    0    12.011   -4.204641   10.136491   -0.192752
   4 C     6.0000    0    12.011   -5.706973   12.268102   -0.154958
   5 C     6.0000    0    12.011   -9.786892   14.409162    0.251334
   6 C     6.0000    0    12.011    0.249444    8.139050    0.115273
   7 C     6.0000    0    12.011   -1.075254    5.775003    0.088817
   8 C     6.0000    0    12.011    3.116158    4.947303    0.043464
   9 C     6.0000    0    12.011   -7.925511    7.609927    0.411960
  10 N     7.0000    0    14.007   -8.239206   12.082909    0.145509
  11 N     7.0000    0    14.007    0.733214    3.906064    0.047243
  12 N     7.0000    0    14.007   -3.798350    0.746442   -0.141729
  13 N     7.0000    0    14.007   -0.733214   -3.919292   -0.051023
  14 N     7.0000    0    14.007    3.798350   -0.757780    0.122832
  15 C     6.0000    0    12.011   -3.703863    5.406506    0.045353
  16 C     6.0000    0    12.011   -4.956752    3.051908   -0.034015
  17 C     6.0000    0    12.011  -10.531444   -8.180624    2.014448
  18 C     6.0000    0    12.011   -7.696855    2.779787    0.105825
  19 C     6.0000    0    12.011   -7.759216   -5.208085   -0.049133
  20 C     6.0000    0    12.011   -9.439182   -5.209975   -2.099486
  21 C     6.0000    0    12.011  -11.587801   -6.693410   -2.033345
  22 C     6.0000    0    12.011  -14.458295   -9.662170    0.075589
  23 C     6.0000    0    12.011   -8.171176    0.266451    0.069920
  24 C     6.0000    0    12.011   -5.716422   -0.982658   -0.090707
  25 C     6.0000    0    12.011   -8.356369   -6.738763    2.031456
  26 N     7.0000    0    14.007  -12.107475   -8.150389    0.001890
  27 C     6.0000    0    12.011   -5.417845   -3.632054   -0.075589
  28 C     6.0000    0    12.011   -3.118048   -4.958641   -0.051023
  29 C     6.0000    0    12.011    6.742543  -11.606698   -1.965315
  30 C     6.0000    0    12.011   -2.789236   -7.651501   -0.064251
  31 C     6.0000    0    12.011    5.296902   -7.745987   -0.015118
  32 C     6.0000    0    12.011    6.910728   -8.284559    2.020117
  33 C     6.0000    0    12.011    8.365818  -10.450186    2.001220
  34 C     6.0000    0    12.011    9.911614  -14.339242    0.026456
  35 C     6.0000    0    12.011   -0.253223   -8.154168   -0.041574
  36 C     6.0000    0    12.011    1.073364   -5.790121   -0.051023
  37 C     6.0000    0    12.011    5.243990   -9.471307   -2.029566
  38 N     7.0000    0    14.007    8.269442  -12.077240    0.032125
  39 C     6.0000    0    12.011    3.701973   -5.421624   -0.017008
  40 C     6.0000    0    12.011    4.952972   -3.065136    0.017008
  41 C     6.0000    0    12.011   10.474752    8.199522   -2.135391
  42 C     6.0000    0    12.011    7.691185   -2.794905   -0.177634
  43 C     6.0000    0    12.011    7.755436    5.198637   -0.039684
  44 C     6.0000    0    12.011    9.499653    5.157063    1.957756
  45 C     6.0000    0    12.011   11.652051    6.631049    1.848152
  46 C     6.0000    0    12.011   14.397823    9.737759   -0.217319
  47 C     6.0000    0    12.011    8.165507   -0.279679   -0.173855
  48 C     6.0000    0    12.011    5.716422    0.971319    0.028346
  49 C     6.0000    0    12.011    8.290229    6.768999   -2.107045
  50 C     6.0000    0    12.011    5.415955    3.620715    0.024566
  51 N     7.0000    0    14.007   12.118814    8.118263   -0.179524
  52 H     1.0000    0     1.008  -11.383710    9.788781    0.644397
  53 H     1.0000    0     1.008    4.297237    9.006435    0.153068
  54 H     1.0000    0     1.008   -2.184523   10.357589   -0.428968
  55 H     1.0000    0     1.008   -4.951082   14.159718   -0.349599
  56 H     1.0000    0     1.008   -9.807679   15.114030    2.190193
  57 H     1.0000    0     1.008   -8.959192   15.813228   -1.007224
  58 H     1.0000    0     1.008  -11.703074   13.957517   -0.357158
  59 H     1.0000    0     1.008   -0.627389    9.981533    0.130391
  60 H     1.0000    0     1.008   -8.881713    5.809018    0.616051
  61 H     1.0000    0     1.008    0.343930    2.025786    0.009449
  62 H     1.0000    0     1.008   -0.345820   -2.040904   -0.039684
  63 H     1.0000    0     1.008  -11.081354   -9.376821    3.581031
  64 H     1.0000    0     1.008   -9.059347    4.293458    0.262672
  65 H     1.0000    0     1.008   -9.070685   -4.081808   -3.768114
  66 H     1.0000    0     1.008  -12.927616   -6.768999   -3.577252
  67 H     1.0000    0     1.008  -15.926612   -8.571798    1.031790
  68 H     1.0000    0     1.008  -15.034661  -10.085468   -1.853821
  69 H     1.0000    0     1.008  -14.089798  -11.408277    1.103600
  70 H     1.0000    0     1.008   -9.990982   -0.650066    0.188973
  71 H     1.0000    0     1.008   -7.143165   -6.804904    3.679297
  72 H     1.0000    0     1.008    6.778448  -12.978639   -3.482765
  73 H     1.0000    0     1.008   -4.301017   -9.021553   -0.094486
  74 H     1.0000    0     1.008    7.018443   -7.037340    3.639613
  75 H     1.0000    0     1.008    9.622485  -10.950963    3.535678
  76 H     1.0000    0     1.008   11.725751  -13.849803   -0.829590
  77 H     1.0000    0     1.008   10.191293  -14.960962    1.969095
  78 H     1.0000    0     1.008    8.993207  -15.822677   -1.065806
  79 H     1.0000    0     1.008    0.621720   -9.996651   -0.015118
  80 H     1.0000    0     1.008    4.055352   -9.150054   -3.666069
  81 H     1.0000    0     1.008   10.975529    9.422175   -3.696304
  82 H     1.0000    0     1.008    9.048009   -4.310465   -0.349599
  83 H     1.0000    0     1.008    9.184069    3.994881    3.613156
  84 H     1.0000    0     1.008   13.041000    6.672623    3.348595
  85 H     1.0000    0     1.008   13.951848   11.544337    0.672743
  86 H     1.0000    0     1.008   15.900156    8.791006    0.822031
  87 H     1.0000    0     1.008   14.968521   10.034446   -2.173185
  88 H     1.0000    0     1.008    9.983423    0.634948   -0.338261
  89 H     1.0000    0     1.008    7.029781    6.863485   -3.717091

--------------------------------
INTERNAL COORDINATES (ANGSTROEM)
--------------------------------
 C      0   0   0     0.000000000000     0.00000000     0.00000000
 C      1   0   0     6.524128370901     0.00000000     0.00000000
 C      1   2   0     2.413013675883    17.06156019     0.00000000
 C      3   1   2     1.403983974268    87.93171023   344.95986456
 C      4   3   1     1.380148180450   120.10590170     0.10559944
 C      5   4   3     2.447691769811   152.58272683     1.74388257
 C      2   1   3     1.368114030335     1.72725751   120.79997260
 C      7   2   4     1.434084376876   108.05010202   162.94975696
 C      2   1   3     1.434123425651   107.13043240   351.42870104
 C      1   2   7     1.380478902410    46.85673204   131.27187271
 N      5   4   3     1.352954175129   120.86467976   359.74133138
 N      9   2   1     1.376127174356   106.58526707     0.64320310
 N     12   9   2     2.925062050624   168.53581413   171.12065651
 N     13  12   9     2.954513327098    91.55032014    11.12112580
 N     14  13  12     2.925371258490    88.43092389   359.84326247
 C      8   7   2     1.404790019896   127.24786865   181.11170171
 C     13  12   9     1.366535034311    81.72106996   188.00453233
 C     14  13  12     5.758810554272    80.56209567   166.76250791
 C     17  13  12     1.459010623676   111.08861209   183.82872609
 C     18  14  13     2.412235892279    27.27532823    36.33507194
 C     20  18  14     1.402692767501    87.95206320   148.94598259
 C     21  20  18     1.382106725257   120.14573887   359.70382047
 C     18  14  13     2.446510985056   144.15733107    82.80075377
 C     19  17  13     1.353610726908   106.29293361   359.75308708
 C     13  12   9     1.366813447402   172.21332906    33.46711076
 C     18  14  13     1.380960173213    15.08449437   309.23336894
 N     22  21  20     1.352773077792   120.73759875     0.27865223
 C     25  13  17     1.410897586645   125.60330303   182.37774668
 C     14  13  12     1.376642291955    80.24689249   177.85461986
 C     14  13  12     5.764089607215   164.51507311   312.20821879
 C     29  14  13     1.435600919476   106.58649366   178.76395472
 C     30  14  13     2.413316804732    27.10625047    82.12560436
 C     32  30  14     1.403734305344    87.90059683   149.76154742
 C     33  32  30     1.380694028378   120.14881443   359.74174632
 C     34  33  32     2.448777858443   152.49203239     2.45173620
 C     31  29  14     1.368160809262   108.16950133     0.70383075
 C     14  13  12     1.376239804685   169.26375223   353.09862627
 C     30  14  13     1.380907310430    14.68948582   353.70041132
 N     34  33  32     1.352658863128   120.85575621     0.19603406
 C     37  14  29     1.404717053360   126.01551127   180.90772073
 C     15  14  13     1.366491126938    81.61824056   183.09049352
 C      2   1   3     4.249062720177   159.62515771   123.33639093
 C     41  15  14     1.459677704153   111.05201287   175.08990246
 C     42   2   1     2.412953791518    41.78584867   201.77322975
 C     44  42   2     1.403446472082    87.95153797   233.97558675
 C     45  44  42     1.381696421071   120.11137308     0.19721020
 C     42   2   1     2.450019795838   135.97209175   112.08807885
 C     43  41  15     1.354461516618   106.26758155     0.30894352
 C     15  14  13     1.367461151185   171.87382904   332.35056460
 C     42   2   1     1.381886391857    32.59078432   250.62850894
 C      9   2   1     1.404988612053   126.98745415   181.64754063
 N     42   2   1     1.352765315936   113.57249190   139.82466804
 H      1   2   7     1.083129724456   168.73268298   154.76175375
 H      2   1   3     1.079907866440   127.65459686   173.21993976
 H      4   3   1     1.082624126833   121.06791725   179.57899519
 H      5   4   3     1.082871183475   122.77595771   179.40689523
 H      6   5   4     1.091753635213   104.45268803    99.95825401
 H      6   5   4     1.089701335229    84.68625165   209.48962954
 H      6   5   4     1.090413224425   133.85600223   322.31989140
 H     55   4   3     0.897882509018   147.58105950   309.90157053
 H     10   1   2     1.084393378807   118.78088595   175.01475244
 H     12   9   2     1.016297692608   125.29023241   180.00180175
 H     14  13  12     1.014936943854    44.97226959   359.42596618
 H     18  14  13     1.082871645210   128.03556573   234.20482432
 H     61  10   1     0.828860060565   151.73926486   141.84561808
 H     21  20  18     1.083569563987   121.05669627   180.67006309
 H     22  21  20     1.082483256222   122.73097286   180.59748951
 H     23  18  14     1.092105306278   103.92715769   234.93429879
 H     23  18  14     1.088871893291   134.19244188    12.25587044
 H     23  18  14     1.089833473518    84.85857450   125.45241208
 H     24  19  17     1.080075460327   127.28078426   178.44613241
 H     26  18  14     1.083408048706   118.76995697   244.94906660
 H     30  14  13     1.082703098730   127.99711412   279.66882698
 H     31  29  14     1.079759695488   125.22293469   180.92530585
 H     33  32  30     1.083188810873   121.01964473   180.74284758
 H     34  33  32     1.082494341787   122.70821597   180.59516895
 H     35  34  33     1.092652735319   105.73575241    97.19771933
 H     35  34  33     1.089462711615    84.05943581   206.43036958
 H     35  34  33     1.089268102902   133.08365142   318.50306270
 H     36  31  29     1.079439669458   126.61599965   178.98859863
 H     38  30  73     1.083742127999   118.77264435   359.90091293
 H     42   2   1     1.082178358682   119.31790784   356.45619850
 H     43  41  15     1.080281907652   126.36969097   182.06329380
 H     45  44  42     1.083277434455   121.10105945   179.58025624
 H     46  45  44     1.082194529648   122.72144639   179.46906377
 H     47  42   2     1.091546151109   106.65128841   315.16475048
 H     47  42   2     1.088818625851   132.46019523    94.52397119
 H     47  42   2     1.089531091801    83.63838232   206.04504406
 H     48  43  41     1.080402239909   127.23657387   181.62955349
 H     50  42   2     1.083186502870   118.77001737    94.71359229

---------------------------
INTERNAL COORDINATES (A.U.)
---------------------------
 C      0   0   0     0.000000000000     0.00000000     0.00000000
 C      1   0   0    12.328815883549     0.00000000     0.00000000
 C      1   2   0     4.559935004826    17.06156019     0.00000000
 C      3   1   2     2.653145207780    87.93171023   344.95986456
 C      4   3   1     2.608102085281   120.10590170     0.10559944
 C      5   4   3     4.625467105196   152.58272683     1.74388257
 C      2   1   3     2.585360837309     1.72725751   120.79997260
 C      7   2   4     2.710026725231   108.05010202   162.94975696
 C      2   1   3     2.710100516721   107.13043240   351.42870104
 C      1   2   7     2.608727059212    46.85673204   131.27187271
 N      5   4   3     2.556712862740   120.86467976   359.74133138
 N      9   2   1     2.600503484979   106.58526707     0.64320310
 N     12   9   2     5.527566200405   168.53581413   171.12065651
 N     13  12   9     5.583221047236    91.55032014    11.12112580
 N     14  13  12     5.528150518591    88.43092389   359.84326247
 C      8   7   2     2.654668413270   127.24786865   181.11170171
 C     13  12   9     2.582376967257    81.72106996   188.00453233
 C     14  13  12    10.882574804710    80.56209567   166.76250791
 C     17  13  12     2.757130505230   111.08861209   183.82872609
 C     18  14  13     4.558465206823    27.27532823    36.33507194
 C     20  18  14     2.650705180609    87.95206320   148.94598259
 C     21  20  18     2.611803198586   120.14573887   359.70382047
 C     18  14  13     4.623235745386   144.15733107    82.80075377
 C     19  17  13     2.557953565794   106.29293361   359.75308708
 C     13  12   9     2.582903091751   172.21332906    33.46711076
 C     18  14  13     2.609636529225    15.08449437   309.23336894
 N     22  21  20     2.556370638369   120.73759875     0.27865223
 C     25  13  17     2.666210041769   125.60330303   182.37774668
 C     14  13  12     2.601476916169    80.24689249   177.85461986
 C     14  13  12    10.892550769017   164.51507311   312.20821879
 C     29  14  13     2.712892575415   106.58649366   178.76395472
 C     30  14  13     4.560507835333    27.10625047    82.12560436
 C     32  30  14     2.652673401891    87.90059683   149.76154742
 C     33  32  30     2.609133588376   120.14881443   359.74174632
 C     34  33  32     4.627519515267   152.49203239     2.45173620
 C     31  29  14     2.585449236669   108.16950133     0.70383075
 C     14  13  12     2.600716325456   169.26375223   353.09862627
 C     30  14  13     2.609536633043    14.68948582   353.70041132
 N     34  33  32     2.556154803934   120.85575621     0.19603406
 C     37  14  29     2.654530526499   126.01551127   180.90772073
 C     15  14  13     2.582293994346    81.61824056   183.09049352
 C      2   1   3     8.029564866989   159.62515771   123.33639093
 C     41  15  14     2.758391104639   111.05201287   175.08990246
 C     42   2   1     4.559821839776    41.78584867   201.77322975
 C     44  42   2     2.652129475853    87.95153797   233.97558675
 C     45  44  42     2.611027836043   120.11137308     0.19721020
 C     42   2   1     4.629866436820   135.97209175   112.08807885
 C     43  41  15     2.559561325344   106.26758155     0.30894352
 C     15  14  13     2.584127074516   171.87382904   332.35056460
 C     42   2   1     2.611386828803    32.59078432   250.62850894
 C      9   2   1     2.655043698059   126.98745415   181.64754063
 N     42   2   1     2.556355970587   113.57249190   139.82466804
 H      1   2   7     2.046818546731   168.73268298   154.76175375
 H      2   1   3     2.040730117440   127.65459686   173.21993976
 H      4   3   1     2.045863105689   121.06791725   179.57899519
 H      5   4   3     2.046329975082   122.77595771   179.40689523
 H      6   5   4     2.063115376265   104.45268803    99.95825401
 H      6   5   4     2.059237091351    84.68625165   209.48962954
 H      6   5   4     2.060582366968   133.85600223   322.31989140
 H     55   4   3     1.696752042482   147.58105950   309.90157053
 H     10   1   2     2.049206507382   118.78088595   175.01475244
 H     12   9   2     1.920524309565   125.29023241   180.00180175
 H     14  13  12     1.917952867083    44.97226959   359.42596618
 H     18  14  13     2.046330847636   128.03556573   234.20482432
 H     61  10   1     1.566318517813   151.73926486   141.84561808
 H     21  20  18     2.047649722989   121.05669627   180.67006309
 H     22  21  20     2.045596898814   122.73097286   180.59748951
 H     23  18  14     2.063779938267   103.92715769   234.93429879
 H     23  18  14     2.057669673245   134.19244188    12.25587044
 H     23  18  14     2.059486796529    84.85857450   125.45241208
 H     24  19  17     2.041046823986   127.28078426   178.44613241
 H     26  18  14     2.047344503340   118.76995697   244.94906660
 H     30  14  13     2.046012340948   127.99711412   279.66882698
 H     31  29  14     2.040450114918   125.22293469   180.92530585
 H     33  32  30     2.046930203877   121.01964473   180.74284758
 H     34  33  32     2.045617847496   122.70821597   180.59516895
 H     35  34  33     2.064814429233   105.73575241    97.19771933
 H     35  34  33     2.058786158072    84.05943581   206.43036958
 H     35  34  33     2.058418400901   133.08365142   318.50306270
 H     36  31  29     2.039845353366   126.61599965   178.98859863
 H     38  30  73     2.047975821711   118.77264435   359.90091293
 H     42   2   1     2.045020725966   119.31790784   356.45619850
 H     43  41  15     2.041436952892   126.36969097   182.06329380
 H     45  44  42     2.047097678177   121.10105945   179.58025624
 H     46  45  44     2.045051284662   122.72144639   179.46906377
 H     47  42   2     2.062723288131   106.65128841   315.16475048
 H     47  42   2     2.057569012371   132.46019523    94.52397119
 H     47  42   2     2.058915377895    83.63838232   206.04504406
 H     48  43  41     2.041664347903   127.23657387   181.62955349
 H     50  42   2     2.046925842384   118.77001737    94.71359229

---------------------
BASIS SET INFORMATION
---------------------
There are 3 groups of distinct atoms

 Group   1 Type C   : 17s4p1d contracted to 3s2p1d pattern {881/31/1}
 Group   2 Type N   : 17s4p1d contracted to 3s2p1d pattern {881/31/1}
 Group   3 Type H   : 4s1p contracted to 2s1p pattern {31/1}

Atom   0C    basis set group =>   1
Atom   1N    basis set group =>   2
Atom   2C    basis set group =>   1
Atom   3N    basis set group =>   2
Atom   4C    basis set group =>   1
Atom   5N    basis set group =>   2
Atom   6C    basis set group =>   1
Atom   7N    basis set group =>   2
Atom   8C    basis set group =>   1
Atom   9N    basis set group =>   2
Atom  10C    basis set group =>   1
Atom  11N    basis set group =>   2
Atom  12C    basis set group =>   1
Atom  13N    basis set group =>   2
Atom  14C    basis set group =>   1
Atom  15N    basis set group =>   2
Atom  16C    basis set group =>   1
Atom  17C    basis set group =>   1
Atom  18C    basis set group =>   1
Atom  19C    basis set group =>   1
Atom  20C    basis set group =>   1
Atom  21C    basis set group =>   1
Atom  22C    basis set group =>   1
Atom  23C    basis set group =>   1
Atom  24C    basis set group =>   1
Atom  25C    basis set group =>   1
Atom  26C    basis set group =>   1
Atom  27C    basis set group =>   1
Atom  28C    basis set group =>   1
Atom  29C    basis set group =>   1
Atom  30C    basis set group =>   1
Atom  31C    basis set group =>   1
Atom  32C    basis set group =>   1
Atom  33C    basis set group =>   1
Atom  34C    basis set group =>   1
Atom  35C    basis set group =>   1
Atom  36C    basis set group =>   1
Atom  37C    basis set group =>   1
Atom  38C    basis set group =>   1
Atom  39C    basis set group =>   1
Atom  40C    basis set group =>   1
Atom  41C    basis set group =>   1
Atom  42C    basis set group =>   1
Atom  43C    basis set group =>   1
Atom  44C    basis set group =>   1
Atom  45C    basis set group =>   1
Atom  46C    basis set group =>   1
Atom  47C    basis set group =>   1
Atom  48C    basis set group =>   1
Atom  49C    basis set group =>   1
Atom  50C    basis set group =>   1
Atom  51C    basis set group =>   1
Atom  52H    basis set group =>   3
Atom  53H    basis set group =>   3
Atom  54H    basis set group =>   3
Atom  55H    basis set group =>   3
Atom  56H    basis set group =>   3
Atom  57H    basis set group =>   3
Atom  58H    basis set group =>   3
Atom  59H    basis set group =>   3
Atom  60H    basis set group =>   3
Atom  61H    basis set group =>   3
Atom  62H    basis set group =>   3
Atom  63H    basis set group =>   3
Atom  64H    basis set group =>   3
Atom  65H    basis set group =>   3
Atom  66H    basis set group =>   3
Atom  67H    basis set group =>   3
Atom  68H    basis set group =>   3
Atom  69H    basis set group =>   3
Atom  70H    basis set group =>   3
Atom  71H    basis set group =>   3
Atom  72H    basis set group =>   3
Atom  73H    basis set group =>   3
Atom  74H    basis set group =>   3
Atom  75H    basis set group =>   3
Atom  76H    basis set group =>   3
Atom  77H    basis set group =>   3
Atom  78H    basis set group =>   3
Atom  79H    basis set group =>   3
Atom  80H    basis set group =>   3
Atom  81H    basis set group =>   3
Atom  82H    basis set group =>   3
Atom  83H    basis set group =>   3
Atom  84H    basis set group =>   3
Atom  85H    basis set group =>   3
Atom  86H    basis set group =>   3
Atom  87H    basis set group =>   3
Atom  88H    basis set group =>   3
Atom  89H    basis set group =>   3


           ************************************************************
           *        Program running with 16 parallel MPI-processes    *
           *              working on a common directory               *
           ************************************************************
------------------------------------------------------------------------------
                           ORCA GTO INTEGRAL CALCULATION
------------------------------------------------------------------------------
------------------------------------------------------------------------------
                   ___                                                        
                  /   \      - P O W E R E D   B Y -                         
                 /     \                                                     
                 |  |  |   _    _      __       _____    __    __             
                 |  |  |  | |  | |    /  \     |  _  \  |  |  /  |          
                  \  \/   | |  | |   /    \    | | | |  |  | /  /          
                 / \  \   | |__| |  /  /\  \   | |_| |  |  |/  /          
                |  |  |   |  __  | /  /__\  \  |    /   |      \           
                |  |  |   | |  | | |   __   |  |    \   |  |\   \          
                \     /   | |  | | |  |  |  |  | |\  \  |  | \   \       
                 \___/    |_|  |_| |__|  |__|  |_| \__\ |__|  \__/        
                                                                              
                      - O R C A' S   B I G   F R I E N D -                    
                                      &                                       
                       - I N T E G R A L  F E E D E R -                       
                                                                              
 v1 FN, 2020, v2 2021                                                         
------------------------------------------------------------------------------


Reading SHARK input file /scratch/allen/tmpyp4_amber_gaff2/conf1/conf1/Conf190.orca.SHARKINP.tmp ... ok
----------------------
SHARK INTEGRAL PACKAGE
----------------------

Number of atoms                             ...     90
Number of basis functions                   ...   1230
Number of shells                            ...    738
Maximum angular momentum                    ...      2
Integral batch strategy                     ... SHARK/LIBINT Hybrid
RI-J (if used) integral strategy            ... SPLIT-RIJ (Revised 2003 algorithm where possible)
Printlevel                                  ...      1
Contraction scheme used                     ... PARTIAL GENERAL contraction
Coulomb Range Separation                    ... NOT USED
Exchange Range Separation                   ... NOT USED
Finite Nucleus Model                        ... NOT USED
Auxiliary Coulomb fitting basis             ... NOT available
Auxiliary J/K fitting basis                 ... NOT available
Auxiliary Correlation fitting basis         ... NOT available
Auxiliary 'external' fitting basis          ... NOT available
Integral threshold                          ...     2.500000e-11
Primitive cut-off                           ...     2.500000e-12
Primitive pair pre-selection threshold      ...     2.500000e-12

Calculating pre-screening integrals         ... done (  0.1 sec) Dimension = 738
Calculating pre-screening integrals (ORCA)  ... done (  0.3 sec) Dimension = 426
Organizing shell pair data                  ... done (  0.7 sec)
Shell pair information
Total number of shell pairs                 ...    272691
Shell pairs after pre-screening             ...     71732
Total number of primitive shell pairs       ...    422091
Primitive shell pairs kept                  ...     92636
          la=0 lb=0:  29440 shell pairs
          la=1 lb=0:  26037 shell pairs
          la=1 lb=1:   4699 shell pairs
          la=2 lb=0:   7897 shell pairs
          la=2 lb=1:   3130 shell pairs
          la=2 lb=2:    529 shell pairs

Calculating one electron integrals          ... done (  0.2 sec)
Calculating Nuclear repulsion               ... done (  0.0 sec) ENN=   6235.523839712778 Eh

SHARK setup successfully completed in   2.2 seconds

Maximum memory used throughout the entire GTOINT-calculation: 99.1 MB


           ************************************************************
           *        Program running with 16 parallel MPI-processes    *
           *              working on a common directory               *
           ************************************************************
-------------------------------------------------------------------------------
                                 ORCA SCF
-------------------------------------------------------------------------------

------------
SCF SETTINGS
------------
Hamiltonian:
 Ab initio Hamiltonian  Method          .... Hartree-Fock(GTOs)


General Settings:
 Integral files         IntName         .... /scratch/allen/tmpyp4_amber_gaff2/conf1/conf1/Conf190.orca
 Hartree-Fock type      HFTyp           .... RHF
 Total Charge           Charge          ....    0
 Multiplicity           Mult            ....    1
 Number of Electrons    NEL             ....  358
 Basis Dimension        Dim             ....  918
 Nuclear Repulsion      ENuc            ....   6235.5238397128 Eh

Convergence Acceleration:
 DIIS                   CNVDIIS         .... on
   Start iteration      DIISMaxIt       ....    12
   Startup error        DIISStart       ....  0.200000
   # of expansion vecs  DIISMaxEq       ....     5
   Bias factor          DIISBfac        ....   1.050
   Max. coefficient     DIISMaxC        ....  10.000
 Trust-Rad. Augm. Hess. CNVTRAH         .... auto
   Auto Start mean grad. ratio tolernc. ....  1.125000
   Auto Start start iteration           ....    20
   Auto Start num. interpolation iter.  ....    10
   Max. Number of Micro iterations      ....    16
   Max. Number of Macro iterations      .... Maxiter - #DIIS iter
   Number of Davidson start vectors     ....     2
   Converg. threshold I  (grad. norm)   ....   1.000e-05
   Converg. threshold II (energy diff.) ....   1.000e-08
   Grad. Scal. Fac. for Micro threshold ....   0.100
   Minimum threshold for Micro iter.    ....   0.010
   NR start threshold (gradient norm)   ....   0.001
   Initial trust radius                 ....   0.400
   Minimum AH scaling param. (alpha)    ....   1.000
   Maximum AH scaling param. (alpha)    .... 1000.000
   Orbital update algorithm             .... Taylor
   White noise on init. David. guess    .... on
   Maximum white noise                  ....   0.010
   Quad. conv. algorithm                .... NR
 SOSCF                  CNVSOSCF        .... on
   Start iteration      SOSCFMaxIt      ....   150
   Startup grad/error   SOSCFStart      ....  0.003300
 Level Shifting         CNVShift        .... on
   Level shift para.    LevelShift      ....    0.2500
   Turn off err/grad.   ShiftErr        ....    0.0010
 Zerner damping         CNVZerner       .... off
 Static damping         CNVDamp         .... on
   Fraction old density DampFac         ....    0.7000
   Max. Damping (<1)    DampMax         ....    0.9800
   Min. Damping (>=0)   DampMin         ....    0.0000
   Turn off err/grad.   DampErr         ....    0.1000
 Fernandez-Rico         CNVRico         .... off

SCF Procedure:
 Maximum # iterations   MaxIter         ....   125
 SCF integral mode      SCFMode         .... Direct
   Integral package                     .... SHARK and LIBINT hybrid scheme
 Reset frequency        DirectResetFreq ....    20
 Integral Threshold     Thresh          ....  2.500e-11 Eh
 Primitive CutOff       TCut            ....  2.500e-12 Eh

Convergence Tolerance:
 Convergence Check Mode ConvCheckMode   .... Total+1el-Energy
 Convergence forced     ConvForced      .... 1
 Energy Change          TolE            ....  1.000e-08 Eh
 1-El. energy change                    ....  1.000e-05 Eh
 Orbital Gradient       TolG            ....  1.000e-05
 Orbital Rotation angle TolX            ....  1.000e-05
 DIIS Error             TolErr          ....  5.000e-07


Diagonalization of the overlap matrix:
Smallest eigenvalue                        ... 1.710e-04
Time for diagonalization                   ...    0.424 sec
Threshold for overlap eigenvalues          ... 1.000e-08
Number of eigenvalues below threshold      ... 0
Time for construction of square roots      ...    0.269 sec
Total time needed                          ...    0.700 sec

Time for model grid setup =    1.289 sec

------------------------------
INITIAL GUESS: MODEL POTENTIAL
------------------------------
Loading Hartree-Fock densities                     ... done
Calculating cut-offs                               ... done
Initializing the effective Hamiltonian             ... done
Setting up the integral package (SHARK)            ... done
Starting the Coulomb interaction                   ... done (   1.5 sec)
Reading the grid                                   ... done
Mapping shells                                     ... done
Starting the XC term evaluation                    ... done (   0.2 sec)
Transforming the Hamiltonian                       ... done (   0.3 sec)
Diagonalizing the Hamiltonian                      ... done (   0.4 sec)
Back transforming the eigenvectors                 ... done (   0.1 sec)
Now organizing SCF variables                       ... done
                      ------------------
                      INITIAL GUESS DONE (   3.8 sec)
                      ------------------
--------------
SCF ITERATIONS
--------------
ITER       Energy         Delta-E        Max-DP      RMS-DP      [F,P]     Damp
               ***  Starting incremental Fock matrix formation  ***
  0  -2121.5703650550   0.000000000000 0.07459601  0.00130384  0.2311037 0.7000
  1  -2122.2095389706  -0.639173915530 0.06793419  0.00106332  0.1434502 0.7000
                               ***Turning on DIIS***
  2  -2122.6088557353  -0.399316764766 0.13290603  0.00240347  0.0803238 0.0000
  3  -2118.0449657984   4.563889936921 0.09659562  0.00074038  0.0433984 0.0000
  4  -2123.3130081839  -5.268042385536 0.02867969  0.00024149  0.0093611 0.0000
  5  -2123.4361286367  -0.123120452708 0.01272878  0.00013715  0.0048213 0.0000
  6  -2123.4200468318   0.016081804852 0.00734137  0.00008695  0.0022670 0.0000
  7  -2123.5117125655  -0.091665733678 0.00421251  0.00006769  0.0016357 0.0000
  8  -2123.5174213502  -0.005708784720 0.00333805  0.00006443  0.0015344 0.0000
  9  -2123.4914876012   0.025933748984 0.00268636  0.00004602  0.0012365 0.0000
 10  -2123.4987710928  -0.007283491614 0.00541905  0.00009636  0.0009715 0.0000
                      *** Initiating the SOSCF procedure ***
                           *** Shutting down DIIS ***
                      *** Re-Reading the Fockian *** 
                      *** Removing any level shift *** 
ITER      Energy       Delta-E        Grad      Rot      Max-DP    RMS-DP
 11  -2123.39365998   0.1051111144  0.000186  0.000186  0.000249  0.000005
               *** Restarting incremental Fock matrix formation ***
 12  -2123.45917341  -0.0655134307  0.000940  0.006292  0.001507  0.000035
 13  -2123.45928542  -0.0001120134  0.001145  0.031192  0.006871  0.000137
 14  -2123.45946941  -0.0001839857  0.000403  0.002069  0.000629  0.000013
 15  -2123.45948457  -0.0000151600  0.000175  0.002042  0.000481  0.000012
 16  -2123.45949091  -0.0000063431  0.000134  0.002052  0.000502  0.000008
 17  -2123.45949344  -0.0000025253  0.000119  0.001778  0.000284  0.000007
 18  -2123.45949453  -0.0000010974  0.000057  0.000898  0.000205  0.000004
 19  -2123.45949518  -0.0000006421  0.000043  0.001417  0.000227  0.000005
 20  -2123.45949559  -0.0000004116  0.000024  0.000815  0.000118  0.000003
 21  -2123.45949577  -0.0000001788  0.000026  0.001046  0.000150  0.000003
 22  -2123.45949595  -0.0000001801  0.000020  0.000993  0.000153  0.000003
 23  -2123.45949606  -0.0000001167  0.000015  0.000408  0.000069  0.000001
 24  -2123.45949611  -0.0000000450  0.000008  0.000298  0.000051  0.000001
 25  -2123.45949613  -0.0000000262  0.000008  0.000125  0.000039  0.000001
 26  -2123.45949615  -0.0000000114  0.000006  0.000077  0.000029  0.000000
 27  -2123.45949615   0.0000000011  0.000003  0.000058  0.000019  0.000000
                  ***Gradient check signals convergence***
              ***Rediagonalizing the Fockian in SOSCF/NRSCF***

               *****************************************************
               *                     SUCCESS                       *
               *           SCF CONVERGED AFTER  28 CYCLES          *
               *****************************************************


----------------
TOTAL SCF ENERGY
----------------

Total Energy       :        -2123.45949615 Eh          -57782.27048 eV

Components:
Nuclear Repulsion  :         6235.52383971 Eh          169677.22990 eV
Electronic Energy  :        -8358.98333586 Eh         -227459.50039 eV
One Electron Energy:       -15311.46680147 Eh         -416646.19355 eV
Two Electron Energy:         6952.48346561 Eh          189186.69316 eV

Virial components:
Potential Energy   :        -4246.07545729 Eh         -115541.58721 eV
Kinetic Energy     :         2122.61596115 Eh           57759.31673 eV
Virial Ratio       :            2.00039740


---------------
SCF CONVERGENCE
---------------

  Last Energy change         ...   -2.5648e-10  Tolerance :   1.0000e-08
  Last MAX-Density change    ...    9.4552e-06  Tolerance :   1.0000e-07
  Last RMS-Density change    ...    1.7940e-07  Tolerance :   5.0000e-09
  Last Orbital Gradient      ...    1.7092e-06  Tolerance :   1.0000e-05
  Last Orbital Rotation      ...    4.1215e-05  Tolerance :   1.0000e-05

             **** THE GBW FILE WAS UPDATED (/scratch/allen/tmpyp4_amber_gaff2/conf1/conf1/Conf190.orca.gbw) ****
             **** DENSITY /scratch/allen/tmpyp4_amber_gaff2/conf1/conf1/Conf190.orca.scfp WAS UPDATED ****
             **** ENERGY FILE WAS UPDATED (/scratch/allen/tmpyp4_amber_gaff2/conf1/conf1/Conf190.orca.en.tmp) ****
             **** THE GBW FILE WAS UPDATED (/scratch/allen/tmpyp4_amber_gaff2/conf1/conf1/Conf190.orca.gbw) ****
             **** DENSITY /scratch/allen/tmpyp4_amber_gaff2/conf1/conf1/Conf190.orca.scfp WAS UPDATED ****
----------------
ORBITAL ENERGIES
----------------

  NO   OCC          E(Eh)            E(eV) 
   0   2.0000     -15.679876      -426.6711 
   1   2.0000     -15.633736      -425.4156 
   2   2.0000     -15.632034      -425.3693 
   3   2.0000     -15.588071      -424.1730 
   4   2.0000     -15.525050      -422.4581 
   5   2.0000     -15.515508      -422.1984 
   6   2.0000     -15.453766      -420.5184 
   7   2.0000     -15.439519      -420.1307 
   8   2.0000     -11.329469      -308.2905 
   9   2.0000     -11.328433      -308.2623 
  10   2.0000     -11.327972      -308.2498 
  11   2.0000     -11.299187      -307.4665 
  12   2.0000     -11.298496      -307.4477 
  13   2.0000     -11.292846      -307.2940 
  14   2.0000     -11.291379      -307.2540 
  15   2.0000     -11.286713      -307.1271 
  16   2.0000     -11.286285      -307.1154 
  17   2.0000     -11.282107      -307.0017 
  18   2.0000     -11.269634      -306.6623 
  19   2.0000     -11.263378      -306.4921 
  20   2.0000     -11.262385      -306.4651 
  21   2.0000     -11.250606      -306.1445 
  22   2.0000     -11.248775      -306.0947 
  23   2.0000     -11.237512      -305.7883 
  24   2.0000     -11.236799      -305.7689 
  25   2.0000     -11.230969      -305.6102 
  26   2.0000     -11.230243      -305.5905 
  27   2.0000     -11.229878      -305.5805 
  28   2.0000     -11.229711      -305.5760 
  29   2.0000     -11.211039      -305.0679 
  30   2.0000     -11.209537      -305.0270 
  31   2.0000     -11.194165      -304.6087 
  32   2.0000     -11.192059      -304.5514 
  33   2.0000     -11.191333      -304.5316 
  34   2.0000     -11.188412      -304.4522 
  35   2.0000     -11.188145      -304.4449 
  36   2.0000     -11.186965      -304.4128 
  37   2.0000     -11.174626      -304.0770 
  38   2.0000     -11.172439      -304.0175 
  39   2.0000     -11.172222      -304.0116 
  40   2.0000     -11.170789      -303.9726 
  41   2.0000     -11.168373      -303.9069 
  42   2.0000     -11.168286      -303.9045 
  43   2.0000     -11.161864      -303.7298 
  44   2.0000     -11.161023      -303.7069 
  45   2.0000     -11.156666      -303.5883 
  46   2.0000     -11.156502      -303.5839 
  47   2.0000     -11.151316      -303.4427 
  48   2.0000     -11.146920      -303.3231 
  49   2.0000     -11.135376      -303.0090 
  50   2.0000     -11.129763      -302.8563 
  51   2.0000     -11.117854      -302.5322 
  52   2.0000      -1.360442       -37.0195 
  53   2.0000      -1.321016       -35.9467 
  54   2.0000      -1.319791       -35.9133 
  55   2.0000      -1.280178       -34.8354 
  56   2.0000      -1.226140       -33.3650 
  57   2.0000      -1.210410       -32.9369 
  58   2.0000      -1.173444       -31.9310 
  59   2.0000      -1.150765       -31.3139 
  60   2.0000      -1.143676       -31.1210 
  61   2.0000      -1.110255       -30.2116 
  62   2.0000      -1.108946       -30.1760 
  63   2.0000      -1.082117       -29.4459 
  64   2.0000      -1.077420       -29.3181 
  65   2.0000      -1.045209       -28.4416 
  66   2.0000      -1.044433       -28.4205 
  67   2.0000      -1.041123       -28.3304 
  68   2.0000      -1.014896       -27.6167 
  69   2.0000      -1.014682       -27.6109 
  70   2.0000      -1.009148       -27.4603 
  71   2.0000      -0.993533       -27.0354 
  72   2.0000      -0.985621       -26.8201 
  73   2.0000      -0.981821       -26.7167 
  74   2.0000      -0.973884       -26.5007 
  75   2.0000      -0.962225       -26.1835 
  76   2.0000      -0.954787       -25.9811 
  77   2.0000      -0.946590       -25.7580 
  78   2.0000      -0.939119       -25.5547 
  79   2.0000      -0.916799       -24.9474 
  80   2.0000      -0.910635       -24.7796 
  81   2.0000      -0.898103       -24.4386 
  82   2.0000      -0.877165       -23.8689 
  83   2.0000      -0.872152       -23.7325 
  84   2.0000      -0.870917       -23.6989 
  85   2.0000      -0.861241       -23.4356 
  86   2.0000      -0.845059       -22.9952 
  87   2.0000      -0.837876       -22.7998 
  88   2.0000      -0.829055       -22.5597 
  89   2.0000      -0.796424       -21.6718 
  90   2.0000      -0.789194       -21.4751 
  91   2.0000      -0.773052       -21.0358 
  92   2.0000      -0.753073       -20.4922 
  93   2.0000      -0.734024       -19.9738 
  94   2.0000      -0.728051       -19.8113 
  95   2.0000      -0.726374       -19.7656 
  96   2.0000      -0.720336       -19.6013 
  97   2.0000      -0.717765       -19.5314 
  98   2.0000      -0.713995       -19.4288 
  99   2.0000      -0.699562       -19.0361 
 100   2.0000      -0.698353       -19.0031 
 101   2.0000      -0.694451       -18.8970 
 102   2.0000      -0.685421       -18.6513 
 103   2.0000      -0.684357       -18.6223 
 104   2.0000      -0.678895       -18.4737 
 105   2.0000      -0.674488       -18.3537 
 106   2.0000      -0.672796       -18.3077 
 107   2.0000      -0.660843       -17.9824 
 108   2.0000      -0.658221       -17.9111 
 109   2.0000      -0.652801       -17.7636 
 110   2.0000      -0.652140       -17.7456 
 111   2.0000      -0.646242       -17.5852 
 112   2.0000      -0.645712       -17.5707 
 113   2.0000      -0.638049       -17.3622 
 114   2.0000      -0.635680       -17.2977 
 115   2.0000      -0.628655       -17.1066 
 116   2.0000      -0.623111       -16.9557 
 117   2.0000      -0.620839       -16.8939 
 118   2.0000      -0.613013       -16.6809 
 119   2.0000      -0.612155       -16.6576 
 120   2.0000      -0.611803       -16.6480 
 121   2.0000      -0.611433       -16.6379 
 122   2.0000      -0.601475       -16.3670 
 123   2.0000      -0.589089       -16.0299 
 124   2.0000      -0.581523       -15.8240 
 125   2.0000      -0.580864       -15.8061 
 126   2.0000      -0.580353       -15.7922 
 127   2.0000      -0.571133       -15.5413 
 128   2.0000      -0.566748       -15.4220 
 129   2.0000      -0.559925       -15.2363 
 130   2.0000      -0.555498       -15.1159 
 131   2.0000      -0.547870       -14.9083 
 132   2.0000      -0.542782       -14.7698 
 133   2.0000      -0.540450       -14.7064 
 134   2.0000      -0.538755       -14.6603 
 135   2.0000      -0.536189       -14.5905 
 136   2.0000      -0.531830       -14.4718 
 137   2.0000      -0.518477       -14.1085 
 138   2.0000      -0.516751       -14.0615 
 139   2.0000      -0.514532       -14.0011 
 140   2.0000      -0.511871       -13.9287 
 141   2.0000      -0.510116       -13.8810 
 142   2.0000      -0.507653       -13.8139 
 143   2.0000      -0.505390       -13.7524 
 144   2.0000      -0.502442       -13.6722 
 145   2.0000      -0.495771       -13.4906 
 146   2.0000      -0.488414       -13.2904 
 147   2.0000      -0.481432       -13.1004 
 148   2.0000      -0.476764       -12.9734 
 149   2.0000      -0.467700       -12.7268 
 150   2.0000      -0.466279       -12.6881 
 151   2.0000      -0.456364       -12.4183 
 152   2.0000      -0.451465       -12.2850 
 153   2.0000      -0.445085       -12.1114 
 154   2.0000      -0.438233       -11.9249 
 155   2.0000      -0.427724       -11.6390 
 156   2.0000      -0.409345       -11.1388 
 157   2.0000      -0.391298       -10.6478 
 158   2.0000      -0.389015       -10.5856 
 159   2.0000      -0.387499       -10.5444 
 160   2.0000      -0.378364       -10.2958 
 161   2.0000      -0.373321       -10.1586 
 162   2.0000      -0.362201        -9.8560 
 163   2.0000      -0.356554        -9.7023 
 164   2.0000      -0.355946        -9.6858 
 165   2.0000      -0.341814        -9.3012 
 166   2.0000      -0.337602        -9.1866 
 167   2.0000      -0.324642        -8.8340 
 168   2.0000      -0.321725        -8.7546 
 169   2.0000      -0.305345        -8.3089 
 170   2.0000      -0.299312        -8.1447 
 171   2.0000      -0.285890        -7.7795 
 172   2.0000      -0.278378        -7.5751 
 173   2.0000      -0.263511        -7.1705 
 174   2.0000      -0.242113        -6.5882 
 175   2.0000      -0.190027        -5.1709 
 176   2.0000      -0.181328        -4.9342 
 177   2.0000      -0.080050        -2.1783 
 178   2.0000      -0.059700        -1.6245 
 179   0.0000       0.028404         0.7729 
 180   0.0000       0.065355         1.7784 
 181   0.0000       0.090213         2.4548 
 182   0.0000       0.106216         2.8903 
 183   0.0000       0.116441         3.1685 
 184   0.0000       0.137045         3.7292 
 185   0.0000       0.139408         3.7935 
 186   0.0000       0.140917         3.8346 
 187   0.0000       0.164297         4.4707 
 188   0.0000       0.165209         4.4956 
 189   0.0000       0.165574         4.5055 
 190   0.0000       0.174463         4.7474 
 191   0.0000       0.180336         4.9072 
 192   0.0000       0.183757         5.0003 
 193   0.0000       0.189233         5.1493 
 194   0.0000       0.204925         5.5763 
 195   0.0000       0.205496         5.5918 
 196   0.0000       0.208353         5.6696 
 197   0.0000       0.208539         5.6746 
 198   0.0000       0.216521         5.8918 
 199   0.0000       0.228702         6.2233 
 200   0.0000       0.233108         6.3432 
 201   0.0000       0.233818         6.3625 
 202   0.0000       0.238988         6.5032 
 203   0.0000       0.239721         6.5232 
 204   0.0000       0.246183         6.6990 
 205   0.0000       0.255009         6.9392 
 206   0.0000       0.256360         6.9759 
 207   0.0000       0.257421         7.0048 
 208   0.0000       0.259269         7.0551 
 209   0.0000       0.260854         7.0982 
 210   0.0000       0.264339         7.1930 
 211   0.0000       0.267082         7.2677 
 212   0.0000       0.268384         7.3031 
 213   0.0000       0.269659         7.3378 
 214   0.0000       0.273166         7.4332 
 215   0.0000       0.276431         7.5221 
 216   0.0000       0.279085         7.5943 
 217   0.0000       0.282364         7.6835 
 218   0.0000       0.285458         7.7677 
 219   0.0000       0.287684         7.8283 
 220   0.0000       0.288718         7.8564 
 221   0.0000       0.292638         7.9631 
 222   0.0000       0.294483         8.0133 
 223   0.0000       0.296805         8.0765 
 224   0.0000       0.297306         8.0901 
 225   0.0000       0.301802         8.2124 
 226   0.0000       0.305455         8.3119 
 227   0.0000       0.307841         8.3768 
 228   0.0000       0.317806         8.6479 
 229   0.0000       0.324737         8.8365 
 230   0.0000       0.327674         8.9165 
 231   0.0000       0.334710         9.1079 
 232   0.0000       0.343842         9.3564 
 233   0.0000       0.356945         9.7130 
 234   0.0000       0.369996        10.0681 
 235   0.0000       0.373442        10.1619 
 236   0.0000       0.383818        10.4442 
 237   0.0000       0.390194        10.6177 
 238   0.0000       0.397389        10.8135 
 239   0.0000       0.401428        10.9234 
 240   0.0000       0.406864        11.0713 
 241   0.0000       0.411149        11.1879 
 242   0.0000       0.415198        11.2981 
 243   0.0000       0.417722        11.3668 
 244   0.0000       0.429525        11.6880 
 245   0.0000       0.434055        11.8112 
 246   0.0000       0.440328        11.9819 
 247   0.0000       0.441670        12.0184 
 248   0.0000       0.442331        12.0364 
 249   0.0000       0.449625        12.2349 
 250   0.0000       0.454472        12.3668 
 251   0.0000       0.458611        12.4794 
 252   0.0000       0.466522        12.6947 
 253   0.0000       0.468128        12.7384 
 254   0.0000       0.472389        12.8544 
 255   0.0000       0.474214        12.9040 
 256   0.0000       0.474913        12.9230 
 257   0.0000       0.482222        13.1219 
 258   0.0000       0.489150        13.3104 
 259   0.0000       0.494872        13.4662 
 260   0.0000       0.503704        13.7065 
 261   0.0000       0.505289        13.7496 
 262   0.0000       0.506016        13.7694 
 263   0.0000       0.513056        13.9610 
 264   0.0000       0.515825        14.0363 
 265   0.0000       0.521026        14.1778 
 266   0.0000       0.522783        14.2256 
 267   0.0000       0.528438        14.3795 
 268   0.0000       0.535090        14.5605 
 269   0.0000       0.541505        14.7351 
 270   0.0000       0.550873        14.9900 
 271   0.0000       0.553220        15.0539 
 272   0.0000       0.558527        15.1983 
 273   0.0000       0.561402        15.2765 
 274   0.0000       0.565407        15.3855 
 275   0.0000       0.567790        15.4503 
 276   0.0000       0.573413        15.6034 
 277   0.0000       0.575048        15.6479 
 278   0.0000       0.581063        15.8115 
 279   0.0000       0.586665        15.9640 
 280   0.0000       0.590744        16.0750 
 281   0.0000       0.593675        16.1547 
 282   0.0000       0.595191        16.1960 
 283   0.0000       0.595987        16.2176 
 284   0.0000       0.598066        16.2742 
 285   0.0000       0.603066        16.4103 
 286   0.0000       0.605093        16.4654 
 287   0.0000       0.610683        16.6175 
 288   0.0000       0.617013        16.7898 
 289   0.0000       0.624030        16.9807 
 290   0.0000       0.624933        17.0053 
 291   0.0000       0.629792        17.1375 
 292   0.0000       0.633732        17.2447 
 293   0.0000       0.636635        17.3237 
 294   0.0000       0.646951        17.6044 
 295   0.0000       0.649190        17.6654 
 296   0.0000       0.654292        17.8042 
 297   0.0000       0.656444        17.8628 
 298   0.0000       0.661719        18.0063 
 299   0.0000       0.665432        18.1073 
 300   0.0000       0.670707        18.2509 
 301   0.0000       0.675605        18.3841 
 302   0.0000       0.677817        18.4443 
 303   0.0000       0.680448        18.5159 
 304   0.0000       0.682774        18.5792 
 305   0.0000       0.685226        18.6460 
 306   0.0000       0.689519        18.7628 
 307   0.0000       0.694411        18.8959 
 308   0.0000       0.695814        18.9341 
 309   0.0000       0.700704        19.0671 
 310   0.0000       0.702991        19.1294 
 311   0.0000       0.705189        19.1892 
 312   0.0000       0.706781        19.2325 
 313   0.0000       0.711157        19.3516 
 314   0.0000       0.711773        19.3683 
 315   0.0000       0.716576        19.4990 
 316   0.0000       0.716962        19.5095 
 317   0.0000       0.718385        19.5482 
 318   0.0000       0.723534        19.6884 
 319   0.0000       0.727340        19.7919 
 320   0.0000       0.728134        19.8135 
 321   0.0000       0.728398        19.8207 
 322   0.0000       0.731422        19.9030 
 323   0.0000       0.733085        19.9483 
 324   0.0000       0.736297        20.0356 
 325   0.0000       0.742550        20.2058 
 326   0.0000       0.745620        20.2893 
 327   0.0000       0.746695        20.3186 
 328   0.0000       0.752545        20.4778 
 329   0.0000       0.754433        20.5292 
 330   0.0000       0.757068        20.6009 
 331   0.0000       0.762062        20.7368 
 332   0.0000       0.766304        20.8522 
 333   0.0000       0.768042        20.8995 
 334   0.0000       0.771238        20.9865 
 335   0.0000       0.776085        21.1183 
 336   0.0000       0.780478        21.2379 
 337   0.0000       0.782789        21.3008 
 338   0.0000       0.785372        21.3711 
 339   0.0000       0.790139        21.5008 
 340   0.0000       0.792381        21.5618 
 341   0.0000       0.795188        21.6382 
 342   0.0000       0.799621        21.7588 
 343   0.0000       0.804195        21.8833 
 344   0.0000       0.806542        21.9471 
 345   0.0000       0.808989        22.0137 
 346   0.0000       0.810592        22.0573 
 347   0.0000       0.813226        22.1290 
 348   0.0000       0.816032        22.2054 
 349   0.0000       0.818046        22.2602 
 350   0.0000       0.818915        22.2838 
 351   0.0000       0.823858        22.4183 
 352   0.0000       0.824201        22.4276 
 353   0.0000       0.827693        22.5227 
 354   0.0000       0.830362        22.5953 
 355   0.0000       0.833347        22.6765 
 356   0.0000       0.835967        22.7478 
 357   0.0000       0.836264        22.7559 
 358   0.0000       0.839416        22.8417 
 359   0.0000       0.839774        22.8514 
 360   0.0000       0.841955        22.9107 
 361   0.0000       0.842531        22.9264 
 362   0.0000       0.846214        23.0266 
 363   0.0000       0.849184        23.1075 
 364   0.0000       0.854829        23.2611 
 365   0.0000       0.855473        23.2786 
 366   0.0000       0.859902        23.3991 
 367   0.0000       0.863744        23.5037 
 368   0.0000       0.867300        23.6004 
 369   0.0000       0.868191        23.6247 
 370   0.0000       0.872224        23.7344 
 371   0.0000       0.875693        23.8288 
 372   0.0000       0.877231        23.8707 
 373   0.0000       0.877492        23.8778 
 374   0.0000       0.880466        23.9587 
 375   0.0000       0.884194        24.0601 
 376   0.0000       0.889545        24.2058 
 377   0.0000       0.891643        24.2628 
 378   0.0000       0.892550        24.2875 
 379   0.0000       0.893109        24.3027 
 380   0.0000       0.897309        24.4170 
 381   0.0000       0.898819        24.4581 
 382   0.0000       0.900974        24.5167 
 383   0.0000       0.902896        24.5691 
 384   0.0000       0.906448        24.6657 
 385   0.0000       0.907885        24.7048 
 386   0.0000       0.908541        24.7227 
 387   0.0000       0.912024        24.8174 
 388   0.0000       0.916353        24.9352 
 389   0.0000       0.919412        25.0185 
 390   0.0000       0.922503        25.1026 
 391   0.0000       0.926340        25.2070 
 392   0.0000       0.928630        25.2693 
 393   0.0000       0.929248        25.2861 
 394   0.0000       0.930233        25.3129 
 395   0.0000       0.935867        25.4662 
 396   0.0000       0.936166        25.4744 
 397   0.0000       0.939127        25.5549 
 398   0.0000       0.944587        25.7035 
 399   0.0000       0.948654        25.8142 
 400   0.0000       0.949066        25.8254 
 401   0.0000       0.953588        25.9485 
 402   0.0000       0.955429        25.9986 
 403   0.0000       0.957937        26.0668 
 404   0.0000       0.961227        26.1563 
 405   0.0000       0.962587        26.1933 
 406   0.0000       0.971315        26.4308 
 407   0.0000       0.979350        26.6495 
 408   0.0000       0.982768        26.7425 
 409   0.0000       0.986948        26.8562 
 410   0.0000       0.988830        26.9074 
 411   0.0000       0.994119        27.0513 
 412   0.0000       0.999583        27.2000 
 413   0.0000       1.006694        27.3935 
 414   0.0000       1.012212        27.5437 
 415   0.0000       1.012574        27.5535 
 416   0.0000       1.018978        27.7278 
 417   0.0000       1.022960        27.8362 
 418   0.0000       1.031840        28.0778 
 419   0.0000       1.033283        28.1171 
 420   0.0000       1.036780        28.2122 
 421   0.0000       1.040170        28.3045 
 422   0.0000       1.044309        28.4171 
 423   0.0000       1.053871        28.6773 
 424   0.0000       1.063815        28.9479 
 425   0.0000       1.070042        29.1173 
 426   0.0000       1.074021        29.2256 
 427   0.0000       1.077481        29.3197 
 428   0.0000       1.079733        29.3810 
 429   0.0000       1.087784        29.6001 
 430   0.0000       1.089950        29.6591 
 431   0.0000       1.094222        29.7753 
 432   0.0000       1.099775        29.9264 
 433   0.0000       1.104664        30.0594 
 434   0.0000       1.106884        30.1199 
 435   0.0000       1.112629        30.2762 
 436   0.0000       1.115636        30.3580 
 437   0.0000       1.119360        30.4593 
 438   0.0000       1.121073        30.5059 
 439   0.0000       1.123775        30.5795 
 440   0.0000       1.127529        30.6816 
 441   0.0000       1.129235        30.7281 
 442   0.0000       1.133840        30.8534 
 443   0.0000       1.137233        30.9457 
 444   0.0000       1.138851        30.9897 
 445   0.0000       1.144319        31.1385 
 446   0.0000       1.146148        31.1883 
 447   0.0000       1.149867        31.2895 
 448   0.0000       1.154953        31.4279 
 449   0.0000       1.158964        31.5370 
 450   0.0000       1.160200        31.5706 
 451   0.0000       1.163022        31.6475 
 452   0.0000       1.167354        31.7653 
 453   0.0000       1.170049        31.8387 
 454   0.0000       1.173263        31.9261 
 455   0.0000       1.175730        31.9932 
 456   0.0000       1.183789        32.2125 
 457   0.0000       1.190534        32.3961 
 458   0.0000       1.195783        32.5389 
 459   0.0000       1.197728        32.5918 
 460   0.0000       1.203044        32.7365 
 461   0.0000       1.207037        32.8452 
 462   0.0000       1.208099        32.8741 
 463   0.0000       1.210319        32.9345 
 464   0.0000       1.212760        33.0009 
 465   0.0000       1.216832        33.1117 
 466   0.0000       1.221723        33.2448 
 467   0.0000       1.228981        33.4423 
 468   0.0000       1.230437        33.4819 
 469   0.0000       1.234116        33.5820 
 470   0.0000       1.235373        33.6162 
 471   0.0000       1.238031        33.6885 
 472   0.0000       1.242517        33.8106 
 473   0.0000       1.244159        33.8553 
 474   0.0000       1.247169        33.9372 
 475   0.0000       1.249406        33.9981 
 476   0.0000       1.251368        34.0515 
 477   0.0000       1.252138        34.0724 
 478   0.0000       1.260558        34.3015 
 479   0.0000       1.262756        34.3613 
 480   0.0000       1.264746        34.4155 
 481   0.0000       1.267488        34.4901 
 482   0.0000       1.270376        34.5687 
 483   0.0000       1.274517        34.6814 
 484   0.0000       1.280395        34.8413 
 485   0.0000       1.281557        34.8729 
 486   0.0000       1.286176        34.9986 
 487   0.0000       1.289909        35.1002 
 488   0.0000       1.292550        35.1721 
 489   0.0000       1.294583        35.2274 
 490   0.0000       1.300228        35.3810 
 491   0.0000       1.304604        35.5001 
 492   0.0000       1.308166        35.5970 
 493   0.0000       1.311659        35.6921 
 494   0.0000       1.316302        35.8184 
 495   0.0000       1.319922        35.9169 
 496   0.0000       1.321746        35.9666 
 497   0.0000       1.325096        36.0577 
 498   0.0000       1.328955        36.1627 
 499   0.0000       1.335044        36.3284 
 500   0.0000       1.337232        36.3879 
 501   0.0000       1.341597        36.5067 
 502   0.0000       1.342976        36.5442 
 503   0.0000       1.344634        36.5893 
 504   0.0000       1.348217        36.6869 
 505   0.0000       1.350414        36.7466 
 506   0.0000       1.351868        36.7862 
 507   0.0000       1.359682        36.9988 
 508   0.0000       1.360267        37.0147 
 509   0.0000       1.364274        37.1238 
[...]
      px      :     0.043615
      py      :     0.014046
 77 H s       :     0.884454  s :     0.884454
      pz      :     0.047982  p :     0.079297
      px      :     0.015024
      py      :     0.016291
 78 H s       :     0.884797  s :     0.884797
      pz      :     0.025886  p :     0.079269
      px      :     0.020454
      py      :     0.032929
 79 H s       :     0.910815  s :     0.910815
      pz      :     0.021802  p :     0.086300
      px      :     0.021656
      py      :     0.042843
 80 H s       :     0.864315  s :     0.864315
      pz      :     0.039397  p :     0.084840
      px      :     0.030292
      py      :     0.015152
 81 H s       :     0.886747  s :     0.886747
      pz      :     0.037830  p :     0.084128
      px      :     0.016178
      py      :     0.030121
 82 H s       :     0.916072  s :     0.916072
      pz      :     0.021958  p :     0.086728
      px      :     0.031655
      py      :     0.033114
 83 H s       :     0.873328  s :     0.873328
      pz      :     0.039283  p :     0.084108
      px      :     0.015274
      py      :     0.029552
 84 H s       :     0.886605  s :     0.886605
      pz      :     0.035774  p :     0.083426
      px      :     0.031698
      py      :     0.015954
 85 H s       :     0.892754  s :     0.892754
      pz      :     0.022492  p :     0.079789
      px      :     0.014066
      py      :     0.043231
 86 H s       :     0.890944  s :     0.890944
      pz      :     0.024732  p :     0.078832
      px      :     0.032984
      py      :     0.021116
 87 H s       :     0.889801  s :     0.889801
      pz      :     0.048020  p :     0.078745
      px      :     0.015586
      py      :     0.015139
 88 H s       :     0.910560  s :     0.910560
      pz      :     0.021616  p :     0.087015
      px      :     0.042942
      py      :     0.022457
 89 H s       :     0.871088  s :     0.871088
      pz      :     0.037960  p :     0.083859
      px      :     0.030506
      py      :     0.015392


                      *****************************
                      * MAYER POPULATION ANALYSIS *
                      *****************************

  NA   - Mulliken gross atomic population
  ZA   - Total nuclear charge
  QA   - Mulliken gross atomic charge
  VA   - Mayer's total valence
  BVA  - Mayer's bonded valence
  FA   - Mayer's free valence

  ATOM       NA         ZA         QA         VA         BVA        FA
  0 C      5.7816     6.0000     0.2184     3.8502     3.8502    -0.0000
  1 N      7.4558     7.0000    -0.4558     3.3479     3.3479    -0.0000
  2 C      6.0720     6.0000    -0.0720     3.9224     3.9224     0.0000
  3 N      7.3417     7.0000    -0.3417     3.4541     3.4541    -0.0000
  4 C      6.0981     6.0000    -0.0981     4.1550     4.1550    -0.0000
  5 N      7.5685     7.0000    -0.5685     3.0958     3.0958     0.0000
  6 C      6.1074     6.0000    -0.1074     3.9371     3.9371     0.0000
  7 N      7.3410     7.0000    -0.3410     3.4323     3.4323     0.0000
  8 C      5.7786     6.0000     0.2214     3.8527     3.8527     0.0000
  9 N      7.5624     7.0000    -0.5624     3.0769     3.0769     0.0000
 10 C      5.8805     6.0000     0.1195     3.9090     3.9090     0.0000
 11 N      7.4385     7.0000    -0.4385     3.3779     3.3779     0.0000
 12 C      6.0474     6.0000    -0.0474     3.8246     3.8246     0.0000
 13 N      7.4293     7.0000    -0.4293     3.4286     3.4286    -0.0000
 14 C      5.7843     6.0000     0.2157     3.8065     3.8065    -0.0000
 15 N      7.4409     7.0000    -0.4409     3.3728     3.3728    -0.0000
 16 C      5.7667     6.0000     0.2333     3.7762     3.7762    -0.0000
 17 C      6.0992     6.0000    -0.0992     3.9321     3.9321    -0.0000
 18 C      6.1795     6.0000    -0.1795     3.7506     3.7506    -0.0000
 19 C      5.7858     6.0000     0.2142     3.8814     3.8814    -0.0000
 20 C      5.7863     6.0000     0.2137     3.8292     3.8292     0.0000
 21 C      6.0573     6.0000    -0.0573     3.7955     3.7955    -0.0000
 22 C      6.0909     6.0000    -0.0909     3.9826     3.9826     0.0000
 23 C      6.0395     6.0000    -0.0395     3.9927     3.9927     0.0000
 24 C      5.8067     6.0000     0.1933     3.8210     3.8210     0.0000
 25 C      5.8854     6.0000     0.1146     3.8917     3.8917     0.0000
 26 C      6.0849     6.0000    -0.0849     3.9083     3.9083    -0.0000
 27 C      5.7818     6.0000     0.2182     3.8625     3.8625     0.0000
 28 C      6.0619     6.0000    -0.0619     3.9886     3.9886     0.0000
 29 C      6.1821     6.0000    -0.1821     3.7472     3.7472     0.0000
 30 C      5.7546     6.0000     0.2454     3.8010     3.8010    -0.0000
 31 C      5.7696     6.0000     0.2304     3.8170     3.8170    -0.0000
 32 C      6.0614     6.0000    -0.0614     3.9232     3.9232    -0.0000
 33 C      6.0600     6.0000    -0.0600     3.9711     3.9711    -0.0000
 34 C      6.0512     6.0000    -0.0512     3.9833     3.9833    -0.0000
 35 C      5.7713     6.0000     0.2287     3.8164     3.8164    -0.0000
 36 C      5.8918     6.0000     0.1082     3.8746     3.8746     0.0000
 37 C      6.0645     6.0000    -0.0645     3.9177     3.9177    -0.0000
 38 C      5.7688     6.0000     0.2312     3.8012     3.8012    -0.0000
 39 C      6.0576     6.0000    -0.0576     3.9830     3.9830     0.0000
 40 C      6.1817     6.0000    -0.1817     3.7262     3.7262    -0.0000
 41 C      5.7739     6.0000     0.2261     3.8878     3.8878    -0.0000
 42 C      5.8027     6.0000     0.1973     3.8256     3.8256    -0.0000
 43 C      6.0726     6.0000    -0.0726     3.8999     3.8999    -0.0000
 44 C      6.0894     6.0000    -0.0894     3.9850     3.9850     0.0000
 45 C      6.0616     6.0000    -0.0616     3.9919     3.9919     0.0000
 46 C      5.7881     6.0000     0.2119     3.8284     3.8284    -0.0000
 47 C      5.8847     6.0000     0.1153     3.8928     3.8928     0.0000
 48 C      6.0666     6.0000    -0.0666     3.9096     3.9096     0.0000
 49 C      5.7615     6.0000     0.2385     3.8946     3.8946     0.0000
 50 C      6.0462     6.0000    -0.0462     3.9903     3.9903    -0.0000
 51 C      6.1932     6.0000    -0.1932     3.7372     3.7372     0.0000
 52 H      0.9666     1.0000     0.0334     0.9856     0.9856     0.0000
 53 H      1.0182     1.0000    -0.0182     0.9991     0.9991    -0.0000
 54 H      0.9574     1.0000     0.0426     0.9988     0.9988     0.0000
 55 H      0.9670     1.0000     0.0330     0.9861     0.9861     0.0000
 56 H      0.9505     1.0000     0.0495     0.9695     0.9695    -0.0000
 57 H      0.9531     1.0000     0.0469     0.9824     0.9824    -0.0000
 58 H      0.9527     1.0000     0.0473     0.9847     0.9847    -0.0000
 59 H      1.0187     1.0000    -0.0187     0.9912     0.9912     0.0000
 60 H      0.9419     1.0000     0.0581     0.9734     0.9734     0.0000
 61 H      0.8288     1.0000     0.1712     1.0423     1.0423    -0.0000
 62 H      0.8245     1.0000     0.1755     1.0437     1.0437     0.0000
 63 H      0.9448     1.0000     0.0552     0.9853     0.9853     0.0000
 64 H      1.0416     1.0000    -0.0416     0.9752     0.9752    -0.0000
 65 H      0.9529     1.0000     0.0471     1.0100     1.0100    -0.0000
 66 H      0.9445     1.0000     0.0555     0.9855     0.9855     0.0000
 67 H      0.9377     1.0000     0.0623     0.9719     0.9719    -0.0000
 68 H      0.9428     1.0000     0.0572     0.9868     0.9868    -0.0000
 69 H      0.9437     1.0000     0.0563     0.9828     0.9828    -0.0000
 70 H      1.0309     1.0000    -0.0309     0.9943     0.9943    -0.0000
 71 H      0.9553     1.0000     0.0447     1.0059     1.0059     0.0000
 72 H      0.9285     1.0000     0.0715     0.9835     0.9835    -0.0000
 73 H      1.0079     1.0000    -0.0079     1.0010     1.0010    -0.0000
 74 H      0.9394     1.0000     0.0606     1.0101     1.0101    -0.0000
 75 H      0.9291     1.0000     0.0709     0.9838     0.9838    -0.0000
 76 H      0.9249     1.0000     0.0751     0.9721     0.9721    -0.0000
 77 H      0.9319     1.0000     0.0681     0.9855     0.9855     0.0000
 78 H      0.9326     1.0000     0.0674     0.9854     0.9854    -0.0000
 79 H      1.0168     1.0000    -0.0168     0.9974     0.9974    -0.0000
 80 H      0.9385     1.0000     0.0615     1.0072     1.0072    -0.0000
 81 H      0.9455     1.0000     0.0545     0.9856     0.9856    -0.0000
 82 H      1.0250     1.0000    -0.0250     0.9934     0.9934    -0.0000
 83 H      0.9579     1.0000     0.0421     1.0082     1.0082    -0.0000
 84 H      0.9456     1.0000     0.0544     0.9852     0.9852    -0.0000
 85 H      0.9390     1.0000     0.0610     0.9716     0.9716    -0.0000
 86 H      0.9444     1.0000     0.0556     0.9839     0.9839    -0.0000
 87 H      0.9427     1.0000     0.0573     0.9857     0.9857    -0.0000
 88 H      1.0144     1.0000    -0.0144     0.9968     0.9968     0.0000
 89 H      0.9531     1.0000     0.0469     1.0077     1.0077    -0.0000

  Mayer bond orders larger than 0.100000
B(  0-C ,  1-N ) :   1.0931 B(  0-C , 17-C ) :   1.7308 B(  0-C , 52-H ) :   0.9599 
B(  1-N ,  8-C ) :   1.0995 B(  1-N , 10-C ) :   0.9771 B(  2-C , 12-C ) :   1.4850 
B(  2-C , 16-C ) :   1.3761 B(  2-C , 53-H ) :   0.9712 B(  3-N , 14-C ) :   1.2233 
B(  3-N , 16-C ) :   1.1783 B(  3-N , 61-H ) :   0.8982 B(  4-C ,  6-C ) :   1.2245 
B(  4-C , 17-C ) :   1.2226 B(  4-C , 18-C ) :   1.4820 B(  5-N , 19-C ) :   1.4638 
B(  5-N , 27-C ) :   1.3684 B(  6-C ,  8-C ) :   1.7209 B(  6-C , 54-H ) :   0.8759 
B(  7-N , 30-C ) :   1.1950 B(  7-N , 38-C ) :   1.1897 B(  7-N , 62-H ) :   0.8967 
B(  8-C , 55-H ) :   0.9612 B(  9-N , 41-C ) :   1.3946 B(  9-N , 49-C ) :   1.4247 
B( 10-C , 56-H ) :   0.9777 B( 10-C , 57-H ) :   0.9824 B( 10-C , 58-H ) :   0.9838 
B( 11-N , 20-C ) :   1.1312 B( 11-N , 24-C ) :   1.1064 B( 11-N , 25-C ) :   0.9603 
B( 12-C , 14-C ) :   1.3599 B( 12-C , 59-H ) :   0.9147 B( 13-N , 31-C ) :   1.1618 
B( 13-N , 35-C ) :   1.1608 B( 13-N , 36-C ) :   0.9412 B( 14-C , 18-C ) :   1.1170 
B( 15-N , 42-C ) :   1.1079 B( 15-N , 46-C ) :   1.1249 B( 15-N , 47-C ) :   0.9611 
B( 16-C , 51-C ) :   1.1675 B( 17-C , 60-H ) :   0.8561 B( 18-C , 19-C ) :   1.1156 
B( 19-C , 21-C ) :   1.2541 B( 20-C , 28-C ) :   1.6289 B( 20-C , 63-H ) :   0.9703 
B( 21-C , 26-C ) :   1.5788 B( 21-C , 64-H ) :   0.8941 B( 22-C , 23-C ) :   1.2894 
B( 22-C , 28-C ) :   1.2633 B( 22-C , 29-C ) :   1.2258 B( 23-C , 24-C ) :   1.6203 
B( 23-C , 65-H ) :   0.9703 B( 24-C , 66-H ) :   0.9695 B( 25-C , 67-H ) :   0.9761 
B( 25-C , 68-H ) :   0.9828 B( 25-C , 69-H ) :   0.9823 B( 26-C , 27-C ) :   1.2657 
B( 26-C , 70-H ) :   0.9662 B( 27-C , 29-C ) :   1.2064 B( 28-C , 71-H ) :   0.9720 
B( 29-C , 30-C ) :   1.2473 B( 30-C , 32-C ) :   1.2786 B( 31-C , 39-C ) :   1.5873 
B( 31-C , 72-H ) :   0.9681 B( 32-C , 37-C ) :   1.5802 B( 32-C , 73-H ) :   0.9786 
B( 33-C , 34-C ) :   1.3072 B( 33-C , 39-C ) :   1.3044 B( 33-C , 40-C ) :   1.1757 
B( 34-C , 35-C ) :   1.5850 B( 34-C , 74-H ) :   0.9696 B( 35-C , 75-H ) :   0.9681 
B( 36-C , 76-H ) :   0.9768 B( 36-C , 77-H ) :   0.9816 B( 36-C , 78-H ) :   0.9823 
B( 37-C , 38-C ) :   1.2846 B( 37-C , 79-H ) :   0.9764 B( 38-C , 40-C ) :   1.2342 
B( 39-C , 80-H ) :   0.9705 B( 40-C , 41-C ) :   1.2505 B( 41-C , 43-C ) :   1.1842 
B( 42-C , 50-C ) :   1.6327 B( 42-C , 81-H ) :   0.9696 B( 43-C , 48-C ) :   1.6687 
B( 43-C , 82-H ) :   0.9721 B( 44-C , 45-C ) :   1.2637 B( 44-C , 50-C ) :   1.2729 
B( 44-C , 51-C ) :   1.2605 B( 45-C , 46-C ) :   1.6342 B( 45-C , 83-H ) :   0.9718 
B( 46-C , 84-H ) :   0.9700 B( 47-C , 85-H ) :   0.9762 B( 47-C , 86-H ) :   0.9829 
B( 47-C , 87-H ) :   0.9824 B( 48-C , 49-C ) :   1.1876 B( 48-C , 88-H ) :   0.9748 
B( 49-C , 51-C ) :   1.2455 B( 50-C , 89-H ) :   0.9708 B( 60-H , 64-H ) :   0.1247 


-------
TIMINGS
-------

Total SCF time: 0 days 0 hours 28 min 25 sec 

Total time                  ....    1705.978 sec
Sum of individual times     ....    1701.224 sec  ( 99.7%)

Fock matrix formation       ....    1673.321 sec  ( 98.1%)
Diagonalization             ....       8.867 sec  (  0.5%)
Density matrix formation    ....       0.531 sec  (  0.0%)
Population analysis         ....       0.587 sec  (  0.0%)
Initial guess               ....       2.554 sec  (  0.1%)
Orbital Transformation      ....       0.000 sec  (  0.0%)
Orbital Orthonormalization  ....       0.000 sec  (  0.0%)
DIIS solution               ....       3.953 sec  (  0.2%)
SOSCF solution              ....      10.120 sec  (  0.6%)

Maximum memory used throughout the entire SCF-calculation: 302.7 MB


           ************************************************************
           *        Program running with 16 parallel MPI-processes    *
           *              working on a common directory               *
           ************************************************************

------------------------------------------------------------------------------
                                ORCA  MP2 
------------------------------------------------------------------------------

Freezing NCore=104 chemical core electrons

----------
MP2 ENERGY (disk based algorithm)
----------

Dimension of the basis                    ...  918
Memory devoted to MP2                     ... 2000 MB   
Data format for buffers                   ... DOUBLE
Compression type for matrix containers    ... UNCOMPRESSED

-------------------------------
PARTIAL EXCHANGE TRANSFORMATION
-------------------------------

Transformation type                        ... one-operator
Generation of integrals (i,mue|j,nue)      ... ON
Generation of integrals (mue,kappa|nue,tau)... OFF
Generation of integrals (i,mue|a,nue)      ... OFF
Dimension of the basis                     ...  918
Number of internal MOs                     ...  127 (  52- 178)
Pair cutoff                                ... 2.500e-12 Eh
Number of AO pairs in the trafo            ... 421821
Total Number of distinct AO pairs          ... 421821
Memory devoted for trafo                   ... 2000.0 MB 
Max. Number of MO pairs treated together   ...  311      
Number Format for Storage                  ... Double (8 Byte)
Integral package used                      ... LIBINT

Starting integral evaluation:
    ... done with AO integral generation
Closing buffer AOK     (38.24 GB; CompressionRatio= 1.33)
Collecting buffer AOK 
Number of MO pairs included in the trafo   ... 8128
------------------------
SORTING OF (i,mue|j,nue)
------------------------

IBATCH = 1 of  2
IBATCH = 2 of  2
Closing buffer KAO     (51.03 GB; CompressionRatio= 1.00)
Collecting buffer KAO 
N(AO-Batches) Done                         ...  86113921 
N(AO-Batches) Skipped                      ...  82428818 
N(IJ)-pairs Skipped                        ...         0 
TOTAL TIME for half transformation         ...  2303.134 sec
AO-integral generation                     ...   209.990 sec
Half transformation                        ...   424.841 sec
K-integral sorting                         ...  1447.729 sec

Finished integral transformation - now doing MP2 part

OPERATOR COMBINATION   0   0: ij=( 52..178, 52..178)
Process 10:   Internal MO 132
Process 13:   Internal MO 156
Process  4:   Internal MO  84
Process  7:   Internal MO 108
Process  1:   Internal MO  60
Process  0:   Internal MO  54
Process  0:   Internal MO  57
Process  2:   Internal MO  69
Process  1:   Internal MO  63
Process  3:   Internal MO  78
Process  5:   Internal MO  93
Process  2:   Internal MO  72
Process  8:   Internal MO 117
Process  1:   Internal MO  66
Process 11:   Internal MO 141
Process  6:   Internal MO 102
Process 14:   Internal MO 165
Process  2:   Internal MO  75
Process  4:   Internal MO  87
Process  3:   Internal MO  81
Process  9:   Internal MO 126
Process  5:   Internal MO  96
Process 12:   Internal MO 150
Process  4:   Internal MO  90
Process 15:   Internal MO 174
Process 10:   Internal MO 135
Process  6:   Internal MO 105
Process  7:   Internal MO 111
Process  8:   Internal MO 120
Process 13:   Internal MO 159
Process  5:   Internal MO  99
Process  9:   Internal MO 129
Process 11:   Internal MO 144
Process  7:   Internal MO 114
Process 12:   Internal MO 153
Process 14:   Internal MO 168
Process  8:   Internal MO 123
Process 10:   Internal MO 138
Process 15:   Internal MO 177
Process 13:   Internal MO 162
Process 11:   Internal MO 147
Process 14:   Internal MO 171
-----------------------------------------------
 MP2 CORRELATION ENERGY   :     -7.292618173 Eh
-----------------------------------------------


-------
TIMINGS
-------
Total time                : 2588.866 sec
Integral trafo            : 2305.514 sec ( 89.1%)
K(i,j)                    :    5.927 sec (  0.2%)
T(i,j)                    :    0.074 sec (  0.0%)

---------------------------------------
MP2 TOTAL ENERGY:    -2130.752114318 Eh
---------------------------------------

Maximum memory used throughout the entire MP2-calculation: 2275.3 MB

-------------------------   --------------------
FINAL SINGLE POINT ENERGY     -2130.752114318019
-------------------------   --------------------


                            ***************************************
                            *     ORCA property calculations      *
                            ***************************************


  WARNING: The energy has been calculated at the MP2 level but the densities
           used in the property calculations are still SCF densities
           MP2 response densities have not been calculated 
           use %mp2 Density relaxed end
           or  %mp2 Density unrelaxed end

                                    ---------------------
                                    Active property flags
                                    ---------------------
   (+) Dipole Moment


------------------------------------------------------------------------------
                       ORCA ELECTRIC PROPERTIES CALCULATION
------------------------------------------------------------------------------

Dipole Moment Calculation                       ... on
Quadrupole Moment Calculation                   ... off
Polarizability Calculation                      ... off
GBWName                                         ... /scratch/allen/tmpyp4_amber_gaff2/conf1/conf1/Conf190.orca.gbw
Electron density                                ... /scratch/allen/tmpyp4_amber_gaff2/conf1/conf1/Conf190.orca.scfp
The origin for moment calculation is the CENTER OF MASS  = ( 0.003218, -0.001868 -0.000102)

-------------
DIPOLE MOMENT
-------------
                                X             Y             Z
Electronic contribution:      2.76481      -4.36014      -0.19071
Nuclear contribution   :      0.06881       0.23215       0.19137
                        -----------------------------------------
Total Dipole Moment    :      2.83362      -4.12799       0.00066
                        -----------------------------------------
Magnitude (a.u.)       :      5.00696
Magnitude (Debye)      :     12.72668



--------------------
Rotational spectrum 
--------------------
 
Rotational constants in cm-1:     0.001501     0.001480     0.000760 
Rotational constants in MHz :    45.011544    44.357277    22.781565 

 Dipole components along the rotational axes: 
x,y,z [a.u.] :     3.504439     3.576110     0.001848 
x,y,z [Debye]:     8.907577     9.089749     0.004698 

 

Timings for individual modules:

Sum of individual times         ...     4317.319 sec (=  71.955 min)
GTO integral calculation        ...        3.424 sec (=   0.057 min)   0.1 %
SCF iterations                  ...     1707.172 sec (=  28.453 min)  39.5 %
MP2 module                      ...     2606.723 sec (=  43.445 min)  60.4 %
                             ****ORCA TERMINATED NORMALLY****
TOTAL RUN TIME: 0 days 1 hours 12 minutes 0 seconds 632 msec
# of primitive gaussian functions

