
                                 *****************
                                 * O   R   C   A *
                                 *****************

                                            #,                                       
                                            ###                                      
                                            ####                                     
                                            #####                                    
                                            ######                                   
                                           ########,                                 
                                     ,,################,,,,,                         
                               ,,#################################,,                 
                          ,,##########################################,,             
                       ,#########################################, ''#####,          
                    ,#############################################,,   '####,        
                  ,##################################################,,,,####,       
                ,###########''''           ''''###############################       
              ,#####''   ,,,,##########,,,,          '''####'''          '####       
            ,##' ,,,,###########################,,,                        '##       
           ' ,,###''''                  '''############,,,                           
         ,,##''                                '''############,,,,        ,,,,,,###''
      ,#''                                            '''#######################'''  
     '                                                          ''''####''''         
             ,#######,   #######,   ,#######,      ##                                
            ,#'     '#,  ##    ##  ,#'     '#,    #''#        ######   ,####,        
            ##       ##  ##   ,#'  ##            #'  '#       #        #'  '#        
            ##       ##  #######   ##           ,######,      #####,   #    #        
            '#,     ,#'  ##    ##  '#,     ,#' ,#      #,         ##   #,  ,#        
             '#######'   ##     ##  '#######'  #'      '#     #####' # '####'        



                  #######################################################
                  #                        -***-                        #
                  #          Department of theory and spectroscopy      #
                  #    Directorship and core code : Frank Neese         #
                  #        Max Planck Institute fuer Kohlenforschung    #
                  #                Kaiser Wilhelm Platz 1               #
                  #                 D-45470 Muelheim/Ruhr               #
                  #                      Germany                        #
                  #                                                     #
                  #                  All rights reserved                #
                  #                        -***-                        #
                  #######################################################


                         Program Version 5.0.4 -  RELEASE  -


 With contributions from (in alphabetic order):
   Daniel Aravena         : Magnetic Suceptibility
   Michael Atanasov       : Ab Initio Ligand Field Theory (pilot matlab implementation)
   Alexander A. Auer      : GIAO ZORA, VPT2 properties, NMR spectrum
   Ute Becker             : Parallelization
   Giovanni Bistoni       : ED, misc. LED, open-shell LED, HFLD
   Martin Brehm           : Molecular dynamics
   Dmytro Bykov           : SCF Hessian
   Vijay G. Chilkuri      : MRCI spin determinant printing, contributions to CSF-ICE
   Dipayan Datta          : RHF DLPNO-CCSD density
   Achintya Kumar Dutta   : EOM-CC, STEOM-CC
   Dmitry Ganyushin       : Spin-Orbit,Spin-Spin,Magnetic field MRCI
   Miquel Garcia          : C-PCM and meta-GGA Hessian, CC/C-PCM, Gaussian charge scheme
   Yang Guo               : DLPNO-NEVPT2, F12-NEVPT2, CIM, IAO-localization
   Andreas Hansen         : Spin unrestricted coupled pair/coupled cluster methods
   Benjamin Helmich-Paris : MC-RPA, TRAH-SCF, COSX integrals
   Lee Huntington         : MR-EOM, pCC
   Robert Izsak           : Overlap fitted RIJCOSX, COSX-SCS-MP3, EOM
   Marcus Kettner         : VPT2
   Christian Kollmar      : KDIIS, OOCD, Brueckner-CCSD(T), CCSD density, CASPT2, CASPT2-K
   Simone Kossmann        : Meta GGA functionals, TD-DFT gradient, OOMP2, MP2 Hessian
   Martin Krupicka        : Initial AUTO-CI
   Lucas Lang             : DCDCAS
   Marvin Lechner         : AUTO-CI (C++ implementation), FIC-MRCC
   Dagmar Lenk            : GEPOL surface, SMD
   Dimitrios Liakos       : Extrapolation schemes; Compound Job, initial MDCI parallelization
   Dimitrios Manganas     : Further ROCIS development; embedding schemes
   Dimitrios Pantazis     : SARC Basis sets
   Anastasios Papadopoulos: AUTO-CI, single reference methods and gradients
   Taras Petrenko         : DFT Hessian,TD-DFT gradient, ASA, ECA, R-Raman, ABS, FL, XAS/XES, NRVS
   Peter Pinski           : DLPNO-MP2, DLPNO-MP2 Gradient
   Christoph Reimann      : Effective Core Potentials
   Marius Retegan         : Local ZFS, SOC
   Christoph Riplinger    : Optimizer, TS searches, QM/MM, DLPNO-CCSD(T), (RO)-DLPNO pert. Triples
   Tobias Risthaus        : Range-separated hybrids, TD-DFT gradient, RPA, STAB
   Michael Roemelt        : Original ROCIS implementation
   Masaaki Saitow         : Open-shell DLPNO-CCSD energy and density
   Barbara Sandhoefer     : DKH picture change effects
   Avijit Sen             : IP-ROCIS
   Kantharuban Sivalingam : CASSCF convergence, NEVPT2, FIC-MRCI
   Bernardo de Souza      : ESD, SOC TD-DFT
   Georgi Stoychev        : AutoAux, RI-MP2 NMR, DLPNO-MP2 response
   Willem Van den Heuvel  : Paramagnetic NMR
   Boris Wezisla          : Elementary symmetry handling
   Frank Wennmohs         : Technical directorship


 We gratefully acknowledge several colleagues who have allowed us to
 interface, adapt or use parts of their codes:
   Stefan Grimme, W. Hujo, H. Kruse, P. Pracht,  : VdW corrections, initial TS optimization,
                  C. Bannwarth, S. Ehlert          DFT functionals, gCP, sTDA/sTD-DF
   Ed Valeev, F. Pavosevic, A. Kumar             : LibInt (2-el integral package), F12 methods
   Garnet Chan, S. Sharma, J. Yang, R. Olivares  : DMRG
   Ulf Ekstrom                                   : XCFun DFT Library
   Mihaly Kallay                                 : mrcc  (arbitrary order and MRCC methods)
   Jiri Pittner, Ondrej Demel                    : Mk-CCSD
   Frank Weinhold                                : gennbo (NPA and NBO analysis)
   Christopher J. Cramer and Donald G. Truhlar   : smd solvation model
   Lars Goerigk                                  : TD-DFT with DH, B97 family of functionals
   V. Asgeirsson, H. Jonsson                     : NEB implementation
   FAccTs GmbH                                   : IRC, NEB, NEB-TS, DLPNO-Multilevel, CI-OPT
                                                   MM, QMMM, 2- and 3-layer-ONIOM, Crystal-QMMM,
                                                   LR-CPCM, SF, NACMEs, symmetry and pop. for TD-DFT,
                                                   nearIR, NL-DFT gradient (VV10), updates on ESD,
                                                   ML-optimized integration grids
   S Lehtola, MJT Oliveira, MAL Marques          : LibXC Library
   Liviu Ungur et al                             : ANISO software


 Your calculation uses the libint2 library for the computation of 2-el integrals
 For citations please refer to: http://libint.valeyev.net

 Your ORCA version has been built with support for libXC version: 5.1.0
 For citations please refer to: https://tddft.org/programs/libxc/

 This ORCA versions uses:
   CBLAS   interface :  Fast vector & matrix operations
   LAPACKE interface :  Fast linear algebra routines
   SCALAPACK package :  Parallel linear algebra routines
   Shared memory     :  Shared parallel matrices
   BLAS/LAPACK       :  OpenBLAS 0.3.15  USE64BITINT DYNAMIC_ARCH NO_AFFINITY Sandybridge SINGLE_THREADED
        Core in use  :  Sandybridge
   Copyright (c) 2011-2014, The OpenBLAS Project


================================================================================

----- Orbital basis set information -----
Your calculation utilizes the basis: cc-pVDZ 
       H, B-Ne : Obtained from the ccRepo (grant-hill.group.shef.ac.uk/ccrepo) Feb. 2017
                 T. H. Dunning, Jr., J. Chem. Phys. 90, 1007 (1989)
            He : Obtained from the ccRepo (grant-hill.group.shef.ac.uk/ccrepo) Feb. 2017
                 D. E. Woon, T. H. Dunning, Jr., J. Chem. Phys. 100, 2975 (1994)
  Li-Be, Na-Mg : Obtained from the ccRepo (grant-hill.group.shef.ac.uk/ccrepo) Feb. 2017
                 B. P. Prascher, D. E. Woon, K. A. Peterson, T. H. Dunning, Jr., A. K. Wilson, Theor. Chem. Acc. 128, 69 (2011)
         Al-Ar : Obtained from the ccRepo (grant-hill.group.shef.ac.uk/ccrepo) Feb. 2017
                 D. E. Woon, T. H. Dunning, Jr., J. Chem. Phys. 98, 1358 (1993)
            Ca : Obtained from the Peterson Research Group Website (tyr0.chem.wsu.edu/~kipeters) Feb. 2017
                 J. Koput, K. A. Peterson, J. Phys. Chem. 106, 9595 (2002)
         Sc-Zn : Obtained from the ccRepo (grant-hill.group.shef.ac.uk/ccrepo) Feb. 2017
                 N. B. Balabanov, K. A. Peterson, J. Chem. Phys. 123, 064107 (2005)
                 N. B. Balabanov, K. A. Peterson, J. Chem. Phys. 125, 074110 (2006)
         Ga-Kr : Obtained from the ccRepo (grant-hill.group.shef.ac.uk/ccrepo) Feb. 2017
                 A. K. Wilson, D. E. Woon, K. A. Peterson, T. H. Dunning, Jr., J. Chem. Phys. 110, 7667 (1999)

================================================================================
                                        WARNINGS
                       Please study these warnings very carefully!
================================================================================


WARNING: No MP2 level density has been requested!
         To caclulate MP2 level properties use
         %mp2 Density relaxed end
         or
         %mp2 Density unrelaxed end

WARNING: Post HF methods need fully converged wavefunctions
  ===> : Setting SCFConvForced true
         You can overwrite this default with %scf ConvForced false 


INFO   : the flag for use of the SHARK integral package has been found!

================================================================================
                                       INPUT FILE
================================================================================
NAME = /scratch/allen/tmpyp4_amber_gaff2/2.Mdgx/conf11/conf11/Conf78.orca
|  1> ! PAL2
|  2> ! mp2 cc-pvdz TightSCF  NoKeepInts
|  3> 
|  4> %scf
|  5>   MaxCore 2000
|  6> end
|  7> %mp2
|  8>   MaxCore 2000
|  9> end
| 10> * xyz 0 1
| 11>    C       -3.76700         6.01600        -1.04300
| 12>    C        1.47400         4.04100         0.05700
| 13>    C       -2.80200         4.09300         0.04900
| 14>    C       -3.43000         4.51300         1.23100
| 15>    C       -4.20200         5.65800         1.23800
| 16>    C       -5.22300         7.59500         0.14400
| 17>    C        0.13200         4.30700         0.06100
| 18>    C       -0.56900         3.05600         0.04700
| 19>    C        1.64900         2.61800         0.02300
| 20>    C       -2.99100         4.87500        -1.10100
| 21>    N       -4.35900         6.39400         0.11300
| 22>    N        0.38800         2.06700         0.02500
| 23>    N       -2.01000         0.39500        -0.07500
| 24>    N       -0.38800        -2.07400        -0.02700
| 25>    N        2.01000        -0.40100         0.06500
| 26>    C       -1.96000         2.86100         0.02400
| 27>    C       -2.62300         1.61500        -0.01800
| 28>    C       -5.57300        -4.32900         1.06600
| 29>    C       -4.07300         1.47100         0.05600
| 30>    C       -4.10600        -2.75600        -0.02600
| 31>    C       -4.99500        -2.75700        -1.11100
| 32>    C       -6.13200        -3.54200        -1.07600
| 33>    C       -7.65100        -5.11300         0.04000
| 34>    C       -4.32400         0.14100         0.03700
| 35>    C       -3.02500        -0.52000        -0.04800
| 36>    C       -4.42200        -3.56600         1.07500
| 37>    N       -6.40700        -4.31300         0.00100
| 38>    C       -2.86700        -1.92200        -0.04000
| 39>    C       -1.65000        -2.62400        -0.02700
| 40>    C        3.56800        -6.14200        -1.04000
| 41>    C       -1.47600        -4.04900        -0.03400
| 42>    C        2.80300        -4.09900        -0.00800
| 43>    C        3.65700        -4.38400         1.06900
| 44>    C        4.42700        -5.53000         1.05900
| 45>    C        5.24500        -7.58800         0.01400
| 46>    C       -0.13400        -4.31500        -0.02200
| 47>    C        0.56800        -3.06400        -0.02700
| 48>    C        2.77500        -5.01200        -1.07400
| 49>    N        4.37600        -6.39100         0.01700
| 50>    C        1.95900        -2.86900        -0.00900
| 51>    C        2.62100        -1.62200         0.00900
| 52>    C        5.54300         4.33900        -1.13000
| 53>    C        4.07000        -1.47900        -0.09400
| 54>    C        4.10400         2.75100        -0.02100
| 55>    C        5.02700         2.72900         1.03600
| 56>    C        6.16600         3.50900         0.97800
| 57>    C        7.61900         5.15300        -0.11500
| 58>    C        4.32100        -0.14800        -0.09200
| 59>    C        3.02500         0.51400         0.01500
| 60>    C        4.38700         3.58200        -1.11500
| 61>    C        2.86600         1.91600         0.01300
| 62>    N        6.41300         4.29600        -0.09500
| 63>    H       -3.93000         6.65600        -1.90200
| 64>    H        2.27400         4.76600         0.08100
| 65>    H       -3.33000         3.94600         2.14900
| 66>    H       -4.71200         6.01600         2.12200
| 67>    H       -6.25700         7.29300        -0.03400
| 68>    H       -5.13200         8.06700         1.12200
| 69>    H       -4.89400         8.28300        -0.63500
| 70>    H       -0.33200         5.28200         0.06900
| 71>    H       -2.52100         4.61100        -2.04100
| 72>    H        0.18200         1.07200         0.00500
| 73>    H       -0.18300        -1.08000        -0.02100
| 74>    H       -5.86400        -4.96200         1.89500
| 75>    H       -4.79400         2.27200         0.13900
| 76>    H       -4.80000        -2.16000        -1.99400
| 77>    H       -6.84100        -3.58200        -1.89300
| 78>    H       -8.42800        -4.53600         0.54600
| 79>    H       -7.95600        -5.33700        -0.98100
| 80>    H       -7.45600        -6.03700         0.58400
| 81>    H       -5.28700        -0.34400         0.10000
| 82>    H       -3.78000        -3.60100         1.94700
| 83>    H        3.58700        -6.86800        -1.84300
| 84>    H       -2.27600        -4.77400        -0.05000
| 85>    H        3.71400        -3.72400         1.92600
| 86>    H        5.09200        -5.79500         1.87100
| 87>    H        6.20500        -7.32900        -0.43900
| 88>    H        5.39300        -7.91700         1.04200
| 89>    H        4.75900        -8.37300        -0.56400
| 90>    H        0.32900        -5.29000        -0.00800
| 91>    H        2.14600        -4.84200        -1.94000
| 92>    H        5.80800         4.98600        -1.95600
| 93>    H        4.78800        -2.28100        -0.18500
| 94>    H        4.86000         2.11400         1.91200
| 95>    H        6.90100         3.53100         1.77200
| 96>    H        7.38300         6.10900         0.35600
| 97>    H        8.41400         4.65200         0.43500
| 98>    H        7.92100         5.31000        -1.15000
| 99>    H        5.28300         0.33600        -0.17900
|100>    H        3.72000         3.63200        -1.96700
|101> *
|102> 
|103>                          ****END OF INPUT****
================================================================================

                       ****************************
                       * Single Point Calculation *
                       ****************************

---------------------------------
CARTESIAN COORDINATES (ANGSTROEM)
---------------------------------
  C     -3.767000    6.016000   -1.043000
  C      1.474000    4.041000    0.057000
  C     -2.802000    4.093000    0.049000
  C     -3.430000    4.513000    1.231000
  C     -4.202000    5.658000    1.238000
  C     -5.223000    7.595000    0.144000
  C      0.132000    4.307000    0.061000
  C     -0.569000    3.056000    0.047000
  C      1.649000    2.618000    0.023000
  C     -2.991000    4.875000   -1.101000
  N     -4.359000    6.394000    0.113000
  N      0.388000    2.067000    0.025000
  N     -2.010000    0.395000   -0.075000
  N     -0.388000   -2.074000   -0.027000
  N      2.010000   -0.401000    0.065000
  C     -1.960000    2.861000    0.024000
  C     -2.623000    1.615000   -0.018000
  C     -5.573000   -4.329000    1.066000
  C     -4.073000    1.471000    0.056000
  C     -4.106000   -2.756000   -0.026000
  C     -4.995000   -2.757000   -1.111000
  C     -6.132000   -3.542000   -1.076000
  C     -7.651000   -5.113000    0.040000
  C     -4.324000    0.141000    0.037000
  C     -3.025000   -0.520000   -0.048000
  C     -4.422000   -3.566000    1.075000
  N     -6.407000   -4.313000    0.001000
  C     -2.867000   -1.922000   -0.040000
  C     -1.650000   -2.624000   -0.027000
  C      3.568000   -6.142000   -1.040000
  C     -1.476000   -4.049000   -0.034000
  C      2.803000   -4.099000   -0.008000
  C      3.657000   -4.384000    1.069000
  C      4.427000   -5.530000    1.059000
  C      5.245000   -7.588000    0.014000
  C     -0.134000   -4.315000   -0.022000
  C      0.568000   -3.064000   -0.027000
  C      2.775000   -5.012000   -1.074000
  N      4.376000   -6.391000    0.017000
  C      1.959000   -2.869000   -0.009000
  C      2.621000   -1.622000    0.009000
  C      5.543000    4.339000   -1.130000
  C      4.070000   -1.479000   -0.094000
  C      4.104000    2.751000   -0.021000
  C      5.027000    2.729000    1.036000
  C      6.166000    3.509000    0.978000
  C      7.619000    5.153000   -0.115000
  C      4.321000   -0.148000   -0.092000
  C      3.025000    0.514000    0.015000
  C      4.387000    3.582000   -1.115000
  C      2.866000    1.916000    0.013000
  N      6.413000    4.296000   -0.095000
  H     -3.930000    6.656000   -1.902000
  H      2.274000    4.766000    0.081000
  H     -3.330000    3.946000    2.149000
  H     -4.712000    6.016000    2.122000
  H     -6.257000    7.293000   -0.034000
  H     -5.132000    8.067000    1.122000
  H     -4.894000    8.283000   -0.635000
  H     -0.332000    5.282000    0.069000
  H     -2.521000    4.611000   -2.041000
  H      0.182000    1.072000    0.005000
  H     -0.183000   -1.080000   -0.021000
  H     -5.864000   -4.962000    1.895000
  H     -4.794000    2.272000    0.139000
  H     -4.800000   -2.160000   -1.994000
  H     -6.841000   -3.582000   -1.893000
  H     -8.428000   -4.536000    0.546000
  H     -7.956000   -5.337000   -0.981000
  H     -7.456000   -6.037000    0.584000
  H     -5.287000   -0.344000    0.100000
  H     -3.780000   -3.601000    1.947000
  H      3.587000   -6.868000   -1.843000
  H     -2.276000   -4.774000   -0.050000
  H      3.714000   -3.724000    1.926000
  H      5.092000   -5.795000    1.871000
  H      6.205000   -7.329000   -0.439000
  H      5.393000   -7.917000    1.042000
  H      4.759000   -8.373000   -0.564000
  H      0.329000   -5.290000   -0.008000
  H      2.146000   -4.842000   -1.940000
  H      5.808000    4.986000   -1.956000
  H      4.788000   -2.281000   -0.185000
  H      4.860000    2.114000    1.912000
  H      6.901000    3.531000    1.772000
  H      7.383000    6.109000    0.356000
  H      8.414000    4.652000    0.435000
  H      7.921000    5.310000   -1.150000
  H      5.283000    0.336000   -0.179000
  H      3.720000    3.632000   -1.967000

----------------------------
CARTESIAN COORDINATES (A.U.)
----------------------------
  NO LB      ZA    FRAG     MASS         X           Y           Z
   0 C     6.0000    0    12.011   -7.118598   11.368592   -1.970984
   1 C     6.0000    0    12.011    2.785456    7.636383    0.107714
   2 C     6.0000    0    12.011   -5.295013    7.734649    0.092597
   3 C     6.0000    0    12.011   -6.481761    8.528334    2.326253
   4 C     6.0000    0    12.011   -7.940629   10.692070    2.339481
   5 C     6.0000    0    12.011   -9.870040   14.352470    0.272121
   6 C     6.0000    0    12.011    0.249444    8.139050    0.115273
   7 C     6.0000    0    12.011   -1.075254    5.775003    0.088817
   8 C     6.0000    0    12.011    3.116158    4.947303    0.043464
   9 C     6.0000    0    12.011   -5.652171    9.212415   -2.080588
  10 N     7.0000    0    14.007   -8.237316   12.082909    0.213539
  11 N     7.0000    0    14.007    0.733214    3.906064    0.047243
  12 N     7.0000    0    14.007   -3.798350    0.746442   -0.141729
  13 N     7.0000    0    14.007   -0.733214   -3.919292   -0.051023
  14 N     7.0000    0    14.007    3.798350   -0.757780    0.122832
  15 C     6.0000    0    12.011   -3.703863    5.406506    0.045353
  16 C     6.0000    0    12.011   -4.956752    3.051908   -0.034015
  17 C     6.0000    0    12.011  -10.531444   -8.180624    2.014448
  18 C     6.0000    0    12.011   -7.696855    2.779787    0.105825
  19 C     6.0000    0    12.011   -7.759216   -5.208085   -0.049133
  20 C     6.0000    0    12.011   -9.439182   -5.209975   -2.099486
  21 C     6.0000    0    12.011  -11.587801   -6.693410   -2.033345
  22 C     6.0000    0    12.011  -14.458295   -9.662170    0.075589
  23 C     6.0000    0    12.011   -8.171176    0.266451    0.069920
  24 C     6.0000    0    12.011   -5.716422   -0.982658   -0.090707
  25 C     6.0000    0    12.011   -8.356369   -6.738763    2.031456
  26 N     7.0000    0    14.007  -12.107475   -8.150389    0.001890
  27 C     6.0000    0    12.011   -5.417845   -3.632054   -0.075589
  28 C     6.0000    0    12.011   -3.118048   -4.958641   -0.051023
  29 C     6.0000    0    12.011    6.742543  -11.606698   -1.965315
  30 C     6.0000    0    12.011   -2.789236   -7.651501   -0.064251
  31 C     6.0000    0    12.011    5.296902   -7.745987   -0.015118
  32 C     6.0000    0    12.011    6.910728   -8.284559    2.020117
  33 C     6.0000    0    12.011    8.365818  -10.450186    2.001220
  34 C     6.0000    0    12.011    9.911614  -14.339242    0.026456
  35 C     6.0000    0    12.011   -0.253223   -8.154168   -0.041574
  36 C     6.0000    0    12.011    1.073364   -5.790121   -0.051023
  37 C     6.0000    0    12.011    5.243990   -9.471307   -2.029566
  38 N     7.0000    0    14.007    8.269442  -12.077240    0.032125
  39 C     6.0000    0    12.011    3.701973   -5.421624   -0.017008
  40 C     6.0000    0    12.011    4.952972   -3.065136    0.017008
  41 C     6.0000    0    12.011   10.474752    8.199522   -2.135391
  42 C     6.0000    0    12.011    7.691185   -2.794905   -0.177634
  43 C     6.0000    0    12.011    7.755436    5.198637   -0.039684
  44 C     6.0000    0    12.011    9.499653    5.157063    1.957756
  45 C     6.0000    0    12.011   11.652051    6.631049    1.848152
  46 C     6.0000    0    12.011   14.397823    9.737759   -0.217319
  47 C     6.0000    0    12.011    8.165507   -0.279679   -0.173855
  48 C     6.0000    0    12.011    5.716422    0.971319    0.028346
  49 C     6.0000    0    12.011    8.290229    6.768999   -2.107045
  50 C     6.0000    0    12.011    5.415955    3.620715    0.024566
  51 N     7.0000    0    14.007   12.118814    8.118263   -0.179524
  52 H     1.0000    0     1.008   -7.426624   12.578017   -3.594259
  53 H     1.0000    0     1.008    4.297237    9.006435    0.153068
  54 H     1.0000    0     1.008   -6.292788    7.456859    4.061021
  55 H     1.0000    0     1.008   -8.904390   11.368592    4.009999
  56 H     1.0000    0     1.008  -11.824016   13.781773   -0.064251
  57 H     1.0000    0     1.008   -9.698075   15.244421    2.120273
  58 H     1.0000    0     1.008   -9.248320   15.652602   -1.199976
  59 H     1.0000    0     1.008   -0.627389    9.981533    0.130391
  60 H     1.0000    0     1.008   -4.764000    8.713527   -3.856931
  61 H     1.0000    0     1.008    0.343930    2.025786    0.009449
  62 H     1.0000    0     1.008   -0.345820   -2.040904   -0.039684
  63 H     1.0000    0     1.008  -11.081354   -9.376821    3.581031
  64 H     1.0000    0     1.008   -9.059347    4.293458    0.262672
  65 H     1.0000    0     1.008   -9.070685   -4.081808   -3.768114
  66 H     1.0000    0     1.008  -12.927616   -6.768999   -3.577252
  67 H     1.0000    0     1.008  -15.926612   -8.571798    1.031790
  68 H     1.0000    0     1.008  -15.034661  -10.085468   -1.853821
  69 H     1.0000    0     1.008  -14.089798  -11.408277    1.103600
  70 H     1.0000    0     1.008   -9.990982   -0.650066    0.188973
  71 H     1.0000    0     1.008   -7.143165   -6.804904    3.679297
  72 H     1.0000    0     1.008    6.778448  -12.978639   -3.482765
  73 H     1.0000    0     1.008   -4.301017   -9.021553   -0.094486
  74 H     1.0000    0     1.008    7.018443   -7.037340    3.639613
  75 H     1.0000    0     1.008    9.622485  -10.950963    3.535678
  76 H     1.0000    0     1.008   11.725751  -13.849803   -0.829590
  77 H     1.0000    0     1.008   10.191293  -14.960962    1.969095
  78 H     1.0000    0     1.008    8.993207  -15.822677   -1.065806
  79 H     1.0000    0     1.008    0.621720   -9.996651   -0.015118
  80 H     1.0000    0     1.008    4.055352   -9.150054   -3.666069
  81 H     1.0000    0     1.008   10.975529    9.422175   -3.696304
  82 H     1.0000    0     1.008    9.048009   -4.310465   -0.349599
  83 H     1.0000    0     1.008    9.184069    3.994881    3.613156
  84 H     1.0000    0     1.008   13.041000    6.672623    3.348595
  85 H     1.0000    0     1.008   13.951848   11.544337    0.672743
  86 H     1.0000    0     1.008   15.900156    8.791006    0.822031
  87 H     1.0000    0     1.008   14.968521   10.034446   -2.173185
  88 H     1.0000    0     1.008    9.983423    0.634948   -0.338261
  89 H     1.0000    0     1.008    7.029781    6.863485   -3.717091

--------------------------------
INTERNAL COORDINATES (ANGSTROEM)
--------------------------------
 C      0   0   0     0.000000000000     0.00000000     0.00000000
 C      1   0   0     5.707775924123     0.00000000     0.00000000
 C      1   2   0     2.412802934348    43.09338665     0.00000000
 C      3   1   2     1.402821442665    87.91851639   118.49766210
 C      4   3   1     1.380962707679   120.18349263     0.16976777
 C      5   4   3     2.447702187767   152.50579681     1.56672237
 C      2   1   3     1.368114030335    14.66856208   338.07441876
 C      7   2   3     1.434084376876   108.05010202     0.84668783
 C      2   1   3     1.434123425651   116.79585904    34.97586269
 C      1   2   3     1.381094131477    37.46768238   313.21449086
 N      1   2   3     1.352658123844   109.50322445    68.80574801
 N      9   2   1     1.376127174356   106.58526707   346.33251097
 N     12   9   2     2.925062050624   168.53581413   171.12065651
 N     13  12   9     2.954513327098    91.55032014    11.12112580
 N     14  13  12     2.925371258490    88.43092389   359.84326247
 C      8   7   2     1.404790019896   127.24786865   181.11170171
 C     13  12   9     1.366535034311    81.72106996   188.00453233
 C     14  13  12     5.758810554272    80.56209567   166.76250791
 C     17  13  12     1.459010623676   111.08861209   183.82872609
 C     18  14  13     2.412235892279    27.27532823    36.33507194
 C     20  18  14     1.402692767501    87.95206320   148.94598259
 C     21  20  18     1.382106725257   120.14573887   359.70382047
 C     18  14  13     2.446510985056   144.15733107    82.80075377
 C     19  17  13     1.353610726908   106.29293361   359.75308708
 C     13  12   9     1.366813447402   172.21332906    33.46711076
 C     18  14  13     1.380960173213    15.08449437   309.23336894
 N     22  21  20     1.352773077792   120.73759875     0.27865223
 C     25  13  17     1.410897586645   125.60330303   182.37774668
 C     14  13  12     1.376642291955    80.24689249   177.85461986
 C     14  13  12     5.764089607215   164.51507311   312.20821879
 C     29  14  13     1.435600919476   106.58649366   178.76395472
 C     30  14  13     2.413316804732    27.10625047    82.12560436
 C     32  30  14     1.403734305344    87.90059683   149.76154742
 C     33  32  30     1.380694028378   120.14881443   359.74174632
 C     34  33  32     2.448777858443   152.49203239     2.45173620
 C     31  29  14     1.368160809262   108.16950133     0.70383075
 C     14  13  12     1.376239804685   169.26375223   353.09862627
 C     30  14  13     1.380907310430    14.68948582   353.70041132
 N     34  33  32     1.352658863128   120.85575621     0.19603406
 C     37  14  29     1.404717053360   126.01551127   180.90772073
 C     15  14  13     1.366491126938    81.61824056   183.09049352
 C      2   1   3     4.249062720177   143.24531087   160.09884037
 C     41  15  14     1.459677704153   111.05201287   175.08990246
 C     42   2   1     2.412953791518    41.78584867   203.33876939
 C     44  42   2     1.403446472082    87.95153797   233.97558675
 C     45  44  42     1.381696421071   120.11137308     0.19721020
 C     42   2   1     2.450019795838   135.97209175   113.65361849
 C     43  41  15     1.354461516618   106.26758155     0.30894352
 C     15  14  13     1.367461151185   171.87382904   332.35056460
 C     42   2   1     1.381886391857    32.59078432   252.19404858
 C      9   2   1     1.404988612053   126.98745415   167.33684850
 N     42   2   1     1.352765315936   113.57249190   141.39020768
 H      1   2   3     1.083535878501   119.68911366   207.16570550
 H      2   1   3     1.079907866440   116.88515108   203.46813291
 H      4   3   1     1.083611092597   121.05366115   179.52816810
 H      5   4   3     1.081535944849   122.83395432   179.45007537
 H      6   5   4     1.091807675371   104.41921768   100.09517207
 H      6   5   4     1.089747218395    84.65271462   209.60229566
 H      6   5   4     1.090149531028   133.86205706   322.40157257
 H      7   2  54     1.079807853278   126.66122480     1.30600390
 H     10   1   2     1.083603248426   118.77779271   262.81277534
 H     12   9   2     1.016297692608   125.29023241   180.00180175
 H     14  13  12     1.014936943854    44.97226959   359.42596618
 H     18  14  13     1.082871645210   128.03556573   234.20482432
 H     19  17  13     1.080893611786   126.41830519   178.11313280
 H     21  20  18     1.083569563987   121.05669627   180.67006309
 H     22  21  20     1.082483256222   122.73097286   180.59748951
 H     23  18  14     1.092105306278   103.92715769   234.93429879
 H     23  18  14     1.088871893291   134.19244188    12.25587044
 H     23  18  14     1.089833473518    84.85857450   125.45241208
 H     24  19  17     1.080075460327   127.28078426   178.44613241
 H     26  18  14     1.083408048706   118.76995697   244.94906660
 H     30  14  13     1.082703098730   127.99711412   279.66882698
 H     31  29  14     1.079759695488   125.22293469   180.92530585
 H     33  32  30     1.083188810873   121.01964473   180.74284758
 H     34  33  32     1.082494341787   122.70821597   180.59516895
 H     35  34  33     1.092652735319   105.73575241    97.19771933
 H     35  34  33     1.089462711615    84.05943581   206.43036958
 H     35  34  33     1.089268102902   133.08365142   318.50306270
 H     36  31  29     1.079439669458   126.61599965   178.98859863
 H     38  30  73     1.083742127999   118.77264435   359.90091293
 H     42   2   1     1.082178358682   119.31790784   358.02173813
 H     43  41  15     1.080281907652   126.36969097   182.06329380
 H     45  44  42     1.083277434455   121.10105945   179.58025624
 H     46  45  44     1.082194529648   122.72144639   179.46906377
 H     47  42   2     1.091546151109   106.65128841   315.16475048
 H     47  42   2     1.088818625851   132.46019523    94.52397119
 H     47  42   2     1.089531091801    83.63838232   206.04504406
 H     48  43  41     1.080402239909   127.23657387   181.62955349
 H     50  42   2     1.083186502870   118.77001737    94.71359229

---------------------------
INTERNAL COORDINATES (A.U.)
---------------------------
 C      0   0   0     0.000000000000     0.00000000     0.00000000
 C      1   0   0    10.786133330382     0.00000000     0.00000000
 C      1   2   0     4.559536761040    43.09338665     0.00000000
 C      3   1   2     2.650948341429    87.91851639   118.49766210
 C      4   3   1     2.609641318672   120.18349263     0.16976777
 C      5   4   3     4.625486792280   152.50579681     1.56672237
 C      2   1   3     2.585360837309    14.66856208   338.07441876
 C      7   2   3     2.710026725231   108.05010202     0.84668783
 C      2   1   3     2.710100516721   116.79585904    34.97586269
 C      1   2   3     2.609889673657    37.46768238   313.21449086
 N      1   2   3     2.556153406888   109.50322445    68.80574801
 N      9   2   1     2.600503484979   106.58526707   346.33251097
 N     12   9   2     5.527566200405   168.53581413   171.12065651
 N     13  12   9     5.583221047236    91.55032014    11.12112580
 N     14  13  12     5.528150518591    88.43092389   359.84326247
 C      8   7   2     2.654668413270   127.24786865   181.11170171
 C     13  12   9     2.582376967257    81.72106996   188.00453233
 C     14  13  12    10.882574804710    80.56209567   166.76250791
 C     17  13  12     2.757130505230   111.08861209   183.82872609
 C     18  14  13     4.558465206823    27.27532823    36.33507194
 C     20  18  14     2.650705180609    87.95206320   148.94598259
 C     21  20  18     2.611803198586   120.14573887   359.70382047
 C     18  14  13     4.623235745386   144.15733107    82.80075377
 C     19  17  13     2.557953565794   106.29293361   359.75308708
 C     13  12   9     2.582903091751   172.21332906    33.46711076
 C     18  14  13     2.609636529225    15.08449437   309.23336894
 N     22  21  20     2.556370638369   120.73759875     0.27865223
 C     25  13  17     2.666210041769   125.60330303   182.37774668
 C     14  13  12     2.601476916169    80.24689249   177.85461986
 C     14  13  12    10.892550769017   164.51507311   312.20821879
 C     29  14  13     2.712892575415   106.58649366   178.76395472
 C     30  14  13     4.560507835333    27.10625047    82.12560436
 C     32  30  14     2.652673401891    87.90059683   149.76154742
 C     33  32  30     2.609133588376   120.14881443   359.74174632
 C     34  33  32     4.627519515267   152.49203239     2.45173620
 C     31  29  14     2.585449236669   108.16950133     0.70383075
 C     14  13  12     2.600716325456   169.26375223   353.09862627
 C     30  14  13     2.609536633043    14.68948582   353.70041132
 N     34  33  32     2.556154803934   120.85575621     0.19603406
 C     37  14  29     2.654530526499   126.01551127   180.90772073
 C     15  14  13     2.582293994346    81.61824056   183.09049352
 C      2   1   3     8.029564866989   143.24531087   160.09884037
 C     41  15  14     2.758391104639   111.05201287   175.08990246
 C     42   2   1     4.559821839776    41.78584867   203.33876939
 C     44  42   2     2.652129475853    87.95153797   233.97558675
 C     45  44  42     2.611027836043   120.11137308     0.19721020
 C     42   2   1     4.629866436820   135.97209175   113.65361849
 C     43  41  15     2.559561325344   106.26758155     0.30894352
 C     15  14  13     2.584127074516   171.87382904   332.35056460
 C     42   2   1     2.611386828803    32.59078432   252.19404858
 C      9   2   1     2.655043698059   126.98745415   167.33684850
 N     42   2   1     2.556355970587   113.57249190   141.39020768
 H      1   2   3     2.047586066646   119.68911366   207.16570550
 H      2   1   3     2.040730117440   116.88515108   203.46813291
 H      4   3   1     2.047728200688   121.05366115   179.52816810
 H      5   4   3     2.043806739756   122.83395432   179.45007537
 H      6   5   4     2.063217497365   104.41921768   100.09517207
 H      6   5   4     2.059323797969    84.65271462   209.60229566
 H      6   5   4     2.060084058665   133.86205706   322.40157257
 H      7   2  54     2.040541119952   126.66122480     1.30600390
 H     10   1   2     2.047713377353   118.77779271   262.81277534
 H     12   9   2     1.920524309565   125.29023241   180.00180175
 H     14  13  12     1.917952867083    44.97226959   359.42596618
 H     18  14  13     2.046330847636   128.03556573   234.20482432
 H     19  17  13     2.042592906181   126.41830519   178.11313280
 H     21  20  18     2.047649722989   121.05669627   180.67006309
 H     22  21  20     2.045596898814   122.73097286   180.59748951
 H     23  18  14     2.063779938267   103.92715769   234.93429879
 H     23  18  14     2.057669673245   134.19244188    12.25587044
 H     23  18  14     2.059486796529    84.85857450   125.45241208
 H     24  19  17     2.041046823986   127.28078426   178.44613241
 H     26  18  14     2.047344503340   118.76995697   244.94906660
 H     30  14  13     2.046012340948   127.99711412   279.66882698
 H     31  29  14     2.040450114918   125.22293469   180.92530585
 H     33  32  30     2.046930203877   121.01964473   180.74284758
 H     34  33  32     2.045617847496   122.70821597   180.59516895
 H     35  34  33     2.064814429233   105.73575241    97.19771933
 H     35  34  33     2.058786158072    84.05943581   206.43036958
 H     35  34  33     2.058418400901   133.08365142   318.50306270
 H     36  31  29     2.039845353366   126.61599965   178.98859863
 H     38  30  73     2.047975821711   118.77264435   359.90091293
 H     42   2   1     2.045020725966   119.31790784   358.02173813
 H     43  41  15     2.041436952892   126.36969097   182.06329380
 H     45  44  42     2.047097678177   121.10105945   179.58025624
 H     46  45  44     2.045051284662   122.72144639   179.46906377
 H     47  42   2     2.062723288131   106.65128841   315.16475048
 H     47  42   2     2.057569012371   132.46019523    94.52397119
 H     47  42   2     2.058915377895    83.63838232   206.04504406
 H     48  43  41     2.041664347903   127.23657387   181.62955349
 H     50  42   2     2.046925842384   118.77001737    94.71359229

---------------------
BASIS SET INFORMATION
---------------------
There are 3 groups of distinct atoms

 Group   1 Type C   : 17s4p1d contracted to 3s2p1d pattern {881/31/1}
 Group   2 Type N   : 17s4p1d contracted to 3s2p1d pattern {881/31/1}
 Group   3 Type H   : 4s1p contracted to 2s1p pattern {31/1}

Atom   0C    basis set group =>   1
Atom   1N    basis set group =>   2
Atom   2C    basis set group =>   1
Atom   3N    basis set group =>   2
Atom   4C    basis set group =>   1
Atom   5N    basis set group =>   2
Atom   6C    basis set group =>   1
Atom   7N    basis set group =>   2
Atom   8C    basis set group =>   1
Atom   9N    basis set group =>   2
Atom  10C    basis set group =>   1
Atom  11N    basis set group =>   2
Atom  12C    basis set group =>   1
Atom  13N    basis set group =>   2
Atom  14C    basis set group =>   1
Atom  15N    basis set group =>   2
Atom  16C    basis set group =>   1
Atom  17C    basis set group =>   1
Atom  18C    basis set group =>   1
Atom  19C    basis set group =>   1
Atom  20C    basis set group =>   1
Atom  21C    basis set group =>   1
Atom  22C    basis set group =>   1
Atom  23C    basis set group =>   1
Atom  24C    basis set group =>   1
Atom  25C    basis set group =>   1
Atom  26C    basis set group =>   1
Atom  27C    basis set group =>   1
Atom  28C    basis set group =>   1
Atom  29C    basis set group =>   1
Atom  30C    basis set group =>   1
Atom  31C    basis set group =>   1
Atom  32C    basis set group =>   1
Atom  33C    basis set group =>   1
Atom  34C    basis set group =>   1
Atom  35C    basis set group =>   1
Atom  36C    basis set group =>   1
Atom  37C    basis set group =>   1
Atom  38C    basis set group =>   1
Atom  39C    basis set group =>   1
Atom  40C    basis set group =>   1
Atom  41C    basis set group =>   1
Atom  42C    basis set group =>   1
Atom  43C    basis set group =>   1
Atom  44C    basis set group =>   1
Atom  45C    basis set group =>   1
Atom  46C    basis set group =>   1
Atom  47C    basis set group =>   1
Atom  48C    basis set group =>   1
Atom  49C    basis set group =>   1
Atom  50C    basis set group =>   1
Atom  51C    basis set group =>   1
Atom  52H    basis set group =>   3
Atom  53H    basis set group =>   3
Atom  54H    basis set group =>   3
Atom  55H    basis set group =>   3
Atom  56H    basis set group =>   3
Atom  57H    basis set group =>   3
Atom  58H    basis set group =>   3
Atom  59H    basis set group =>   3
Atom  60H    basis set group =>   3
Atom  61H    basis set group =>   3
Atom  62H    basis set group =>   3
Atom  63H    basis set group =>   3
Atom  64H    basis set group =>   3
Atom  65H    basis set group =>   3
Atom  66H    basis set group =>   3
Atom  67H    basis set group =>   3
Atom  68H    basis set group =>   3
Atom  69H    basis set group =>   3
Atom  70H    basis set group =>   3
Atom  71H    basis set group =>   3
Atom  72H    basis set group =>   3
Atom  73H    basis set group =>   3
Atom  74H    basis set group =>   3
Atom  75H    basis set group =>   3
Atom  76H    basis set group =>   3
Atom  77H    basis set group =>   3
Atom  78H    basis set group =>   3
Atom  79H    basis set group =>   3
Atom  80H    basis set group =>   3
Atom  81H    basis set group =>   3
Atom  82H    basis set group =>   3
Atom  83H    basis set group =>   3
Atom  84H    basis set group =>   3
Atom  85H    basis set group =>   3
Atom  86H    basis set group =>   3
Atom  87H    basis set group =>   3
Atom  88H    basis set group =>   3
Atom  89H    basis set group =>   3


           ************************************************************
           *        Program running with 16 parallel MPI-processes    *
           *              working on a common directory               *
           ************************************************************
------------------------------------------------------------------------------
                           ORCA GTO INTEGRAL CALCULATION
------------------------------------------------------------------------------
------------------------------------------------------------------------------
                   ___                                                        
                  /   \      - P O W E R E D   B Y -                         
                 /     \                                                     
                 |  |  |   _    _      __       _____    __    __             
                 |  |  |  | |  | |    /  \     |  _  \  |  |  /  |          
                  \  \/   | |  | |   /    \    | | | |  |  | /  /          
                 / \  \   | |__| |  /  /\  \   | |_| |  |  |/  /          
                |  |  |   |  __  | /  /__\  \  |    /   |      \           
                |  |  |   | |  | | |   __   |  |    \   |  |\   \          
                \     /   | |  | | |  |  |  |  | |\  \  |  | \   \       
                 \___/    |_|  |_| |__|  |__|  |_| \__\ |__|  \__/        
                                                                              
                      - O R C A' S   B I G   F R I E N D -                    
                                      &                                       
                       - I N T E G R A L  F E E D E R -                       
                                                                              
 v1 FN, 2020, v2 2021                                                         
------------------------------------------------------------------------------


Reading SHARK input file /scratch/allen/tmpyp4_amber_gaff2/conf1/conf1/Conf78.orca.SHARKINP.tmp ... ok
----------------------
SHARK INTEGRAL PACKAGE
----------------------

Number of atoms                             ...     90
Number of basis functions                   ...   1230
Number of shells                            ...    738
Maximum angular momentum                    ...      2
Integral batch strategy                     ... SHARK/LIBINT Hybrid
RI-J (if used) integral strategy            ... SPLIT-RIJ (Revised 2003 algorithm where possible)
Printlevel                                  ...      1
Contraction scheme used                     ... PARTIAL GENERAL contraction
Coulomb Range Separation                    ... NOT USED
Exchange Range Separation                   ... NOT USED
Finite Nucleus Model                        ... NOT USED
Auxiliary Coulomb fitting basis             ... NOT available
Auxiliary J/K fitting basis                 ... NOT available
Auxiliary Correlation fitting basis         ... NOT available
Auxiliary 'external' fitting basis          ... NOT available
Integral threshold                          ...     2.500000e-11
Primitive cut-off                           ...     2.500000e-12
Primitive pair pre-selection threshold      ...     2.500000e-12

Calculating pre-screening integrals         ... done (  0.1 sec) Dimension = 738
Calculating pre-screening integrals (ORCA)  ... done (  0.3 sec) Dimension = 426
Organizing shell pair data                  ... done (  0.5 sec)
Shell pair information
Total number of shell pairs                 ...    272691
Shell pairs after pre-screening             ...     71582
Total number of primitive shell pairs       ...    422091
Primitive shell pairs kept                  ...     92330
          la=0 lb=0:  29405 shell pairs
          la=1 lb=0:  25957 shell pairs
          la=1 lb=1:   4684 shell pairs
          la=2 lb=0:   7884 shell pairs
          la=2 lb=1:   3121 shell pairs
          la=2 lb=2:    531 shell pairs

Calculating one electron integrals          ... done (  0.2 sec)
Calculating Nuclear repulsion               ... done (  0.0 sec) ENN=   6222.479844830664 Eh

SHARK setup successfully completed in   1.7 seconds

Maximum memory used throughout the entire GTOINT-calculation: 98.9 MB


           ************************************************************
           *        Program running with 16 parallel MPI-processes    *
           *              working on a common directory               *
           ************************************************************
-------------------------------------------------------------------------------
                                 ORCA SCF
-------------------------------------------------------------------------------

------------
SCF SETTINGS
------------
Hamiltonian:
 Ab initio Hamiltonian  Method          .... Hartree-Fock(GTOs)


General Settings:
 Integral files         IntName         .... /scratch/allen/tmpyp4_amber_gaff2/conf1/conf1/Conf78.orca
 Hartree-Fock type      HFTyp           .... RHF
 Total Charge           Charge          ....    0
 Multiplicity           Mult            ....    1
 Number of Electrons    NEL             ....  358
 Basis Dimension        Dim             ....  918
 Nuclear Repulsion      ENuc            ....   6222.4798448307 Eh

Convergence Acceleration:
 DIIS                   CNVDIIS         .... on
   Start iteration      DIISMaxIt       ....    12
   Startup error        DIISStart       ....  0.200000
   # of expansion vecs  DIISMaxEq       ....     5
   Bias factor          DIISBfac        ....   1.050
   Max. coefficient     DIISMaxC        ....  10.000
 Trust-Rad. Augm. Hess. CNVTRAH         .... auto
   Auto Start mean grad. ratio tolernc. ....  1.125000
   Auto Start start iteration           ....    20
   Auto Start num. interpolation iter.  ....    10
   Max. Number of Micro iterations      ....    16
   Max. Number of Macro iterations      .... Maxiter - #DIIS iter
   Number of Davidson start vectors     ....     2
   Converg. threshold I  (grad. norm)   ....   1.000e-05
   Converg. threshold II (energy diff.) ....   1.000e-08
   Grad. Scal. Fac. for Micro threshold ....   0.100
   Minimum threshold for Micro iter.    ....   0.010
   NR start threshold (gradient norm)   ....   0.001
   Initial trust radius                 ....   0.400
   Minimum AH scaling param. (alpha)    ....   1.000
   Maximum AH scaling param. (alpha)    .... 1000.000
   Orbital update algorithm             .... Taylor
   White noise on init. David. guess    .... on
   Maximum white noise                  ....   0.010
   Quad. conv. algorithm                .... NR
 SOSCF                  CNVSOSCF        .... on
   Start iteration      SOSCFMaxIt      ....   150
   Startup grad/error   SOSCFStart      ....  0.003300
 Level Shifting         CNVShift        .... on
   Level shift para.    LevelShift      ....    0.2500
   Turn off err/grad.   ShiftErr        ....    0.0010
 Zerner damping         CNVZerner       .... off
 Static damping         CNVDamp         .... on
   Fraction old density DampFac         ....    0.7000
   Max. Damping (<1)    DampMax         ....    0.9800
   Min. Damping (>=0)   DampMin         ....    0.0000
   Turn off err/grad.   DampErr         ....    0.1000
 Fernandez-Rico         CNVRico         .... off

SCF Procedure:
 Maximum # iterations   MaxIter         ....   125
 SCF integral mode      SCFMode         .... Direct
   Integral package                     .... SHARK and LIBINT hybrid scheme
 Reset frequency        DirectResetFreq ....    20
 Integral Threshold     Thresh          ....  2.500e-11 Eh
 Primitive CutOff       TCut            ....  2.500e-12 Eh

Convergence Tolerance:
 Convergence Check Mode ConvCheckMode   .... Total+1el-Energy
 Convergence forced     ConvForced      .... 1
 Energy Change          TolE            ....  1.000e-08 Eh
 1-El. energy change                    ....  1.000e-05 Eh
 Orbital Gradient       TolG            ....  1.000e-05
 Orbital Rotation angle TolX            ....  1.000e-05
 DIIS Error             TolErr          ....  5.000e-07


Diagonalization of the overlap matrix:
Smallest eigenvalue                        ... 2.261e-04
Time for diagonalization                   ...    0.350 sec
Threshold for overlap eigenvalues          ... 1.000e-08
Number of eigenvalues below threshold      ... 0
Time for construction of square roots      ...    0.187 sec
Total time needed                          ...    0.542 sec

Time for model grid setup =    0.999 sec

------------------------------
INITIAL GUESS: MODEL POTENTIAL
------------------------------
Loading Hartree-Fock densities                     ... done
Calculating cut-offs                               ... done
Initializing the effective Hamiltonian             ... done
Setting up the integral package (SHARK)            ... done
Starting the Coulomb interaction                   ... done (   1.1 sec)
Reading the grid                                   ... done
Mapping shells                                     ... done
Starting the XC term evaluation                    ... done (   0.2 sec)
Transforming the Hamiltonian                       ... done (   0.2 sec)
Diagonalizing the Hamiltonian                      ... done (   0.3 sec)
Back transforming the eigenvectors                 ... done (   0.1 sec)
Now organizing SCF variables                       ... done
                      ------------------
                      INITIAL GUESS DONE (   2.9 sec)
                      ------------------
--------------
SCF ITERATIONS
--------------
ITER       Energy         Delta-E        Max-DP      RMS-DP      [F,P]     Damp
               ***  Starting incremental Fock matrix formation  ***
  0  -2121.6455089533   0.000000000000 0.06930683  0.00121272  0.2347508 0.7000
  1  -2122.3144642022  -0.668955248950 0.05266962  0.00098322  0.1451719 0.7000
                               ***Turning on DIIS***
  2  -2122.7305196537  -0.416055451464 0.11723240  0.00222353  0.0805706 0.0000
  3  -2117.7248657298   5.005653923927 0.03440475  0.00068798  0.0443521 0.0000
  4  -2123.4048517062  -5.679985976396 0.00909813  0.00023062  0.0072381 0.0000
  5  -2123.5802561337  -0.175404427571 0.00525666  0.00013866  0.0051019 0.0000
  6  -2123.5610909881   0.019165145659 0.00414690  0.00009381  0.0023148 0.0000
  7  -2123.6671912806  -0.106100292533 0.00366260  0.00007803  0.0017974 0.0000
  8  -2123.6957405983  -0.028549317671 0.00349522  0.00007827  0.0016831 0.0000
  9  -2123.6546485142   0.041092084086 0.00287629  0.00005670  0.0013426 0.0000
 10  -2123.6780250012  -0.023376486992 0.00285082  0.00005430  0.0010177 0.0000
                      *** Initiating the SOSCF procedure ***
                           *** Shutting down DIIS ***
                      *** Re-Reading the Fockian *** 
                      *** Removing any level shift *** 
ITER      Energy       Delta-E        Grad      Rot      Max-DP    RMS-DP
 11  -2123.67163296   0.0063920378  0.003218  0.003218  0.007538  0.000118
               *** Restarting incremental Fock matrix formation ***
 12  -2123.61158338   0.0600495869  0.001134  0.010096  0.001823  0.000049
 13  -2123.61174581  -0.0001624326  0.001280  0.023711  0.005915  0.000093
 14  -2123.61202791  -0.0002820960  0.000738  0.038830  0.010296  0.000154
 15  -2123.61222169  -0.0001937805  0.000663  0.007723  0.002150  0.000031
 16  -2123.61225706  -0.0000353731  0.000456  0.005135  0.001376  0.000028
 17  -2123.61229196  -0.0000349002  0.000252  0.010760  0.002357  0.000048
 18  -2123.61231675  -0.0000247915  0.000164  0.002777  0.000680  0.000012
 19  -2123.61232416  -0.0000074060  0.000168  0.003732  0.000839  0.000013
 20  -2123.61232910  -0.0000049484  0.000116  0.003214  0.000745  0.000011
 21  -2123.61233149  -0.0000023878  0.000067  0.002028  0.000369  0.000006
 22  -2123.61233279  -0.0000012933  0.000060  0.002871  0.000469  0.000010
 23  -2123.61233396  -0.0000011708  0.000035  0.000950  0.000221  0.000004
 24  -2123.61233429  -0.0000003334  0.000024  0.000726  0.000163  0.000003
 25  -2123.61233447  -0.0000001753  0.000019  0.000351  0.000108  0.000002
 26  -2123.61233455  -0.0000000817  0.000019  0.000418  0.000105  0.000002
 27  -2123.61233460  -0.0000000553  0.000012  0.000483  0.000121  0.000002
 28  -2123.61233465  -0.0000000431  0.000009  0.000438  0.000104  0.000002
 29  -2123.61233467  -0.0000000266  0.000006  0.000208  0.000046  0.000001
 30  -2123.61233468  -0.0000000056  0.000003  0.000064  0.000014  0.000000
 31  -2123.61233468  -0.0000000036  0.000004  0.000042  0.000016  0.000000
               *** Restarting incremental Fock matrix formation ***
                  ***Gradient check signals convergence***
              ***Rediagonalizing the Fockian in SOSCF/NRSCF***

               *****************************************************
               *                     SUCCESS                       *
               *           SCF CONVERGED AFTER  32 CYCLES          *
               *****************************************************


----------------
TOTAL SCF ENERGY
----------------

Total Energy       :        -2123.61233476 Eh          -57786.42943 eV

Components:
Nuclear Repulsion  :         6222.47984483 Eh          169322.28476 eV
Electronic Energy  :        -8346.09217960 Eh         -227108.71419 eV
One Electron Energy:       -15286.40110795 Eh         -415964.12135 eV
Two Electron Energy:         6940.30892835 Eh          188855.40716 eV

Virial components:
Potential Energy   :        -4245.60085208 Eh         -115528.67255 eV
Kinetic Energy     :         2121.98851731 Eh           57742.24312 eV
Virial Ratio       :            2.00076523


---------------
SCF CONVERGENCE
---------------

  Last Energy change         ...   -8.3777e-08  Tolerance :   1.0000e-08
  Last MAX-Density change    ...    1.5679e-05  Tolerance :   1.0000e-07
  Last RMS-Density change    ...    2.2767e-07  Tolerance :   5.0000e-09
  Last Orbital Gradient      ...    2.0022e-06  Tolerance :   1.0000e-05
  Last Orbital Rotation      ...    4.5067e-05  Tolerance :   1.0000e-05

             **** THE GBW FILE WAS UPDATED (/scratch/allen/tmpyp4_amber_gaff2/conf1/conf1/Conf78.orca.gbw) ****
             **** DENSITY /scratch/allen/tmpyp4_amber_gaff2/conf1/conf1/Conf78.orca.scfp WAS UPDATED ****
             **** ENERGY FILE WAS UPDATED (/scratch/allen/tmpyp4_amber_gaff2/conf1/conf1/Conf78.orca.en.tmp) ****
             **** THE GBW FILE WAS UPDATED (/scratch/allen/tmpyp4_amber_gaff2/conf1/conf1/Conf78.orca.gbw) ****
             **** DENSITY /scratch/allen/tmpyp4_amber_gaff2/conf1/conf1/Conf78.orca.scfp WAS UPDATED ****
----------------
ORBITAL ENERGIES
----------------

  NO   OCC          E(Eh)            E(eV) 
   0   2.0000     -15.695317      -427.0913 
   1   2.0000     -15.632533      -425.3828 
   2   2.0000     -15.622234      -425.1026 
   3   2.0000     -15.589587      -424.2142 
   4   2.0000     -15.519838      -422.3163 
   5   2.0000     -15.507265      -421.9741 
   6   2.0000     -15.449205      -420.3942 
   7   2.0000     -15.430794      -419.8933 
   8   2.0000     -11.339774      -308.5709 
   9   2.0000     -11.337931      -308.5208 
  10   2.0000     -11.336118      -308.4714 
  11   2.0000     -11.298695      -307.4531 
  12   2.0000     -11.292633      -307.2882 
  13   2.0000     -11.292237      -307.2774 
  14   2.0000     -11.291855      -307.2670 
  15   2.0000     -11.285042      -307.0816 
  16   2.0000     -11.283553      -307.0411 
  17   2.0000     -11.275688      -306.8271 
  18   2.0000     -11.271982      -306.7262 
  19   2.0000     -11.271551      -306.7145 
  20   2.0000     -11.271465      -306.7121 
  21   2.0000     -11.253985      -306.2365 
  22   2.0000     -11.250871      -306.1518 
  23   2.0000     -11.236042      -305.7483 
  24   2.0000     -11.229393      -305.5673 
  25   2.0000     -11.228500      -305.5430 
  26   2.0000     -11.226468      -305.4877 
  27   2.0000     -11.221676      -305.3573 
  28   2.0000     -11.221389      -305.3495 
  29   2.0000     -11.206796      -304.9524 
  30   2.0000     -11.205884      -304.9276 
  31   2.0000     -11.198072      -304.7150 
  32   2.0000     -11.197284      -304.6936 
  33   2.0000     -11.195563      -304.6468 
  34   2.0000     -11.188880      -304.4649 
  35   2.0000     -11.187780      -304.4350 
  36   2.0000     -11.187627      -304.4308 
  37   2.0000     -11.183968      -304.3312 
  38   2.0000     -11.183645      -304.3225 
  39   2.0000     -11.171545      -303.9932 
  40   2.0000     -11.165656      -303.8329 
  41   2.0000     -11.163066      -303.7625 
  42   2.0000     -11.162639      -303.7508 
  43   2.0000     -11.162169      -303.7381 
  44   2.0000     -11.156965      -303.5964 
  45   2.0000     -11.151082      -303.4364 
  46   2.0000     -11.150771      -303.4279 
  47   2.0000     -11.144683      -303.2622 
  48   2.0000     -11.144078      -303.2458 
  49   2.0000     -11.136473      -303.0388 
  50   2.0000     -11.123069      -302.6741 
  51   2.0000     -11.118584      -302.5521 
  52   2.0000      -1.371894       -37.3311 
  53   2.0000      -1.320082       -35.9213 
  54   2.0000      -1.310765       -35.6677 
  55   2.0000      -1.283088       -34.9146 
  56   2.0000      -1.221672       -33.2434 
  57   2.0000      -1.203455       -32.7477 
  58   2.0000      -1.172311       -31.9002 
  59   2.0000      -1.151155       -31.3245 
  60   2.0000      -1.142153       -31.0796 
  61   2.0000      -1.108617       -30.1670 
  62   2.0000      -1.100295       -29.9405 
  63   2.0000      -1.091933       -29.7130 
  64   2.0000      -1.075875       -29.2760 
  65   2.0000      -1.045125       -28.4393 
  66   2.0000      -1.044207       -28.4143 
  67   2.0000      -1.035550       -28.1787 
  68   2.0000      -1.013656       -27.5830 
  69   2.0000      -1.009741       -27.4764 
  70   2.0000      -1.005106       -27.3503 
  71   2.0000      -0.990138       -26.9430 
  72   2.0000      -0.984274       -26.7835 
  73   2.0000      -0.979461       -26.6525 
  74   2.0000      -0.965820       -26.2813 
  75   2.0000      -0.960449       -26.1351 
  76   2.0000      -0.951555       -25.8931 
  77   2.0000      -0.943269       -25.6677 
  78   2.0000      -0.924587       -25.1593 
  79   2.0000      -0.918336       -24.9892 
  80   2.0000      -0.916462       -24.9382 
  81   2.0000      -0.889140       -24.1947 
  82   2.0000      -0.878800       -23.9134 
  83   2.0000      -0.870617       -23.6907 
  84   2.0000      -0.862821       -23.4785 
  85   2.0000      -0.849630       -23.1196 
  86   2.0000      -0.837041       -22.7770 
  87   2.0000      -0.829700       -22.5773 
  88   2.0000      -0.822056       -22.3693 
  89   2.0000      -0.795492       -21.6464 
  90   2.0000      -0.789664       -21.4879 
  91   2.0000      -0.759765       -20.6743 
  92   2.0000      -0.733931       -19.9713 
  93   2.0000      -0.727840       -19.8055 
  94   2.0000      -0.723562       -19.6891 
  95   2.0000      -0.720744       -19.6124 
  96   2.0000      -0.716727       -19.5031 
  97   2.0000      -0.707372       -19.2486 
  98   2.0000      -0.700985       -19.0748 
  99   2.0000      -0.696187       -18.9442 
 100   2.0000      -0.692644       -18.8478 
 101   2.0000      -0.692019       -18.8308 
 102   2.0000      -0.683927       -18.6106 
 103   2.0000      -0.675331       -18.3767 
 104   2.0000      -0.671973       -18.2853 
 105   2.0000      -0.669775       -18.2255 
 106   2.0000      -0.665452       -18.1079 
 107   2.0000      -0.655157       -17.8277 
 108   2.0000      -0.654115       -17.7994 
 109   2.0000      -0.652118       -17.7450 
 110   2.0000      -0.649097       -17.6628 
 111   2.0000      -0.644843       -17.5471 
 112   2.0000      -0.642337       -17.4789 
 113   2.0000      -0.638863       -17.3843 
 114   2.0000      -0.632917       -17.2225 
 115   2.0000      -0.624251       -16.9867 
 116   2.0000      -0.622872       -16.9492 
 117   2.0000      -0.620163       -16.8755 
 118   2.0000      -0.614202       -16.7133 
 119   2.0000      -0.611435       -16.6380 
 120   2.0000      -0.609789       -16.5932 
 121   2.0000      -0.603485       -16.4216 
 122   2.0000      -0.592560       -16.1244 
 123   2.0000      -0.586990       -15.9728 
 124   2.0000      -0.580450       -15.7948 
 125   2.0000      -0.579530       -15.7698 
 126   2.0000      -0.578292       -15.7361 
 127   2.0000      -0.576330       -15.6827 
 128   2.0000      -0.573194       -15.5974 
 129   2.0000      -0.557915       -15.1816 
 130   2.0000      -0.555079       -15.1045 
 131   2.0000      -0.551303       -15.0017 
 132   2.0000      -0.543784       -14.7971 
 133   2.0000      -0.539017       -14.6674 
 134   2.0000      -0.534621       -14.5478 
 135   2.0000      -0.531115       -14.4524 
 136   2.0000      -0.519243       -14.1293 
 137   2.0000      -0.515821       -14.0362 
 138   2.0000      -0.514932       -14.0120 
 139   2.0000      -0.512677       -13.9506 
 140   2.0000      -0.510225       -13.8839 
 141   2.0000      -0.505282       -13.7494 
 142   2.0000      -0.502271       -13.6675 
 143   2.0000      -0.500624       -13.6227 
 144   2.0000      -0.496105       -13.4997 
 145   2.0000      -0.493630       -13.4324 
 146   2.0000      -0.491688       -13.3795 
 147   2.0000      -0.478554       -13.0221 
 148   2.0000      -0.477841       -13.0027 
 149   2.0000      -0.464760       -12.6467 
 150   2.0000      -0.462903       -12.5962 
 151   2.0000      -0.458201       -12.4683 
 152   2.0000      -0.450700       -12.2642 
 153   2.0000      -0.441536       -12.0148 
 154   2.0000      -0.437159       -11.8957 
 155   2.0000      -0.435456       -11.8494 
 156   2.0000      -0.423298       -11.5185 
 157   2.0000      -0.417217       -11.3530 
 158   2.0000      -0.408184       -11.1073 
 159   2.0000      -0.395432       -10.7602 
 160   2.0000      -0.382188       -10.3999 
 161   2.0000      -0.371795       -10.1171 
 162   2.0000      -0.356284        -9.6950 
 163   2.0000      -0.355555        -9.6752 
 164   2.0000      -0.348178        -9.4744 
 165   2.0000      -0.339275        -9.2321 
 166   2.0000      -0.338685        -9.2161 
 167   2.0000      -0.326006        -8.8711 
 168   2.0000      -0.316367        -8.6088 
 169   2.0000      -0.301184        -8.1956 
 170   2.0000      -0.298591        -8.1251 
 171   2.0000      -0.284383        -7.7385 
 172   2.0000      -0.278870        -7.5884 
 173   2.0000      -0.263815        -7.1788 
 174   2.0000      -0.234423        -6.3790 
 175   2.0000      -0.184339        -5.0161 
 176   2.0000      -0.174379        -4.7451 
 177   2.0000      -0.062583        -1.7030 
 178   2.0000      -0.051054        -1.3893 
 179   0.0000       0.034395         0.9359 
 180   0.0000       0.059422         1.6170 
 181   0.0000       0.087671         2.3857 
 182   0.0000       0.097439         2.6514 
 183   0.0000       0.103021         2.8033 
 184   0.0000       0.134657         3.6642 
 185   0.0000       0.138908         3.7799 
 186   0.0000       0.146532         3.9874 
 187   0.0000       0.162914         4.4331 
 188   0.0000       0.165518         4.5040 
 189   0.0000       0.170712         4.6453 
 190   0.0000       0.171339         4.6624 
 191   0.0000       0.174068         4.7366 
 192   0.0000       0.177444         4.8285 
 193   0.0000       0.188744         5.1360 
 194   0.0000       0.204516         5.5652 
 195   0.0000       0.210039         5.7154 
 196   0.0000       0.210606         5.7309 
 197   0.0000       0.211007         5.7418 
 198   0.0000       0.215689         5.8692 
 199   0.0000       0.227880         6.2009 
 200   0.0000       0.229617         6.2482 
 201   0.0000       0.232668         6.3312 
 202   0.0000       0.239128         6.5070 
 203   0.0000       0.240586         6.5467 
 204   0.0000       0.245362         6.6767 
 205   0.0000       0.249267         6.7829 
 206   0.0000       0.255016         6.9393 
 207   0.0000       0.257310         7.0018 
 208   0.0000       0.259511         7.0616 
 209   0.0000       0.260350         7.0845 
 210   0.0000       0.262157         7.1336 
 211   0.0000       0.263471         7.1694 
 212   0.0000       0.266933         7.2636 
 213   0.0000       0.273178         7.4336 
 214   0.0000       0.278552         7.5798 
 215   0.0000       0.279031         7.5928 
 216   0.0000       0.280710         7.6385 
 217   0.0000       0.284943         7.7537 
 218   0.0000       0.287790         7.8312 
 219   0.0000       0.288579         7.8526 
 220   0.0000       0.293150         7.9770 
 221   0.0000       0.294051         8.0015 
 222   0.0000       0.296486         8.0678 
 223   0.0000       0.298058         8.1106 
 224   0.0000       0.300559         8.1786 
 225   0.0000       0.301479         8.2037 
 226   0.0000       0.304256         8.2792 
 227   0.0000       0.305366         8.3094 
 228   0.0000       0.313408         8.5283 
 229   0.0000       0.316052         8.6002 
 230   0.0000       0.324069         8.8184 
 231   0.0000       0.326099         8.8736 
 232   0.0000       0.326598         8.8872 
 233   0.0000       0.332306         9.0425 
 234   0.0000       0.336924         9.1682 
 235   0.0000       0.352679         9.5969 
 236   0.0000       0.358746         9.7620 
 237   0.0000       0.366484         9.9725 
 238   0.0000       0.386548        10.5185 
 239   0.0000       0.396311        10.7842 
 240   0.0000       0.401442        10.9238 
 241   0.0000       0.403136        10.9699 
 242   0.0000       0.407671        11.0933 
 243   0.0000       0.419012        11.4019 
 244   0.0000       0.425749        11.5852 
 245   0.0000       0.429042        11.6748 
 246   0.0000       0.435908        11.8616 
 247   0.0000       0.438954        11.9445 
 248   0.0000       0.441420        12.0117 
 249   0.0000       0.445480        12.1221 
 250   0.0000       0.449220        12.2239 
 251   0.0000       0.455743        12.4014 
 252   0.0000       0.463077        12.6010 
 253   0.0000       0.469732        12.7821 
 254   0.0000       0.470760        12.8100 
 255   0.0000       0.471755        12.8371 
 256   0.0000       0.477013        12.9802 
 257   0.0000       0.484237        13.1768 
 258   0.0000       0.488617        13.2959 
 259   0.0000       0.495118        13.4729 
 260   0.0000       0.502683        13.6787 
 261   0.0000       0.503587        13.7033 
 262   0.0000       0.505532        13.7562 
 263   0.0000       0.508192        13.8286 
 264   0.0000       0.514102        13.9894 
 265   0.0000       0.517271        14.0757 
 266   0.0000       0.521674        14.1955 
 267   0.0000       0.524659        14.2767 
 268   0.0000       0.530267        14.4293 
 269   0.0000       0.539468        14.6797 
 270   0.0000       0.542513        14.7625 
 271   0.0000       0.545973        14.8567 
 272   0.0000       0.548981        14.9385 
 273   0.0000       0.553039        15.0490 
 274   0.0000       0.557435        15.1686 
 275   0.0000       0.560285        15.2461 
 276   0.0000       0.566643        15.4191 
 277   0.0000       0.569192        15.4885 
 278   0.0000       0.578238        15.7346 
 279   0.0000       0.583322        15.8730 
 280   0.0000       0.590397        16.0655 
 281   0.0000       0.592793        16.1307 
 282   0.0000       0.594522        16.1778 
 283   0.0000       0.597456        16.2576 
 284   0.0000       0.601589        16.3701 
 285   0.0000       0.602811        16.4033 
 286   0.0000       0.608277        16.5521 
 287   0.0000       0.611363        16.6360 
 288   0.0000       0.616153        16.7664 
 289   0.0000       0.617754        16.8100 
 290   0.0000       0.622843        16.9484 
 291   0.0000       0.627181        17.0665 
 292   0.0000       0.630608        17.1597 
 293   0.0000       0.633174        17.2295 
 294   0.0000       0.643643        17.5144 
 295   0.0000       0.647864        17.6293 
 296   0.0000       0.655740        17.8436 
 297   0.0000       0.658871        17.9288 
 298   0.0000       0.661905        18.0114 
 299   0.0000       0.664221        18.0744 
 300   0.0000       0.667095        18.1526 
 301   0.0000       0.673407        18.3243 
 302   0.0000       0.674204        18.3460 
 303   0.0000       0.676006        18.3951 
 304   0.0000       0.678829        18.4719 
 305   0.0000       0.682379        18.5685 
 306   0.0000       0.684120        18.6159 
 307   0.0000       0.688642        18.7389 
 308   0.0000       0.689627        18.7657 
 309   0.0000       0.695309        18.9203 
 310   0.0000       0.699554        19.0358 
 311   0.0000       0.704836        19.1796 
 312   0.0000       0.705765        19.2048 
 313   0.0000       0.709374        19.3030 
 314   0.0000       0.712185        19.3795 
 315   0.0000       0.714258        19.4359 
 316   0.0000       0.716613        19.5000 
 317   0.0000       0.717893        19.5349 
 318   0.0000       0.721732        19.6393 
 319   0.0000       0.723322        19.6826 
 320   0.0000       0.726563        19.7708 
 321   0.0000       0.728513        19.8238 
 322   0.0000       0.730338        19.8735 
 323   0.0000       0.732893        19.9430 
 324   0.0000       0.739191        20.1144 
 325   0.0000       0.741685        20.1823 
 326   0.0000       0.744479        20.2583 
 327   0.0000       0.745979        20.2991 
 328   0.0000       0.750083        20.4108 
 329   0.0000       0.755244        20.5512 
 330   0.0000       0.756691        20.5906 
 331   0.0000       0.758488        20.6395 
 332   0.0000       0.760737        20.7007 
 333   0.0000       0.762438        20.7470 
 334   0.0000       0.765575        20.8323 
 335   0.0000       0.767146        20.8751 
 336   0.0000       0.777070        21.1451 
 337   0.0000       0.777387        21.1538 
 338   0.0000       0.783608        21.3231 
 339   0.0000       0.785396        21.3717 
 340   0.0000       0.788068        21.4444 
 341   0.0000       0.790143        21.5009 
 342   0.0000       0.793120        21.5819 
 343   0.0000       0.797486        21.7007 
 344   0.0000       0.799889        21.7661 
 345   0.0000       0.804289        21.8858 
 346   0.0000       0.805538        21.9198 
 347   0.0000       0.809658        22.0319 
 348   0.0000       0.813057        22.1244 
 349   0.0000       0.814791        22.1716 
 350   0.0000       0.817441        22.2437 
 351   0.0000       0.820542        22.3281 
 352   0.0000       0.823155        22.3992 
 353   0.0000       0.824692        22.4410 
 354   0.0000       0.826596        22.4928 
 355   0.0000       0.830754        22.6060 
 356   0.0000       0.834651        22.7120 
 357   0.0000       0.835756        22.7421 
 358   0.0000       0.838786        22.8245 
 359   0.0000       0.839666        22.8485 
 360   0.0000       0.843611        22.9558 
 361   0.0000       0.845666        23.0118 
 362   0.0000       0.847319        23.0567 
 363   0.0000       0.848410        23.0864 
 364   0.0000       0.851131        23.1604 
 365   0.0000       0.853745        23.2316 
 366   0.0000       0.855931        23.2911 
 367   0.0000       0.858478        23.3604 
 368   0.0000       0.862332        23.4652 
 369   0.0000       0.865497        23.5514 
 370   0.0000       0.867350        23.6018 
 371   0.0000       0.869973        23.6732 
 372   0.0000       0.871059        23.7027 
 373   0.0000       0.872716        23.7478 
 374   0.0000       0.874057        23.7843 
 375   0.0000       0.877257        23.8714 
 376   0.0000       0.878487        23.9048 
 377   0.0000       0.884474        24.0677 
 378   0.0000       0.886421        24.1208 
 379   0.0000       0.890856        24.2414 
 380   0.0000       0.891831        24.2679 
 381   0.0000       0.896897        24.4058 
 382   0.0000       0.897343        24.4179 
 383   0.0000       0.904095        24.6017 
 384   0.0000       0.905228        24.6325 
 385   0.0000       0.906244        24.6602 
 386   0.0000       0.907553        24.6958 
 387   0.0000       0.913806        24.8659 
 388   0.0000       0.915903        24.9230 
 389   0.0000       0.918219        24.9860 
 390   0.0000       0.922096        25.0915 
 391   0.0000       0.922525        25.1032 
 392   0.0000       0.926456        25.2101 
 393   0.0000       0.929477        25.2923 
 394   0.0000       0.930288        25.3144 
 395   0.0000       0.933224        25.3943 
 396   0.0000       0.935417        25.4540 
 397   0.0000       0.936807        25.4918 
 398   0.0000       0.939572        25.5671 
 399   0.0000       0.942147        25.6371 
 400   0.0000       0.947665        25.7873 
 401   0.0000       0.950136        25.8545 
 402   0.0000       0.953809        25.9545 
 403   0.0000       0.955544        26.0017 
 404   0.0000       0.956777        26.0352 
 405   0.0000       0.957398        26.0521 
 406   0.0000       0.963225        26.2107 
 407   0.0000       0.964486        26.2450 
 408   0.0000       0.966137        26.2899 
 409   0.0000       0.971815        26.4444 
 410   0.0000       0.976526        26.5726 
 411   0.0000       0.980545        26.6820 
 412   0.0000       0.987648        26.8753 
 413   0.0000       0.993715        27.0404 
 414   0.0000       0.994368        27.0581 
 415   0.0000       0.996849        27.1256 
 416   0.0000       1.000746        27.2317 
 417   0.0000       1.003339        27.3023 
 418   0.0000       1.008508        27.4429 
 419   0.0000       1.017008        27.6742 
 420   0.0000       1.021660        27.8008 
 421   0.0000       1.027261        27.9532 
 422   0.0000       1.034728        28.1564 
 423   0.0000       1.035225        28.1699 
 424   0.0000       1.042163        28.3587 
 425   0.0000       1.044894        28.4330 
 426   0.0000       1.054177        28.6856 
 427   0.0000       1.062066        28.9003 
 428   0.0000       1.071437        29.1553 
 429   0.0000       1.074395        29.2358 
 430   0.0000       1.078855        29.3571 
 431   0.0000       1.083279        29.4775 
 432   0.0000       1.083413        29.4812 
 433   0.0000       1.086519        29.5657 
 434   0.0000       1.092190        29.7200 
 435   0.0000       1.099480        29.9184 
 436   0.0000       1.108616        30.1670 
 437   0.0000       1.110475        30.2176 
 438   0.0000       1.113633        30.3035 
 439   0.0000       1.115307        30.3490 
 440   0.0000       1.116844        30.3909 
 441   0.0000       1.122037        30.5322 
 442   0.0000       1.127796        30.6889 
 443   0.0000       1.130517        30.7629 
 444   0.0000       1.132115        30.8064 
 445   0.0000       1.137175        30.9441 
 446   0.0000       1.140133        31.0246 
 447   0.0000       1.142664        31.0935 
 448   0.0000       1.146179        31.1891 
 449   0.0000       1.147671        31.2297 
 450   0.0000       1.153280        31.3823 
 451   0.0000       1.157144        31.4875 
 452   0.0000       1.158481        31.5239 
 453   0.0000       1.161687        31.6111 
 454   0.0000       1.163100        31.6496 
 455   0.0000       1.168029        31.7837 
 456   0.0000       1.168717        31.8024 
 457   0.0000       1.177623        32.0448 
 458   0.0000       1.181996        32.1637 
 459   0.0000       1.188714        32.3465 
 460   0.0000       1.189598        32.3706 
 461   0.0000       1.194585        32.5063 
 462   0.0000       1.197847        32.5951 
 463   0.0000       1.203452        32.7476 
 464   0.0000       1.208932        32.8967 
 465   0.0000       1.209805        32.9205 
 466   0.0000       1.211173        32.9577 
 467   0.0000       1.212911        33.0050 
 468   0.0000       1.225472        33.3468 
 469   0.0000       1.226393        33.3719 
 470   0.0000       1.226924        33.3863 
 471   0.0000       1.230863        33.4935 
 472   0.0000       1.235260        33.6131 
 473   0.0000       1.239099        33.7176 
 474   0.0000       1.240825        33.7646 
 475   0.0000       1.241828        33.7919 
 476   0.0000       1.246250        33.9122 
 477   0.0000       1.248770        33.9807 
 478   0.0000       1.254987        34.1499 
 479   0.0000       1.255960        34.1764 
 480   0.0000       1.260502        34.3000 
 481   0.0000       1.263692        34.3868 
 482   0.0000       1.268494        34.5175 
 483   0.0000       1.270074        34.5605 
 484   0.0000       1.274115        34.6704 
 485   0.0000       1.277335        34.7580 
 486   0.0000       1.279104        34.8062 
 487   0.0000       1.285882        34.9906 
 488   0.0000       1.288324        35.0571 
 489   0.0000       1.293387        35.1948 
 490   0.0000       1.296327        35.2748 
 491   0.0000       1.299377        35.3578 
 492   0.0000       1.302310        35.4377 
 493   0.0000       1.308754        35.6130 
 494   0.0000       1.312297        35.7094 
 495   0.0000       1.315010        35.7832 
 496   0.0000       1.316331        35.8192 
 497   0.0000       1.322981        36.0001 
 498   0.0000       1.326314        36.0908 
 499   0.0000       1.330010        36.1914 
 500   0.0000       1.334522        36.3142 
 501   0.0000       1.339074        36.4381 
[...]
      pz      :     0.021789  p :     0.079300
      px      :     0.042897
      py      :     0.014614
 77 H s       :     0.894862  s :     0.894862
      pz      :     0.047174  p :     0.078397
      px      :     0.015004
      py      :     0.016220
 78 H s       :     0.895237  s :     0.895237
      pz      :     0.025474  p :     0.078316
      px      :     0.020691
      py      :     0.032151
 79 H s       :     0.907530  s :     0.907530
      pz      :     0.022555  p :     0.087196
      px      :     0.021887
      py      :     0.042753
 80 H s       :     0.878710  s :     0.878710
      pz      :     0.038232  p :     0.083273
      px      :     0.029519
      py      :     0.015522
 81 H s       :     0.888400  s :     0.888400
      pz      :     0.037585  p :     0.083371
      px      :     0.016076
      py      :     0.029709
 82 H s       :     0.914071  s :     0.914071
      pz      :     0.022410  p :     0.087118
      px      :     0.030984
      py      :     0.033725
 83 H s       :     0.872110  s :     0.872110
      pz      :     0.039201  p :     0.083699
      px      :     0.015240
      py      :     0.029258
 84 H s       :     0.888350  s :     0.888350
      pz      :     0.035820  p :     0.084349
      px      :     0.031805
      py      :     0.016724
 85 H s       :     0.895577  s :     0.895577
      pz      :     0.022512  p :     0.079629
      px      :     0.014140
      py      :     0.042978
 86 H s       :     0.890642  s :     0.890642
      pz      :     0.024707  p :     0.078898
      px      :     0.033001
      py      :     0.021189
 87 H s       :     0.891076  s :     0.891076
      pz      :     0.047832  p :     0.078610
      px      :     0.015652
      py      :     0.015125
 88 H s       :     0.917658  s :     0.917658
      pz      :     0.022428  p :     0.086822
      px      :     0.042066
      py      :     0.022328
 89 H s       :     0.874897  s :     0.874897
      pz      :     0.037819  p :     0.084022
      px      :     0.030475
      py      :     0.015728


                      *****************************
                      * MAYER POPULATION ANALYSIS *
                      *****************************

  NA   - Mulliken gross atomic population
  ZA   - Total nuclear charge
  QA   - Mulliken gross atomic charge
  VA   - Mayer's total valence
  BVA  - Mayer's bonded valence
  FA   - Mayer's free valence

  ATOM       NA         ZA         QA         VA         BVA        FA
  0 C      5.7694     6.0000     0.2306     3.8078     3.8078     0.0000
  1 N      7.4206     7.0000    -0.4206     3.4527     3.4527    -0.0000
  2 C      6.0662     6.0000    -0.0662     3.9200     3.9200    -0.0000
  3 N      7.3419     7.0000    -0.3419     3.4265     3.4265    -0.0000
  4 C      6.0708     6.0000    -0.0708     3.9654     3.9654    -0.0000
  5 N      7.5657     7.0000    -0.5657     3.0703     3.0703     0.0000
  6 C      6.0314     6.0000    -0.0314     3.9672     3.9672    -0.0000
  7 N      7.3368     7.0000    -0.3368     3.4457     3.4457    -0.0000
  8 C      5.7728     6.0000     0.2272     3.8078     3.8078    -0.0000
  9 N      7.5658     7.0000    -0.5658     3.0903     3.0903    -0.0000
 10 C      5.8938     6.0000     0.1062     3.8671     3.8671    -0.0000
 11 N      7.4392     7.0000    -0.4392     3.3762     3.3762    -0.0000
 12 C      6.0605     6.0000    -0.0605     3.9103     3.9103     0.0000
 13 N      7.4494     7.0000    -0.4494     3.3273     3.3273    -0.0000
 14 C      5.7744     6.0000     0.2256     3.8060     3.8060    -0.0000
 15 N      7.4413     7.0000    -0.4413     3.3658     3.3658     0.0000
 16 C      5.7483     6.0000     0.2517     3.8044     3.8044    -0.0000
 17 C      6.0371     6.0000    -0.0371     3.9704     3.9704    -0.0000
 18 C      6.1867     6.0000    -0.1867     3.6930     3.6930    -0.0000
 19 C      5.7657     6.0000     0.2343     3.8938     3.8938     0.0000
 20 C      5.8077     6.0000     0.1923     3.8216     3.8216     0.0000
 21 C      6.0713     6.0000    -0.0713     3.8952     3.8952    -0.0000
 22 C      6.0892     6.0000    -0.0892     3.9855     3.9855     0.0000
 23 C      6.0640     6.0000    -0.0640     3.9882     3.9882     0.0000
 24 C      5.7841     6.0000     0.2159     3.8288     3.8288     0.0000
 25 C      5.8854     6.0000     0.1146     3.8927     3.8927     0.0000
 26 C      6.0674     6.0000    -0.0674     3.9088     3.9088    -0.0000
 27 C      5.7562     6.0000     0.2438     3.9013     3.9013    -0.0000
 28 C      6.0418     6.0000    -0.0418     3.9895     3.9895     0.0000
 29 C      6.1960     6.0000    -0.1960     3.7267     3.7267    -0.0000
 30 C      5.7765     6.0000     0.2235     3.7820     3.7820    -0.0000
 31 C      5.8092     6.0000     0.1908     3.8327     3.8327     0.0000
 32 C      6.0660     6.0000    -0.0660     3.9128     3.9128     0.0000
 33 C      6.0996     6.0000    -0.0996     3.9854     3.9854     0.0000
 34 C      6.0511     6.0000    -0.0511     3.9985     3.9985    -0.0000
 35 C      5.8172     6.0000     0.1828     3.8297     3.8297     0.0000
 36 C      5.8800     6.0000     0.1200     3.9077     3.9077     0.0000
 37 C      6.0700     6.0000    -0.0700     3.9148     3.9148     0.0000
 38 C      5.7575     6.0000     0.2425     3.7948     3.7948     0.0000
 39 C      6.0642     6.0000    -0.0642     3.9979     3.9979    -0.0000
 40 C      6.2023     6.0000    -0.2023     3.7509     3.7509     0.0000
 41 C      5.7820     6.0000     0.2180     3.8758     3.8758    -0.0000
 42 C      5.7889     6.0000     0.2111     3.8318     3.8318     0.0000
 43 C      6.0763     6.0000    -0.0763     3.9050     3.9050     0.0000
 44 C      6.0912     6.0000    -0.0912     3.9834     3.9834    -0.0000
 45 C      6.0405     6.0000    -0.0405     3.9958     3.9958    -0.0000
 46 C      5.8123     6.0000     0.1877     3.8209     3.8209     0.0000
 47 C      5.8836     6.0000     0.1164     3.8962     3.8962    -0.0000
 48 C      6.0803     6.0000    -0.0803     3.8987     3.8987     0.0000
 49 C      5.7888     6.0000     0.2112     3.8666     3.8666    -0.0000
 50 C      6.0649     6.0000    -0.0649     3.9901     3.9901     0.0000
 51 C      6.1885     6.0000    -0.1885     3.7414     3.7414    -0.0000
 52 H      0.9231     1.0000     0.0769     0.9826     0.9826    -0.0000
 53 H      1.0084     1.0000    -0.0084     1.0018     1.0018    -0.0000
 54 H      0.9365     1.0000     0.0635     1.0062     1.0062    -0.0000
 55 H      0.9250     1.0000     0.0750     0.9838     0.9838    -0.0000
 56 H      0.9204     1.0000     0.0796     0.9727     0.9727     0.0000
 57 H      0.9275     1.0000     0.0725     0.9849     0.9849     0.0000
 58 H      0.9293     1.0000     0.0707     0.9864     0.9864     0.0000
 59 H      1.0259     1.0000    -0.0259     0.9963     0.9963     0.0000
 60 H      0.9380     1.0000     0.0620     1.0054     1.0054     0.0000
 61 H      0.8235     1.0000     0.1765     1.0436     1.0436     0.0000
 62 H      0.8315     1.0000     0.1685     1.0433     1.0433     0.0000
 63 H      0.9464     1.0000     0.0536     0.9861     0.9861    -0.0000
 64 H      1.0317     1.0000    -0.0317     0.9932     0.9932    -0.0000
 65 H      0.9577     1.0000     0.0423     1.0078     1.0078     0.0000
 66 H      0.9443     1.0000     0.0557     0.9847     0.9847     0.0000
 67 H      0.9409     1.0000     0.0591     0.9717     0.9717    -0.0000
 68 H      0.9435     1.0000     0.0565     0.9865     0.9865     0.0000
 69 H      0.9409     1.0000     0.0591     0.9830     0.9830    -0.0000
 70 H      1.0158     1.0000    -0.0158     0.9975     0.9975     0.0000
 71 H      0.9530     1.0000     0.0470     1.0075     1.0075     0.0000
 72 H      0.9597     1.0000     0.0403     0.9859     0.9859    -0.0000
 73 H      1.0192     1.0000    -0.0192     0.9965     0.9965     0.0000
 74 H      0.9681     1.0000     0.0319     1.0091     1.0091     0.0000
 75 H      0.9609     1.0000     0.0391     0.9866     0.9866    -0.0000
 76 H      0.9515     1.0000     0.0485     0.9704     0.9704     0.0000
 77 H      0.9522     1.0000     0.0478     0.9844     0.9844     0.0000
 78 H      0.9529     1.0000     0.0471     0.9837     0.9837     0.0000
 79 H      1.0123     1.0000    -0.0123     1.0014     1.0014     0.0000
 80 H      0.9681     1.0000     0.0319     1.0064     1.0064     0.0000
 81 H      0.9489     1.0000     0.0511     0.9852     0.9852    -0.0000
 82 H      1.0226     1.0000    -0.0226     0.9952     0.9952    -0.0000
 83 H      0.9569     1.0000     0.0431     1.0105     1.0105    -0.0000
 84 H      0.9497     1.0000     0.0503     0.9863     0.9863     0.0000
 85 H      0.9447     1.0000     0.0553     0.9714     0.9714    -0.0000
 86 H      0.9434     1.0000     0.0566     0.9841     0.9841    -0.0000
 87 H      0.9451     1.0000     0.0549     0.9853     0.9853    -0.0000
 88 H      1.0289     1.0000    -0.0289     0.9916     0.9916    -0.0000
 89 H      0.9602     1.0000     0.0398     1.0062     1.0062    -0.0000

  Mayer bond orders larger than 0.100000
B(  0-C ,  1-N ) :   1.1830 B(  0-C , 17-C ) :   1.5494 B(  0-C , 52-H ) :   0.9675 
B(  1-N ,  8-C ) :   1.1770 B(  1-N , 10-C ) :   0.9341 B(  2-C , 12-C ) :   1.5688 
B(  2-C , 16-C ) :   1.2866 B(  2-C , 53-H ) :   0.9789 B(  3-N , 14-C ) :   1.1808 
B(  3-N , 16-C ) :   1.2022 B(  3-N , 61-H ) :   0.8958 B(  4-C ,  6-C ) :   1.3387 
B(  4-C , 17-C ) :   1.3360 B(  4-C , 18-C ) :   1.0995 B(  5-N , 19-C ) :   1.3735 
B(  5-N , 27-C ) :   1.4418 B(  6-C ,  8-C ) :   1.5472 B(  6-C , 54-H ) :   0.9707 
B(  7-N , 30-C ) :   1.1872 B(  7-N , 38-C ) :   1.2123 B(  7-N , 62-H ) :   0.9009 
B(  8-C , 55-H ) :   0.9682 B(  9-N , 41-C ) :   1.4313 B(  9-N , 49-C ) :   1.3954 
B( 10-C , 56-H ) :   0.9765 B( 10-C , 57-H ) :   0.9808 B( 10-C , 58-H ) :   0.9822 
B( 11-N , 20-C ) :   1.1040 B( 11-N , 24-C ) :   1.1335 B( 11-N , 25-C ) :   0.9608 
B( 12-C , 14-C ) :   1.2864 B( 12-C , 59-H ) :   0.9771 B( 13-N , 31-C ) :   1.0890 
B( 13-N , 35-C ) :   1.0805 B( 13-N , 36-C ) :   0.9781 B( 14-C , 18-C ) :   1.2458 
B( 15-N , 42-C ) :   1.1251 B( 15-N , 46-C ) :   1.0951 B( 15-N , 47-C ) :   0.9651 
B( 16-C , 51-C ) :   1.2336 B( 17-C , 60-H ) :   0.9713 B( 18-C , 19-C ) :   1.2934 
B( 19-C , 21-C ) :   1.1721 B( 20-C , 28-C ) :   1.6268 B( 20-C , 63-H ) :   0.9707 
B( 21-C , 26-C ) :   1.6742 B( 21-C , 64-H ) :   0.9719 B( 22-C , 23-C ) :   1.2622 
B( 22-C , 28-C ) :   1.2795 B( 22-C , 29-C ) :   1.2524 B( 23-C , 24-C ) :   1.6304 
B( 23-C , 65-H ) :   0.9720 B( 24-C , 66-H ) :   0.9690 B( 25-C , 67-H ) :   0.9763 
B( 25-C , 68-H ) :   0.9833 B( 25-C , 69-H ) :   0.9819 B( 26-C , 27-C ) :   1.1799 
B( 26-C , 70-H ) :   0.9752 B( 27-C , 29-C ) :   1.2394 B( 28-C , 71-H ) :   0.9710 
B( 29-C , 30-C ) :   1.1797 B( 30-C , 32-C ) :   1.3461 B( 31-C , 39-C ) :   1.6744 
B( 31-C , 72-H ) :   0.9707 B( 32-C , 37-C ) :   1.5129 B( 32-C , 73-H ) :   0.9772 
B( 33-C , 34-C ) :   1.2401 B( 33-C , 39-C ) :   1.2333 B( 33-C , 40-C ) :   1.3369 
B( 34-C , 35-C ) :   1.6728 B( 34-C , 74-H ) :   0.9709 B( 35-C , 75-H ) :   0.9707 
B( 36-C , 76-H ) :   0.9757 B( 36-C , 77-H ) :   0.9825 B( 36-C , 78-H ) :   0.9837 
B( 37-C , 38-C ) :   1.3422 B( 37-C , 79-H ) :   0.9789 B( 38-C , 40-C ) :   1.1819 
B( 39-C , 80-H ) :   0.9720 B( 40-C , 41-C ) :   1.1794 B( 41-C , 43-C ) :   1.2454 
B( 42-C , 50-C ) :   1.6393 B( 42-C , 81-H ) :   0.9696 B( 43-C , 48-C ) :   1.6058 
B( 43-C , 82-H ) :   0.9753 B( 44-C , 45-C ) :   1.2801 B( 44-C , 50-C ) :   1.2534 
B( 44-C , 51-C ) :   1.2471 B( 45-C , 46-C ) :   1.6316 B( 45-C , 83-H ) :   0.9704 
B( 46-C , 84-H ) :   0.9707 B( 47-C , 85-H ) :   0.9760 B( 47-C , 86-H ) :   0.9826 
B( 47-C , 87-H ) :   0.9829 B( 48-C , 49-C ) :   1.2406 B( 48-C , 88-H ) :   0.9728 
B( 49-C , 51-C ) :   1.2001 B( 50-C , 89-H ) :   0.9720 

-------
TIMINGS
-------

Total SCF time: 0 days 0 hours 25 min 58 sec 

Total time                  ....    1558.827 sec
Sum of individual times     ....    1554.977 sec  ( 99.8%)

Fock matrix formation       ....    1532.761 sec  ( 98.3%)
Diagonalization             ....       6.682 sec  (  0.4%)
Density matrix formation    ....       0.416 sec  (  0.0%)
Population analysis         ....       0.426 sec  (  0.0%)
Initial guess               ....       1.921 sec  (  0.1%)
Orbital Transformation      ....       0.000 sec  (  0.0%)
Orbital Orthonormalization  ....       0.000 sec  (  0.0%)
DIIS solution               ....       2.889 sec  (  0.2%)
SOSCF solution              ....       8.883 sec  (  0.6%)

Maximum memory used throughout the entire SCF-calculation: 302.6 MB


           ************************************************************
           *        Program running with 16 parallel MPI-processes    *
           *              working on a common directory               *
           ************************************************************

------------------------------------------------------------------------------
                                ORCA  MP2 
------------------------------------------------------------------------------

Freezing NCore=104 chemical core electrons

----------
MP2 ENERGY (disk based algorithm)
----------

Dimension of the basis                    ...  918
Memory devoted to MP2                     ... 2000 MB   
Data format for buffers                   ... DOUBLE
Compression type for matrix containers    ... UNCOMPRESSED

-------------------------------
PARTIAL EXCHANGE TRANSFORMATION
-------------------------------

Transformation type                        ... one-operator
Generation of integrals (i,mue|j,nue)      ... ON
Generation of integrals (mue,kappa|nue,tau)... OFF
Generation of integrals (i,mue|a,nue)      ... OFF
Dimension of the basis                     ...  918
Number of internal MOs                     ...  127 (  52- 178)
Pair cutoff                                ... 2.500e-12 Eh
Number of AO pairs in the trafo            ... 421821
Total Number of distinct AO pairs          ... 421821
Memory devoted for trafo                   ... 2000.0 MB 
Max. Number of MO pairs treated together   ...  311      
Number Format for Storage                  ... Double (8 Byte)
Integral package used                      ... LIBINT

Starting integral evaluation:
    ... done with AO integral generation
Closing buffer AOK     (37.85 GB; CompressionRatio= 1.34)
Collecting buffer AOK 
Number of MO pairs included in the trafo   ... 8128
------------------------
SORTING OF (i,mue|j,nue)
------------------------

IBATCH = 1 of  2
IBATCH = 2 of  2
Closing buffer KAO     (51.03 GB; CompressionRatio= 1.00)
Collecting buffer KAO 
N(AO-Batches) Done                         ...  85747333 
N(AO-Batches) Skipped                      ...  81832475 
N(IJ)-pairs Skipped                        ...         0 
TOTAL TIME for half transformation         ...  2528.489 sec
AO-integral generation                     ...   176.400 sec
Half transformation                        ...   314.912 sec
K-integral sorting                         ...  1891.149 sec
Process 10:   Internal MO 132
Process 13:   Internal MO 156
Process  1:   Internal MO  60
Process  4:   Internal MO  84
Process  7:   Internal MO 108

Finished integral transformation - now doing MP2 part

OPERATOR COMBINATION   0   0: ij=( 52..178, 52..178)
Process  5:   Internal MO  93
Process  3:   Internal MO  78
Process  8:   Internal MO 117
Process  1:   Internal MO  63
Process  6:   Internal MO 102
Process  0:   Internal MO  54
Process  2:   Internal MO  69
Process  1:   Internal MO  66
Process  0:   Internal MO  57
Process  4:   Internal MO  87
Process 14:   Internal MO 165
Process  9:   Internal MO 126
Process  2:   Internal MO  72
Process  3:   Internal MO  81
Process 11:   Internal MO 141
Process 12:   Internal MO 150
Process  7:   Internal MO 111
Process  5:   Internal MO  96
Process  2:   Internal MO  75
Process  6:   Internal MO 105
Process  4:   Internal MO  90
Process 10:   Internal MO 135
Process 15:   Internal MO 174
Process  8:   Internal MO 120
Process  7:   Internal MO 114
Process  5:   Internal MO  99
Process  9:   Internal MO 129
Process 13:   Internal MO 159
Process 12:   Internal MO 153
Process  8:   Internal MO 123
Process 11:   Internal MO 144
Process 14:   Internal MO 168
Process 10:   Internal MO 138
Process 15:   Internal MO 177
Process 11:   Internal MO 147
Process 13:   Internal MO 162
Process 14:   Internal MO 171
-----------------------------------------------
 MP2 CORRELATION ENERGY   :     -7.272994138 Eh
-----------------------------------------------


-------
TIMINGS
-------
Total time                : 2817.071 sec
Integral trafo            : 2530.484 sec ( 89.8%)
K(i,j)                    :   39.630 sec (  1.4%)
T(i,j)                    :    2.168 sec (  0.1%)

---------------------------------------
MP2 TOTAL ENERGY:    -2130.885328903 Eh
---------------------------------------

Maximum memory used throughout the entire MP2-calculation: 2275.2 MB

-------------------------   --------------------
FINAL SINGLE POINT ENERGY     -2130.885328902798
-------------------------   --------------------


                            ***************************************
                            *     ORCA property calculations      *
                            ***************************************


  WARNING: The energy has been calculated at the MP2 level but the densities
           used in the property calculations are still SCF densities
           MP2 response densities have not been calculated 
           use %mp2 Density relaxed end
           or  %mp2 Density unrelaxed end

                                    ---------------------
                                    Active property flags
                                    ---------------------
   (+) Dipole Moment


------------------------------------------------------------------------------
                       ORCA ELECTRIC PROPERTIES CALCULATION
------------------------------------------------------------------------------

Dipole Moment Calculation                       ... on
Quadrupole Moment Calculation                   ... off
Polarizability Calculation                      ... off
GBWName                                         ... /scratch/allen/tmpyp4_amber_gaff2/conf1/conf1/Conf78.orca.gbw
Electron density                                ... /scratch/allen/tmpyp4_amber_gaff2/conf1/conf1/Conf78.orca.scfp
The origin for moment calculation is the CENTER OF MASS  = ( 0.001225, -0.003341  0.004093)

-------------
DIPOLE MOMENT
-------------
                                X             Y             Z
Electronic contribution:     -3.58703       4.02501      -0.14848
Nuclear contribution   :     -0.03615       0.15865       0.19583
                        -----------------------------------------
Total Dipole Moment    :     -3.62319       4.18367       0.04736
                        -----------------------------------------
Magnitude (a.u.)       :      5.53469
Magnitude (Debye)      :     14.06806



--------------------
Rotational spectrum 
--------------------
 
Rotational constants in cm-1:     0.001498     0.001473     0.000763 
Rotational constants in MHz :    44.911987    44.145776    22.863852 

 Dipole components along the rotational axes: 
x,y,z [a.u.] :    -4.924438    -2.526085     0.039867 
x,y,z [Debye]:   -12.516926    -6.420798     0.101333 

 

Timings for individual modules:

Sum of individual times         ...     4398.086 sec (=  73.301 min)
GTO integral calculation        ...        2.626 sec (=   0.044 min)   0.1 %
SCF iterations                  ...     1559.711 sec (=  25.995 min)  35.5 %
MP2 module                      ...     2835.749 sec (=  47.262 min)  64.5 %
                             ****ORCA TERMINATED NORMALLY****
TOTAL RUN TIME: 0 days 1 hours 13 minutes 21 seconds 411 msec
# of primitive gaussian functions

