
                                 *****************
                                 * O   R   C   A *
                                 *****************

                                            #,                                       
                                            ###                                      
                                            ####                                     
                                            #####                                    
                                            ######                                   
                                           ########,                                 
                                     ,,################,,,,,                         
                               ,,#################################,,                 
                          ,,##########################################,,             
                       ,#########################################, ''#####,          
                    ,#############################################,,   '####,        
                  ,##################################################,,,,####,       
                ,###########''''           ''''###############################       
              ,#####''   ,,,,##########,,,,          '''####'''          '####       
            ,##' ,,,,###########################,,,                        '##       
           ' ,,###''''                  '''############,,,                           
         ,,##''                                '''############,,,,        ,,,,,,###''
      ,#''                                            '''#######################'''  
     '                                                          ''''####''''         
             ,#######,   #######,   ,#######,      ##                                
            ,#'     '#,  ##    ##  ,#'     '#,    #''#        ######   ,####,        
            ##       ##  ##   ,#'  ##            #'  '#       #        #'  '#        
            ##       ##  #######   ##           ,######,      #####,   #    #        
            '#,     ,#'  ##    ##  '#,     ,#' ,#      #,         ##   #,  ,#        
             '#######'   ##     ##  '#######'  #'      '#     #####' # '####'        



                  #######################################################
                  #                        -***-                        #
                  #          Department of theory and spectroscopy      #
                  #    Directorship and core code : Frank Neese         #
                  #        Max Planck Institute fuer Kohlenforschung    #
                  #                Kaiser Wilhelm Platz 1               #
                  #                 D-45470 Muelheim/Ruhr               #
                  #                      Germany                        #
                  #                                                     #
                  #                  All rights reserved                #
                  #                        -***-                        #
                  #######################################################


                         Program Version 5.0.4 -  RELEASE  -


 With contributions from (in alphabetic order):
   Daniel Aravena         : Magnetic Suceptibility
   Michael Atanasov       : Ab Initio Ligand Field Theory (pilot matlab implementation)
   Alexander A. Auer      : GIAO ZORA, VPT2 properties, NMR spectrum
   Ute Becker             : Parallelization
   Giovanni Bistoni       : ED, misc. LED, open-shell LED, HFLD
   Martin Brehm           : Molecular dynamics
   Dmytro Bykov           : SCF Hessian
   Vijay G. Chilkuri      : MRCI spin determinant printing, contributions to CSF-ICE
   Dipayan Datta          : RHF DLPNO-CCSD density
   Achintya Kumar Dutta   : EOM-CC, STEOM-CC
   Dmitry Ganyushin       : Spin-Orbit,Spin-Spin,Magnetic field MRCI
   Miquel Garcia          : C-PCM and meta-GGA Hessian, CC/C-PCM, Gaussian charge scheme
   Yang Guo               : DLPNO-NEVPT2, F12-NEVPT2, CIM, IAO-localization
   Andreas Hansen         : Spin unrestricted coupled pair/coupled cluster methods
   Benjamin Helmich-Paris : MC-RPA, TRAH-SCF, COSX integrals
   Lee Huntington         : MR-EOM, pCC
   Robert Izsak           : Overlap fitted RIJCOSX, COSX-SCS-MP3, EOM
   Marcus Kettner         : VPT2
   Christian Kollmar      : KDIIS, OOCD, Brueckner-CCSD(T), CCSD density, CASPT2, CASPT2-K
   Simone Kossmann        : Meta GGA functionals, TD-DFT gradient, OOMP2, MP2 Hessian
   Martin Krupicka        : Initial AUTO-CI
   Lucas Lang             : DCDCAS
   Marvin Lechner         : AUTO-CI (C++ implementation), FIC-MRCC
   Dagmar Lenk            : GEPOL surface, SMD
   Dimitrios Liakos       : Extrapolation schemes; Compound Job, initial MDCI parallelization
   Dimitrios Manganas     : Further ROCIS development; embedding schemes
   Dimitrios Pantazis     : SARC Basis sets
   Anastasios Papadopoulos: AUTO-CI, single reference methods and gradients
   Taras Petrenko         : DFT Hessian,TD-DFT gradient, ASA, ECA, R-Raman, ABS, FL, XAS/XES, NRVS
   Peter Pinski           : DLPNO-MP2, DLPNO-MP2 Gradient
   Christoph Reimann      : Effective Core Potentials
   Marius Retegan         : Local ZFS, SOC
   Christoph Riplinger    : Optimizer, TS searches, QM/MM, DLPNO-CCSD(T), (RO)-DLPNO pert. Triples
   Tobias Risthaus        : Range-separated hybrids, TD-DFT gradient, RPA, STAB
   Michael Roemelt        : Original ROCIS implementation
   Masaaki Saitow         : Open-shell DLPNO-CCSD energy and density
   Barbara Sandhoefer     : DKH picture change effects
   Avijit Sen             : IP-ROCIS
   Kantharuban Sivalingam : CASSCF convergence, NEVPT2, FIC-MRCI
   Bernardo de Souza      : ESD, SOC TD-DFT
   Georgi Stoychev        : AutoAux, RI-MP2 NMR, DLPNO-MP2 response
   Willem Van den Heuvel  : Paramagnetic NMR
   Boris Wezisla          : Elementary symmetry handling
   Frank Wennmohs         : Technical directorship


 We gratefully acknowledge several colleagues who have allowed us to
 interface, adapt or use parts of their codes:
   Stefan Grimme, W. Hujo, H. Kruse, P. Pracht,  : VdW corrections, initial TS optimization,
                  C. Bannwarth, S. Ehlert          DFT functionals, gCP, sTDA/sTD-DF
   Ed Valeev, F. Pavosevic, A. Kumar             : LibInt (2-el integral package), F12 methods
   Garnet Chan, S. Sharma, J. Yang, R. Olivares  : DMRG
   Ulf Ekstrom                                   : XCFun DFT Library
   Mihaly Kallay                                 : mrcc  (arbitrary order and MRCC methods)
   Jiri Pittner, Ondrej Demel                    : Mk-CCSD
   Frank Weinhold                                : gennbo (NPA and NBO analysis)
   Christopher J. Cramer and Donald G. Truhlar   : smd solvation model
   Lars Goerigk                                  : TD-DFT with DH, B97 family of functionals
   V. Asgeirsson, H. Jonsson                     : NEB implementation
   FAccTs GmbH                                   : IRC, NEB, NEB-TS, DLPNO-Multilevel, CI-OPT
                                                   MM, QMMM, 2- and 3-layer-ONIOM, Crystal-QMMM,
                                                   LR-CPCM, SF, NACMEs, symmetry and pop. for TD-DFT,
                                                   nearIR, NL-DFT gradient (VV10), updates on ESD,
                                                   ML-optimized integration grids
   S Lehtola, MJT Oliveira, MAL Marques          : LibXC Library
   Liviu Ungur et al                             : ANISO software


 Your calculation uses the libint2 library for the computation of 2-el integrals
 For citations please refer to: http://libint.valeyev.net

 Your ORCA version has been built with support for libXC version: 5.1.0
 For citations please refer to: https://tddft.org/programs/libxc/

 This ORCA versions uses:
   CBLAS   interface :  Fast vector & matrix operations
   LAPACKE interface :  Fast linear algebra routines
   SCALAPACK package :  Parallel linear algebra routines
   Shared memory     :  Shared parallel matrices
   BLAS/LAPACK       :  OpenBLAS 0.3.15  USE64BITINT DYNAMIC_ARCH NO_AFFINITY Sandybridge SINGLE_THREADED
        Core in use  :  Sandybridge
   Copyright (c) 2011-2014, The OpenBLAS Project


================================================================================

----- Orbital basis set information -----
Your calculation utilizes the basis: cc-pVDZ 
       H, B-Ne : Obtained from the ccRepo (grant-hill.group.shef.ac.uk/ccrepo) Feb. 2017
                 T. H. Dunning, Jr., J. Chem. Phys. 90, 1007 (1989)
            He : Obtained from the ccRepo (grant-hill.group.shef.ac.uk/ccrepo) Feb. 2017
                 D. E. Woon, T. H. Dunning, Jr., J. Chem. Phys. 100, 2975 (1994)
  Li-Be, Na-Mg : Obtained from the ccRepo (grant-hill.group.shef.ac.uk/ccrepo) Feb. 2017
                 B. P. Prascher, D. E. Woon, K. A. Peterson, T. H. Dunning, Jr., A. K. Wilson, Theor. Chem. Acc. 128, 69 (2011)
         Al-Ar : Obtained from the ccRepo (grant-hill.group.shef.ac.uk/ccrepo) Feb. 2017
                 D. E. Woon, T. H. Dunning, Jr., J. Chem. Phys. 98, 1358 (1993)
            Ca : Obtained from the Peterson Research Group Website (tyr0.chem.wsu.edu/~kipeters) Feb. 2017
                 J. Koput, K. A. Peterson, J. Phys. Chem. 106, 9595 (2002)
         Sc-Zn : Obtained from the ccRepo (grant-hill.group.shef.ac.uk/ccrepo) Feb. 2017
                 N. B. Balabanov, K. A. Peterson, J. Chem. Phys. 123, 064107 (2005)
                 N. B. Balabanov, K. A. Peterson, J. Chem. Phys. 125, 074110 (2006)
         Ga-Kr : Obtained from the ccRepo (grant-hill.group.shef.ac.uk/ccrepo) Feb. 2017
                 A. K. Wilson, D. E. Woon, K. A. Peterson, T. H. Dunning, Jr., J. Chem. Phys. 110, 7667 (1999)

================================================================================
                                        WARNINGS
                       Please study these warnings very carefully!
================================================================================


WARNING: No MP2 level density has been requested!
         To caclulate MP2 level properties use
         %mp2 Density relaxed end
         or
         %mp2 Density unrelaxed end

WARNING: Post HF methods need fully converged wavefunctions
  ===> : Setting SCFConvForced true
         You can overwrite this default with %scf ConvForced false 


INFO   : the flag for use of the SHARK integral package has been found!

================================================================================
                                       INPUT FILE
================================================================================
NAME = /scratch/allen/tmpyp4_amber_gaff2/2.Mdgx/conf11/conf11/Conf34.orca
|  1> ! PAL2
|  2> ! mp2 cc-pvdz TightSCF  NoKeepInts
|  3> 
|  4> %scf
|  5>   MaxCore 2000
|  6> end
|  7> %mp2
|  8>   MaxCore 2000
|  9> end
| 10> * xyz 0 1
| 11>    C       -3.18000         6.40700        -0.52100
| 12>    C        1.47400         4.04100         0.05700
| 13>    C       -2.80200         4.09300         0.04900
| 14>    C       -4.04400         4.10400         0.70200
| 15>    C       -4.80800         5.25400         0.71900
| 16>    C       -5.23100         7.59000         0.12100
| 17>    C        0.13200         4.30700         0.06100
| 18>    C       -0.56900         3.05600         0.04700
| 19>    C        1.64900         2.61800         0.02300
| 20>    C       -2.38300         5.28000        -0.57100
| 21>    N       -4.37200         6.38500         0.11700
| 22>    N        0.38800         2.06700         0.02500
| 23>    N       -2.01000         0.39500        -0.07500
| 24>    N       -0.38800        -2.07400        -0.02700
| 25>    N        2.01000        -0.40100         0.06500
| 26>    C       -1.96000         2.86100         0.02400
| 27>    C       -2.62300         1.61500        -0.01800
| 28>    C       -5.57300        -4.32900         1.06600
| 29>    C       -4.07300         1.47100         0.05600
| 30>    C       -4.10600        -2.75600        -0.02600
| 31>    C       -4.99500        -2.75700        -1.11100
| 32>    C       -6.13200        -3.54200        -1.07600
| 33>    C       -7.65100        -5.11300         0.04000
| 34>    C       -4.32400         0.14100         0.03700
| 35>    C       -3.02500        -0.52000        -0.04800
| 36>    C       -4.42200        -3.56600         1.07500
| 37>    N       -6.40700        -4.31300         0.00100
| 38>    C       -2.86700        -1.92200        -0.04000
| 39>    C       -1.65000        -2.62400        -0.02700
| 40>    C        3.56800        -6.14200        -1.04000
| 41>    C       -1.47600        -4.04900        -0.03400
| 42>    C        2.80300        -4.09900        -0.00800
| 43>    C        3.65700        -4.38400         1.06900
| 44>    C        4.42700        -5.53000         1.05900
| 45>    C        5.24500        -7.58800         0.01400
| 46>    C       -0.13400        -4.31500        -0.02200
| 47>    C        0.56800        -3.06400        -0.02700
| 48>    C        2.77500        -5.01200        -1.07400
| 49>    N        4.37600        -6.39100         0.01700
| 50>    C        1.95900        -2.86900        -0.00900
| 51>    C        2.62100        -1.62200         0.00900
| 52>    C        5.54300         4.33900        -1.13000
| 53>    C        4.07000        -1.47900        -0.09400
| 54>    C        4.10400         2.75100        -0.02100
| 55>    C        5.02700         2.72900         1.03600
| 56>    C        6.16600         3.50900         0.97800
| 57>    C        7.61900         5.15300        -0.11500
| 58>    C        4.32100        -0.14800        -0.09200
| 59>    C        3.02500         0.51400         0.01500
| 60>    C        4.38700         3.58200        -1.11500
| 61>    C        2.86600         1.91600         0.01300
| 62>    N        6.41300         4.29600        -0.09500
| 63>    H       -2.89100         7.34800        -0.97400
| 64>    H        2.27400         4.76600         0.08100
| 65>    H       -4.42700         3.21600         1.19000
| 66>    H       -5.77500         5.30800         1.20200
| 67>    H       -5.92600         7.53400        -0.72000
| 68>    H       -5.78200         7.62500         1.06100
| 69>    H       -4.59800         8.47200         0.02600
| 70>    H       -0.33200         5.28200         0.06900
| 71>    H       -1.42700         5.33900        -1.07900
| 72>    H        0.18200         1.07200         0.00500
| 73>    H       -0.18300        -1.08000        -0.02100
| 74>    H       -5.86400        -4.96200         1.89500
| 75>    H       -4.79400         2.27200         0.13900
| 76>    H       -4.80000        -2.16000        -1.99400
| 77>    H       -6.84100        -3.58200        -1.89300
| 78>    H       -8.42800        -4.53600         0.54600
| 79>    H       -7.95600        -5.33700        -0.98100
| 80>    H       -7.45600        -6.03700         0.58400
| 81>    H       -5.28700        -0.34400         0.10000
| 82>    H       -3.78000        -3.60100         1.94700
| 83>    H        3.58700        -6.86800        -1.84300
| 84>    H       -2.27600        -4.77400        -0.05000
| 85>    H        3.71400        -3.72400         1.92600
| 86>    H        5.09200        -5.79500         1.87100
| 87>    H        6.20500        -7.32900        -0.43900
| 88>    H        5.39300        -7.91700         1.04200
| 89>    H        4.75900        -8.37300        -0.56400
| 90>    H        0.32900        -5.29000        -0.00800
| 91>    H        2.14600        -4.84200        -1.94000
| 92>    H        5.80800         4.98600        -1.95600
| 93>    H        4.78800        -2.28100        -0.18500
| 94>    H        4.86000         2.11400         1.91200
| 95>    H        6.90100         3.53100         1.77200
| 96>    H        7.38300         6.10900         0.35600
| 97>    H        8.41400         4.65200         0.43500
| 98>    H        7.92100         5.31000        -1.15000
| 99>    H        5.28300         0.33600        -0.17900
|100>    H        3.72000         3.63200        -1.96700
|101> *
|102> 
|103>                          ****END OF INPUT****
================================================================================

                       ****************************
                       * Single Point Calculation *
                       ****************************

---------------------------------
CARTESIAN COORDINATES (ANGSTROEM)
---------------------------------
  C     -3.180000    6.407000   -0.521000
  C      1.474000    4.041000    0.057000
  C     -2.802000    4.093000    0.049000
  C     -4.044000    4.104000    0.702000
  C     -4.808000    5.254000    0.719000
  C     -5.231000    7.590000    0.121000
  C      0.132000    4.307000    0.061000
  C     -0.569000    3.056000    0.047000
  C      1.649000    2.618000    0.023000
  C     -2.383000    5.280000   -0.571000
  N     -4.372000    6.385000    0.117000
  N      0.388000    2.067000    0.025000
  N     -2.010000    0.395000   -0.075000
  N     -0.388000   -2.074000   -0.027000
  N      2.010000   -0.401000    0.065000
  C     -1.960000    2.861000    0.024000
  C     -2.623000    1.615000   -0.018000
  C     -5.573000   -4.329000    1.066000
  C     -4.073000    1.471000    0.056000
  C     -4.106000   -2.756000   -0.026000
  C     -4.995000   -2.757000   -1.111000
  C     -6.132000   -3.542000   -1.076000
  C     -7.651000   -5.113000    0.040000
  C     -4.324000    0.141000    0.037000
  C     -3.025000   -0.520000   -0.048000
  C     -4.422000   -3.566000    1.075000
  N     -6.407000   -4.313000    0.001000
  C     -2.867000   -1.922000   -0.040000
  C     -1.650000   -2.624000   -0.027000
  C      3.568000   -6.142000   -1.040000
  C     -1.476000   -4.049000   -0.034000
  C      2.803000   -4.099000   -0.008000
  C      3.657000   -4.384000    1.069000
  C      4.427000   -5.530000    1.059000
  C      5.245000   -7.588000    0.014000
  C     -0.134000   -4.315000   -0.022000
  C      0.568000   -3.064000   -0.027000
  C      2.775000   -5.012000   -1.074000
  N      4.376000   -6.391000    0.017000
  C      1.959000   -2.869000   -0.009000
  C      2.621000   -1.622000    0.009000
  C      5.543000    4.339000   -1.130000
  C      4.070000   -1.479000   -0.094000
  C      4.104000    2.751000   -0.021000
  C      5.027000    2.729000    1.036000
  C      6.166000    3.509000    0.978000
  C      7.619000    5.153000   -0.115000
  C      4.321000   -0.148000   -0.092000
  C      3.025000    0.514000    0.015000
  C      4.387000    3.582000   -1.115000
  C      2.866000    1.916000    0.013000
  N      6.413000    4.296000   -0.095000
  H     -2.891000    7.348000   -0.974000
  H      2.274000    4.766000    0.081000
  H     -4.427000    3.216000    1.190000
  H     -5.775000    5.308000    1.202000
  H     -5.926000    7.534000   -0.720000
  H     -5.782000    7.625000    1.061000
  H     -4.598000    8.472000    0.026000
  H     -0.332000    5.282000    0.069000
  H     -1.427000    5.339000   -1.079000
  H      0.182000    1.072000    0.005000
  H     -0.183000   -1.080000   -0.021000
  H     -5.864000   -4.962000    1.895000
  H     -4.794000    2.272000    0.139000
  H     -4.800000   -2.160000   -1.994000
  H     -6.841000   -3.582000   -1.893000
  H     -8.428000   -4.536000    0.546000
  H     -7.956000   -5.337000   -0.981000
  H     -7.456000   -6.037000    0.584000
  H     -5.287000   -0.344000    0.100000
  H     -3.780000   -3.601000    1.947000
  H      3.587000   -6.868000   -1.843000
  H     -2.276000   -4.774000   -0.050000
  H      3.714000   -3.724000    1.926000
  H      5.092000   -5.795000    1.871000
  H      6.205000   -7.329000   -0.439000
  H      5.393000   -7.917000    1.042000
  H      4.759000   -8.373000   -0.564000
  H      0.329000   -5.290000   -0.008000
  H      2.146000   -4.842000   -1.940000
  H      5.808000    4.986000   -1.956000
  H      4.788000   -2.281000   -0.185000
  H      4.860000    2.114000    1.912000
  H      6.901000    3.531000    1.772000
  H      7.383000    6.109000    0.356000
  H      8.414000    4.652000    0.435000
  H      7.921000    5.310000   -1.150000
  H      5.283000    0.336000   -0.179000
  H      3.720000    3.632000   -1.967000

----------------------------
CARTESIAN COORDINATES (A.U.)
----------------------------
  NO LB      ZA    FRAG     MASS         X           Y           Z
   0 C     6.0000    0    12.011   -6.009329   12.107475   -0.984547
   1 C     6.0000    0    12.011    2.785456    7.636383    0.107714
   2 C     6.0000    0    12.011   -5.295013    7.734649    0.092597
   3 C     6.0000    0    12.011   -7.642052    7.755436    1.326588
   4 C     6.0000    0    12.011   -9.085803    9.928621    1.358713
   5 C     6.0000    0    12.011   -9.885157   14.343021    0.228657
   6 C     6.0000    0    12.011    0.249444    8.139050    0.115273
   7 C     6.0000    0    12.011   -1.075254    5.775003    0.088817
   8 C     6.0000    0    12.011    3.116158    4.947303    0.043464
   9 C     6.0000    0    12.011   -4.503217    9.977754   -1.079034
  10 N     7.0000    0    14.007   -8.261883   12.065901    0.221098
  11 N     7.0000    0    14.007    0.733214    3.906064    0.047243
  12 N     7.0000    0    14.007   -3.798350    0.746442   -0.141729
  13 N     7.0000    0    14.007   -0.733214   -3.919292   -0.051023
  14 N     7.0000    0    14.007    3.798350   -0.757780    0.122832
  15 C     6.0000    0    12.011   -3.703863    5.406506    0.045353
  16 C     6.0000    0    12.011   -4.956752    3.051908   -0.034015
  17 C     6.0000    0    12.011  -10.531444   -8.180624    2.014448
  18 C     6.0000    0    12.011   -7.696855    2.779787    0.105825
  19 C     6.0000    0    12.011   -7.759216   -5.208085   -0.049133
  20 C     6.0000    0    12.011   -9.439182   -5.209975   -2.099486
  21 C     6.0000    0    12.011  -11.587801   -6.693410   -2.033345
  22 C     6.0000    0    12.011  -14.458295   -9.662170    0.075589
  23 C     6.0000    0    12.011   -8.171176    0.266451    0.069920
  24 C     6.0000    0    12.011   -5.716422   -0.982658   -0.090707
  25 C     6.0000    0    12.011   -8.356369   -6.738763    2.031456
  26 N     7.0000    0    14.007  -12.107475   -8.150389    0.001890
  27 C     6.0000    0    12.011   -5.417845   -3.632054   -0.075589
  28 C     6.0000    0    12.011   -3.118048   -4.958641   -0.051023
  29 C     6.0000    0    12.011    6.742543  -11.606698   -1.965315
  30 C     6.0000    0    12.011   -2.789236   -7.651501   -0.064251
  31 C     6.0000    0    12.011    5.296902   -7.745987   -0.015118
  32 C     6.0000    0    12.011    6.910728   -8.284559    2.020117
  33 C     6.0000    0    12.011    8.365818  -10.450186    2.001220
  34 C     6.0000    0    12.011    9.911614  -14.339242    0.026456
  35 C     6.0000    0    12.011   -0.253223   -8.154168   -0.041574
  36 C     6.0000    0    12.011    1.073364   -5.790121   -0.051023
  37 C     6.0000    0    12.011    5.243990   -9.471307   -2.029566
  38 N     7.0000    0    14.007    8.269442  -12.077240    0.032125
  39 C     6.0000    0    12.011    3.701973   -5.421624   -0.017008
  40 C     6.0000    0    12.011    4.952972   -3.065136    0.017008
  41 C     6.0000    0    12.011   10.474752    8.199522   -2.135391
  42 C     6.0000    0    12.011    7.691185   -2.794905   -0.177634
  43 C     6.0000    0    12.011    7.755436    5.198637   -0.039684
  44 C     6.0000    0    12.011    9.499653    5.157063    1.957756
  45 C     6.0000    0    12.011   11.652051    6.631049    1.848152
  46 C     6.0000    0    12.011   14.397823    9.737759   -0.217319
  47 C     6.0000    0    12.011    8.165507   -0.279679   -0.173855
  48 C     6.0000    0    12.011    5.716422    0.971319    0.028346
  49 C     6.0000    0    12.011    8.290229    6.768999   -2.107045
  50 C     6.0000    0    12.011    5.415955    3.620715    0.024566
  51 N     7.0000    0    14.007   12.118814    8.118263   -0.179524
  52 H     1.0000    0     1.008   -5.463198   13.885708   -1.840593
  53 H     1.0000    0     1.008    4.297237    9.006435    0.153068
  54 H     1.0000    0     1.008   -8.365818    6.077359    2.248774
  55 H     1.0000    0     1.008  -10.913168   10.030666    2.271451
  56 H     1.0000    0     1.008  -11.198517   14.237197   -1.360603
  57 H     1.0000    0     1.008  -10.926397   14.409162    2.004999
  58 H     1.0000    0     1.008   -8.688961   16.009760    0.049133
  59 H     1.0000    0     1.008   -0.627389    9.981533    0.130391
  60 H     1.0000    0     1.008   -2.696639   10.089248   -2.039014
  61 H     1.0000    0     1.008    0.343930    2.025786    0.009449
  62 H     1.0000    0     1.008   -0.345820   -2.040904   -0.039684
  63 H     1.0000    0     1.008  -11.081354   -9.376821    3.581031
  64 H     1.0000    0     1.008   -9.059347    4.293458    0.262672
  65 H     1.0000    0     1.008   -9.070685   -4.081808   -3.768114
  66 H     1.0000    0     1.008  -12.927616   -6.768999   -3.577252
  67 H     1.0000    0     1.008  -15.926612   -8.571798    1.031790
  68 H     1.0000    0     1.008  -15.034661  -10.085468   -1.853821
  69 H     1.0000    0     1.008  -14.089798  -11.408277    1.103600
  70 H     1.0000    0     1.008   -9.990982   -0.650066    0.188973
  71 H     1.0000    0     1.008   -7.143165   -6.804904    3.679297
  72 H     1.0000    0     1.008    6.778448  -12.978639   -3.482765
  73 H     1.0000    0     1.008   -4.301017   -9.021553   -0.094486
  74 H     1.0000    0     1.008    7.018443   -7.037340    3.639613
  75 H     1.0000    0     1.008    9.622485  -10.950963    3.535678
  76 H     1.0000    0     1.008   11.725751  -13.849803   -0.829590
  77 H     1.0000    0     1.008   10.191293  -14.960962    1.969095
  78 H     1.0000    0     1.008    8.993207  -15.822677   -1.065806
  79 H     1.0000    0     1.008    0.621720   -9.996651   -0.015118
  80 H     1.0000    0     1.008    4.055352   -9.150054   -3.666069
  81 H     1.0000    0     1.008   10.975529    9.422175   -3.696304
  82 H     1.0000    0     1.008    9.048009   -4.310465   -0.349599
  83 H     1.0000    0     1.008    9.184069    3.994881    3.613156
  84 H     1.0000    0     1.008   13.041000    6.672623    3.348595
  85 H     1.0000    0     1.008   13.951848   11.544337    0.672743
  86 H     1.0000    0     1.008   15.900156    8.791006    0.822031
  87 H     1.0000    0     1.008   14.968521   10.034446   -2.173185
  88 H     1.0000    0     1.008    9.983423    0.634948   -0.338261
  89 H     1.0000    0     1.008    7.029781    6.863485   -3.717091

--------------------------------
INTERNAL COORDINATES (ANGSTROEM)
--------------------------------
 C      0   0   0     0.000000000000     0.00000000     0.00000000
 C      1   0   0     5.252785546736     0.00000000     0.00000000
 C      1   2   0     2.412960836814    53.36291071     0.00000000
 C      3   1   2     1.403244098509    87.92293729   153.06176281
 C      4   3   1     1.380755228127   120.13225742     0.17652176
 C      5   4   3     2.448148075587   152.53854145     1.53207926
 C      2   1   3     1.368114030335    16.99142668   350.48619823
 C      7   2   1     1.434084376876   108.05010202   156.64420725
 C      2   1   3     1.434123425651   123.53462887    18.20195810
 C      1   2   3     1.381245090489    28.98178457   331.68731397
 N      1   2   3     1.352180461329   136.20344449    40.91221810
 N      9   2   1     1.376127174356   106.58526707   351.01105873
 N     12   9   2     2.925062050624   168.53581413   171.12065651
 N     13  12   9     2.954513327098    91.55032014    11.12112580
 N     14  13  12     2.925371258490    88.43092389   359.84326247
 C      8   7   2     1.404790019896   127.24786865   181.11170171
 C     13  12   9     1.366535034311    81.72106996   188.00453233
 C     14  13  12     5.758810554272    80.56209567   166.76250791
 C     17  13  12     1.459010623676   111.08861209   183.82872609
 C     18  14  13     2.412235892279    27.27532823    36.33507194
 C     20  18  14     1.402692767501    87.95206320   148.94598259
 C     21  20  18     1.382106725257   120.14573887   359.70382047
 C     18  14  13     2.446510985056   144.15733107    82.80075377
 C     19  17  13     1.353610726908   106.29293361   359.75308708
 C     13  12   9     1.366813447402   172.21332906    33.46711076
 C     18  14  13     1.380960173213    15.08449437   309.23336894
 N     22  21  20     1.352773077792   120.73759875     0.27865223
 C     25  13  17     1.410897586645   125.60330303   182.37774668
 C     14  13  12     1.376642291955    80.24689249   177.85461986
 C     14  13  12     5.764089607215   164.51507311   312.20821879
 C     29  14  13     1.435600919476   106.58649366   178.76395472
 C     30  14  13     2.413316804732    27.10625047    82.12560436
 C     32  30  14     1.403734305344    87.90059683   149.76154742
 C     33  32  30     1.380694028378   120.14881443   359.74174632
 C     34  33  32     2.448777858443   152.49203239     2.45173620
 C     31  29  14     1.368160809262   108.16950133     0.70383075
 C     14  13  12     1.376239804685   169.26375223   353.09862627
 C     30  14  13     1.380907310430    14.68948582   353.70041132
 N     34  33  32     1.352658863128   120.85575621     0.19603406
 C     37  14  29     1.404717053360   126.01551127   180.90772073
 C     15  14  13     1.366491126938    81.61824056   183.09049352
 C      2   1   3     4.249062720177   141.82535249   155.79544479
 C     41  15  14     1.459677704153   111.05201287   175.08990246
 C     42   2   1     2.412953791518    41.78584867   190.61605516
 C     44  42   2     1.403446472082    87.95153797   233.97558675
 C     45  44  42     1.381696421071   120.11137308     0.19721020
 C     42   2   1     2.450019795838   135.97209175   100.93090426
 C     43  41  15     1.354461516618   106.26758155     0.30894352
 C     15  14  13     1.367461151185   171.87382904   332.35056460
 C     42   2   1     1.381886391857    32.59078432   239.47133435
 C      9   2   1     1.404988612053   126.98745415   172.01539626
 N     42   2   1     1.352765315936   113.57249190   128.66749346
 H      1   2   3     1.083610169757   101.58668408   191.64643355
 H      2   1   3     1.079907866440   110.87964228   191.29972834
 H      4   3   1     1.083225276662   121.07518035   179.47997562
 H      5   4   3     1.082263369056   122.78186182   179.45970008
 H      6   5   4     1.092447710419   104.42150915   100.16899581
 H      6   5   4     1.090149531028    84.68352773   209.60096462
 H      6   5   4     1.089788052788   133.88310065   322.43833496
 H      7   2   1     1.079807853278   126.66122480   336.88262103
 H     10   1   2     1.084196015488   118.77351890   311.98547433
 H     12   9   2     1.016297692608   125.29023241   180.00180175
 H     14  13  12     1.014936943854    44.97226959   359.42596618
 H     18  14  13     1.082871645210   128.03556573   234.20482432
 H     19  17  13     1.080893611786   126.41830519   178.11313280
 H     21  20  18     1.083569563987   121.05669627   180.67006309
 H     22  21  20     1.082483256222   122.73097286   180.59748951
 H     23  18  14     1.092105306278   103.92715769   234.93429879
 H     23  18  14     1.088871893291   134.19244188    12.25587044
 H     23  18  14     1.089833473518    84.85857450   125.45241208
 H     24  19  17     1.080075460327   127.28078426   178.44613241
 H     26  18  14     1.083408048706   118.76995697   244.94906660
 H     30  14  13     1.082703098730   127.99711412   279.66882698
 H     31  29  14     1.079759695488   125.22293469   180.92530585
 H     33  32  30     1.083188810873   121.01964473   180.74284758
 H     34  33  32     1.082494341787   122.70821597   180.59516895
 H     35  34  33     1.092652735319   105.73575241    97.19771933
 H     35  34  33     1.089462711615    84.05943581   206.43036958
 H     35  34  33     1.089268102902   133.08365142   318.50306270
 H     36  31  29     1.079439669458   126.61599965   178.98859863
 H     38  30  73     1.083742127999   118.77264435   359.90091293
 H     42   2   1     1.082178358682   119.31790784   345.29902391
 H     43  41  15     1.080281907652   126.36969097   182.06329380
 H     45  44  42     1.083277434455   121.10105945   179.58025624
 H     46  45  44     1.082194529648   122.72144639   179.46906377
 H     47  42   2     1.091546151109   106.65128841   315.16475048
 H     47  42   2     1.088818625851   132.46019523    94.52397119
 H     47  42   2     1.089531091801    83.63838232   206.04504406
 H     48  43  41     1.080402239909   127.23657387   181.62955349
 H     50  42   2     1.083186502870   118.77001737    94.71359229

---------------------------
INTERNAL COORDINATES (A.U.)
---------------------------
 C      0   0   0     0.000000000000     0.00000000     0.00000000
 C      1   0   0     9.926326123551     0.00000000     0.00000000
 C      1   2   0     4.559835153457    53.36291071     0.00000000
 C      3   1   2     2.651747045223    87.92293729   153.06176281
 C      4   3   1     2.609249239140   120.13225742     0.17652176
 C      5   4   3     4.626329398146   152.53854145     1.53207926
 C      2   1   3     2.585360837309    16.99142668   350.48619823
 C      7   2   1     2.710026725231   108.05010202   156.64420725
 C      2   1   3     2.710100516721   123.53462887    18.20195810
 C      1   2   3     2.610174944848    28.98178457   331.68731397
 N      1   2   3     2.555250755551   136.20344449    40.91221810
 N      9   2   1     2.600503484979   106.58526707   351.01105873
 N     12   9   2     5.527566200405   168.53581413   171.12065651
 N     13  12   9     5.583221047236    91.55032014    11.12112580
 N     14  13  12     5.528150518591    88.43092389   359.84326247
 C      8   7   2     2.654668413270   127.24786865   181.11170171
 C     13  12   9     2.582376967257    81.72106996   188.00453233
 C     14  13  12    10.882574804710    80.56209567   166.76250791
 C     17  13  12     2.757130505230   111.08861209   183.82872609
 C     18  14  13     4.558465206823    27.27532823    36.33507194
 C     20  18  14     2.650705180609    87.95206320   148.94598259
 C     21  20  18     2.611803198586   120.14573887   359.70382047
 C     18  14  13     4.623235745386   144.15733107    82.80075377
 C     19  17  13     2.557953565794   106.29293361   359.75308708
 C     13  12   9     2.582903091751   172.21332906    33.46711076
 C     18  14  13     2.609636529225    15.08449437   309.23336894
 N     22  21  20     2.556370638369   120.73759875     0.27865223
 C     25  13  17     2.666210041769   125.60330303   182.37774668
 C     14  13  12     2.601476916169    80.24689249   177.85461986
 C     14  13  12    10.892550769017   164.51507311   312.20821879
 C     29  14  13     2.712892575415   106.58649366   178.76395472
 C     30  14  13     4.560507835333    27.10625047    82.12560436
 C     32  30  14     2.652673401891    87.90059683   149.76154742
 C     33  32  30     2.609133588376   120.14881443   359.74174632
 C     34  33  32     4.627519515267   152.49203239     2.45173620
 C     31  29  14     2.585449236669   108.16950133     0.70383075
 C     14  13  12     2.600716325456   169.26375223   353.09862627
 C     30  14  13     2.609536633043    14.68948582   353.70041132
 N     34  33  32     2.556154803934   120.85575621     0.19603406
 C     37  14  29     2.654530526499   126.01551127   180.90772073
 C     15  14  13     2.582293994346    81.61824056   183.09049352
 C      2   1   3     8.029564866989   141.82535249   155.79544479
 C     41  15  14     2.758391104639   111.05201287   175.08990246
 C     42   2   1     4.559821839776    41.78584867   190.61605516
 C     44  42   2     2.652129475853    87.95153797   233.97558675
 C     45  44  42     2.611027836043   120.11137308     0.19721020
 C     42   2   1     4.629866436820   135.97209175   100.93090426
 C     43  41  15     2.559561325344   106.26758155     0.30894352
 C     15  14  13     2.584127074516   171.87382904   332.35056460
 C     42   2   1     2.611386828803    32.59078432   239.47133435
 C      9   2   1     2.655043698059   126.98745415   172.01539626
 N     42   2   1     2.556355970587   113.57249190   128.66749346
 H      1   2   3     2.047726456772   101.58668408   191.64643355
 H      2   1   3     2.040730117440   110.87964228   191.29972834
 H      4   3   1     2.046999114233   121.07518035   179.47997562
 H      5   4   3     2.045181372290   122.78186182   179.45970008
 H      6   5   4     2.064426988321   104.42150915   100.16899581
 H      6   5   4     2.060084058665    84.68352773   209.60096462
 H      6   5   4     2.059400963789   133.88310065   322.43833496
 H      7   2   1     2.040541119952   126.66122480   336.88262103
 H     10   1   2     2.048833544761   118.77351890   311.98547433
 H     12   9   2     1.920524309565   125.29023241   180.00180175
 H     14  13  12     1.917952867083    44.97226959   359.42596618
 H     18  14  13     2.046330847636   128.03556573   234.20482432
 H     19  17  13     2.042592906181   126.41830519   178.11313280
 H     21  20  18     2.047649722989   121.05669627   180.67006309
 H     22  21  20     2.045596898814   122.73097286   180.59748951
 H     23  18  14     2.063779938267   103.92715769   234.93429879
 H     23  18  14     2.057669673245   134.19244188    12.25587044
 H     23  18  14     2.059486796529    84.85857450   125.45241208
 H     24  19  17     2.041046823986   127.28078426   178.44613241
 H     26  18  14     2.047344503340   118.76995697   244.94906660
 H     30  14  13     2.046012340948   127.99711412   279.66882698
 H     31  29  14     2.040450114918   125.22293469   180.92530585
 H     33  32  30     2.046930203877   121.01964473   180.74284758
 H     34  33  32     2.045617847496   122.70821597   180.59516895
 H     35  34  33     2.064814429233   105.73575241    97.19771933
 H     35  34  33     2.058786158072    84.05943581   206.43036958
 H     35  34  33     2.058418400901   133.08365142   318.50306270
 H     36  31  29     2.039845353366   126.61599965   178.98859863
 H     38  30  73     2.047975821711   118.77264435   359.90091293
 H     42   2   1     2.045020725966   119.31790784   345.29902391
 H     43  41  15     2.041436952892   126.36969097   182.06329380
 H     45  44  42     2.047097678177   121.10105945   179.58025624
 H     46  45  44     2.045051284662   122.72144639   179.46906377
 H     47  42   2     2.062723288131   106.65128841   315.16475048
 H     47  42   2     2.057569012371   132.46019523    94.52397119
 H     47  42   2     2.058915377895    83.63838232   206.04504406
 H     48  43  41     2.041664347903   127.23657387   181.62955349
 H     50  42   2     2.046925842384   118.77001737    94.71359229

---------------------
BASIS SET INFORMATION
---------------------
There are 3 groups of distinct atoms

 Group   1 Type C   : 17s4p1d contracted to 3s2p1d pattern {881/31/1}
 Group   2 Type N   : 17s4p1d contracted to 3s2p1d pattern {881/31/1}
 Group   3 Type H   : 4s1p contracted to 2s1p pattern {31/1}

Atom   0C    basis set group =>   1
Atom   1N    basis set group =>   2
Atom   2C    basis set group =>   1
Atom   3N    basis set group =>   2
Atom   4C    basis set group =>   1
Atom   5N    basis set group =>   2
Atom   6C    basis set group =>   1
Atom   7N    basis set group =>   2
Atom   8C    basis set group =>   1
Atom   9N    basis set group =>   2
Atom  10C    basis set group =>   1
Atom  11N    basis set group =>   2
Atom  12C    basis set group =>   1
Atom  13N    basis set group =>   2
Atom  14C    basis set group =>   1
Atom  15N    basis set group =>   2
Atom  16C    basis set group =>   1
Atom  17C    basis set group =>   1
Atom  18C    basis set group =>   1
Atom  19C    basis set group =>   1
Atom  20C    basis set group =>   1
Atom  21C    basis set group =>   1
Atom  22C    basis set group =>   1
Atom  23C    basis set group =>   1
Atom  24C    basis set group =>   1
Atom  25C    basis set group =>   1
Atom  26C    basis set group =>   1
Atom  27C    basis set group =>   1
Atom  28C    basis set group =>   1
Atom  29C    basis set group =>   1
Atom  30C    basis set group =>   1
Atom  31C    basis set group =>   1
Atom  32C    basis set group =>   1
Atom  33C    basis set group =>   1
Atom  34C    basis set group =>   1
Atom  35C    basis set group =>   1
Atom  36C    basis set group =>   1
Atom  37C    basis set group =>   1
Atom  38C    basis set group =>   1
Atom  39C    basis set group =>   1
Atom  40C    basis set group =>   1
Atom  41C    basis set group =>   1
Atom  42C    basis set group =>   1
Atom  43C    basis set group =>   1
Atom  44C    basis set group =>   1
Atom  45C    basis set group =>   1
Atom  46C    basis set group =>   1
Atom  47C    basis set group =>   1
Atom  48C    basis set group =>   1
Atom  49C    basis set group =>   1
Atom  50C    basis set group =>   1
Atom  51C    basis set group =>   1
Atom  52H    basis set group =>   3
Atom  53H    basis set group =>   3
Atom  54H    basis set group =>   3
Atom  55H    basis set group =>   3
Atom  56H    basis set group =>   3
Atom  57H    basis set group =>   3
Atom  58H    basis set group =>   3
Atom  59H    basis set group =>   3
Atom  60H    basis set group =>   3
Atom  61H    basis set group =>   3
Atom  62H    basis set group =>   3
Atom  63H    basis set group =>   3
Atom  64H    basis set group =>   3
Atom  65H    basis set group =>   3
Atom  66H    basis set group =>   3
Atom  67H    basis set group =>   3
Atom  68H    basis set group =>   3
Atom  69H    basis set group =>   3
Atom  70H    basis set group =>   3
Atom  71H    basis set group =>   3
Atom  72H    basis set group =>   3
Atom  73H    basis set group =>   3
Atom  74H    basis set group =>   3
Atom  75H    basis set group =>   3
Atom  76H    basis set group =>   3
Atom  77H    basis set group =>   3
Atom  78H    basis set group =>   3
Atom  79H    basis set group =>   3
Atom  80H    basis set group =>   3
Atom  81H    basis set group =>   3
Atom  82H    basis set group =>   3
Atom  83H    basis set group =>   3
Atom  84H    basis set group =>   3
Atom  85H    basis set group =>   3
Atom  86H    basis set group =>   3
Atom  87H    basis set group =>   3
Atom  88H    basis set group =>   3
Atom  89H    basis set group =>   3


           ************************************************************
           *        Program running with 16 parallel MPI-processes    *
           *              working on a common directory               *
           ************************************************************
------------------------------------------------------------------------------
                           ORCA GTO INTEGRAL CALCULATION
------------------------------------------------------------------------------
------------------------------------------------------------------------------
                   ___                                                        
                  /   \      - P O W E R E D   B Y -                         
                 /     \                                                     
                 |  |  |   _    _      __       _____    __    __             
                 |  |  |  | |  | |    /  \     |  _  \  |  |  /  |          
                  \  \/   | |  | |   /    \    | | | |  |  | /  /          
                 / \  \   | |__| |  /  /\  \   | |_| |  |  |/  /          
                |  |  |   |  __  | /  /__\  \  |    /   |      \           
                |  |  |   | |  | | |   __   |  |    \   |  |\   \          
                \     /   | |  | | |  |  |  |  | |\  \  |  | \   \       
                 \___/    |_|  |_| |__|  |__|  |_| \__\ |__|  \__/        
                                                                              
                      - O R C A' S   B I G   F R I E N D -                    
                                      &                                       
                       - I N T E G R A L  F E E D E R -                       
                                                                              
 v1 FN, 2020, v2 2021                                                         
------------------------------------------------------------------------------


Reading SHARK input file /scratch/allen/tmpyp4_amber_gaff2/conf1/conf1/Conf34.orca.SHARKINP.tmp ... ok
----------------------
SHARK INTEGRAL PACKAGE
----------------------

Number of atoms                             ...     90
Number of basis functions                   ...   1230
Number of shells                            ...    738
Maximum angular momentum                    ...      2
Integral batch strategy                     ... SHARK/LIBINT Hybrid
RI-J (if used) integral strategy            ... SPLIT-RIJ (Revised 2003 algorithm where possible)
Printlevel                                  ...      1
Contraction scheme used                     ... PARTIAL GENERAL contraction
Coulomb Range Separation                    ... NOT USED
Exchange Range Separation                   ... NOT USED
Finite Nucleus Model                        ... NOT USED
Auxiliary Coulomb fitting basis             ... NOT available
Auxiliary J/K fitting basis                 ... NOT available
Auxiliary Correlation fitting basis         ... NOT available
Auxiliary 'external' fitting basis          ... NOT available
Integral threshold                          ...     2.500000e-11
Primitive cut-off                           ...     2.500000e-12
Primitive pair pre-selection threshold      ...     2.500000e-12

Calculating pre-screening integrals         ... done (  0.1 sec) Dimension = 738
Calculating pre-screening integrals (ORCA)  ... done (  0.3 sec) Dimension = 426
Organizing shell pair data                  ... done (  0.8 sec)
Shell pair information
Total number of shell pairs                 ...    272691
Shell pairs after pre-screening             ...     71666
Total number of primitive shell pairs       ...    422091
Primitive shell pairs kept                  ...     92517
          la=0 lb=0:  29425 shell pairs
          la=1 lb=0:  26002 shell pairs
          la=1 lb=1:   4706 shell pairs
          la=2 lb=0:   7882 shell pairs
          la=2 lb=1:   3122 shell pairs
          la=2 lb=2:    529 shell pairs

Calculating one electron integrals          ... done (  0.3 sec)
Calculating Nuclear repulsion               ... done (  0.0 sec) ENN=   6231.035690561576 Eh

SHARK setup successfully completed in   2.2 seconds

Maximum memory used throughout the entire GTOINT-calculation: 99.0 MB


           ************************************************************
           *        Program running with 16 parallel MPI-processes    *
           *              working on a common directory               *
           ************************************************************
-------------------------------------------------------------------------------
                                 ORCA SCF
-------------------------------------------------------------------------------

------------
SCF SETTINGS
------------
Hamiltonian:
 Ab initio Hamiltonian  Method          .... Hartree-Fock(GTOs)


General Settings:
 Integral files         IntName         .... /scratch/allen/tmpyp4_amber_gaff2/conf1/conf1/Conf34.orca
 Hartree-Fock type      HFTyp           .... RHF
 Total Charge           Charge          ....    0
 Multiplicity           Mult            ....    1
 Number of Electrons    NEL             ....  358
 Basis Dimension        Dim             ....  918
 Nuclear Repulsion      ENuc            ....   6231.0356905616 Eh

Convergence Acceleration:
 DIIS                   CNVDIIS         .... on
   Start iteration      DIISMaxIt       ....    12
   Startup error        DIISStart       ....  0.200000
   # of expansion vecs  DIISMaxEq       ....     5
   Bias factor          DIISBfac        ....   1.050
   Max. coefficient     DIISMaxC        ....  10.000
 Trust-Rad. Augm. Hess. CNVTRAH         .... auto
   Auto Start mean grad. ratio tolernc. ....  1.125000
   Auto Start start iteration           ....    20
   Auto Start num. interpolation iter.  ....    10
   Max. Number of Micro iterations      ....    16
   Max. Number of Macro iterations      .... Maxiter - #DIIS iter
   Number of Davidson start vectors     ....     2
   Converg. threshold I  (grad. norm)   ....   1.000e-05
   Converg. threshold II (energy diff.) ....   1.000e-08
   Grad. Scal. Fac. for Micro threshold ....   0.100
   Minimum threshold for Micro iter.    ....   0.010
   NR start threshold (gradient norm)   ....   0.001
   Initial trust radius                 ....   0.400
   Minimum AH scaling param. (alpha)    ....   1.000
   Maximum AH scaling param. (alpha)    .... 1000.000
   Orbital update algorithm             .... Taylor
   White noise on init. David. guess    .... on
   Maximum white noise                  ....   0.010
   Quad. conv. algorithm                .... NR
 SOSCF                  CNVSOSCF        .... on
   Start iteration      SOSCFMaxIt      ....   150
   Startup grad/error   SOSCFStart      ....  0.003300
 Level Shifting         CNVShift        .... on
   Level shift para.    LevelShift      ....    0.2500
   Turn off err/grad.   ShiftErr        ....    0.0010
 Zerner damping         CNVZerner       .... off
 Static damping         CNVDamp         .... on
   Fraction old density DampFac         ....    0.7000
   Max. Damping (<1)    DampMax         ....    0.9800
   Min. Damping (>=0)   DampMin         ....    0.0000
   Turn off err/grad.   DampErr         ....    0.1000
 Fernandez-Rico         CNVRico         .... off

SCF Procedure:
 Maximum # iterations   MaxIter         ....   125
 SCF integral mode      SCFMode         .... Direct
   Integral package                     .... SHARK and LIBINT hybrid scheme
 Reset frequency        DirectResetFreq ....    20
 Integral Threshold     Thresh          ....  2.500e-11 Eh
 Primitive CutOff       TCut            ....  2.500e-12 Eh

Convergence Tolerance:
 Convergence Check Mode ConvCheckMode   .... Total+1el-Energy
 Convergence forced     ConvForced      .... 1
 Energy Change          TolE            ....  1.000e-08 Eh
 1-El. energy change                    ....  1.000e-05 Eh
 Orbital Gradient       TolG            ....  1.000e-05
 Orbital Rotation angle TolX            ....  1.000e-05
 DIIS Error             TolErr          ....  5.000e-07


Diagonalization of the overlap matrix:
Smallest eigenvalue                        ... 2.193e-04
Time for diagonalization                   ...    0.358 sec
Threshold for overlap eigenvalues          ... 1.000e-08
Number of eigenvalues below threshold      ... 0
Time for construction of square roots      ...    0.245 sec
Total time needed                          ...    0.609 sec

Time for model grid setup =    1.051 sec

------------------------------
INITIAL GUESS: MODEL POTENTIAL
------------------------------
Loading Hartree-Fock densities                     ... done
Calculating cut-offs                               ... done
Initializing the effective Hamiltonian             ... done
Setting up the integral package (SHARK)            ... done
Starting the Coulomb interaction                   ... done (   1.1 sec)
Reading the grid                                   ... done
Mapping shells                                     ... done
Starting the XC term evaluation                    ... done (   0.2 sec)
Transforming the Hamiltonian                       ... done (   0.2 sec)
Diagonalizing the Hamiltonian                      ... done (   0.3 sec)
Back transforming the eigenvectors                 ... done (   0.1 sec)
Now organizing SCF variables                       ... done
                      ------------------
                      INITIAL GUESS DONE (   3.1 sec)
                      ------------------
--------------
SCF ITERATIONS
--------------
ITER       Energy         Delta-E        Max-DP      RMS-DP      [F,P]     Damp
               ***  Starting incremental Fock matrix formation  ***
  0  -2121.6821865592   0.000000000000 0.07141956  0.00121939  0.2321280 0.7000
  1  -2122.3365842968  -0.654397737677 0.05399633  0.00099195  0.1438037 0.7000
                               ***Turning on DIIS***
  2  -2122.7434931690  -0.406908872124 0.12646887  0.00225000  0.0802406 0.0000
  3  -2117.9211703970   4.822322772003 0.03854114  0.00067741  0.0438787 0.0000
  4  -2123.4186187261  -5.497448329159 0.01184703  0.00022635  0.0080930 0.0000
  5  -2123.5767678177  -0.158149091603 0.00577809  0.00013293  0.0049522 0.0000
  6  -2123.5606648351   0.016102982639 0.00370157  0.00008541  0.0020000 0.0000
  7  -2123.6584097817  -0.097744946590 0.00301934  0.00006723  0.0015678 0.0000
  8  -2123.6697083003  -0.011298518672 0.00318608  0.00006348  0.0014624 0.0000
  9  -2123.6391520775   0.030556222822 0.00254445  0.00004426  0.0011693 0.0000
 10  -2123.6488104786  -0.009658401079 0.00510948  0.00009147  0.0009045 0.0000
                      *** Initiating the SOSCF procedure ***
                           *** Shutting down DIIS ***
                      *** Re-Reading the Fockian *** 
                      *** Removing any level shift *** 
ITER      Energy       Delta-E        Grad      Rot      Max-DP    RMS-DP
 11  -2123.53898804   0.1098224339  0.000195  0.000195  0.000239  0.000005
               *** Restarting incremental Fock matrix formation ***
 12  -2123.60538490  -0.0663968576  0.000876  0.005880  0.001323  0.000033
 13  -2123.60548475  -0.0000998458  0.001075  0.029092  0.006202  0.000131
 14  -2123.60565674  -0.0001719891  0.000343  0.002040  0.000650  0.000012
 15  -2123.60567262  -0.0000158779  0.000180  0.002957  0.000788  0.000018
 16  -2123.60568253  -0.0000099182  0.000160  0.003005  0.000474  0.000011
 17  -2123.60568590  -0.0000033665  0.000148  0.002022  0.000344  0.000008
 18  -2123.60568777  -0.0000018739  0.000075  0.000964  0.000305  0.000005
 19  -2123.60568866  -0.0000008887  0.000046  0.000866  0.000182  0.000004
 20  -2123.60568899  -0.0000003298  0.000027  0.000588  0.000103  0.000003
 21  -2123.60568918  -0.0000001888  0.000026  0.000712  0.000134  0.000003
 22  -2123.60568933  -0.0000001457  0.000021  0.000636  0.000112  0.000002
 23  -2123.60568941  -0.0000000851  0.000013  0.000429  0.000076  0.000001
 24  -2123.60568946  -0.0000000459  0.000008  0.000313  0.000048  0.000001
 25  -2123.60568949  -0.0000000288  0.000009  0.000200  0.000035  0.000001
 26  -2123.60568950  -0.0000000155  0.000006  0.000179  0.000031  0.000001
 27  -2123.60568951  -0.0000000076  0.000004  0.000132  0.000025  0.000001
                  ***Gradient check signals convergence***
              ***Rediagonalizing the Fockian in SOSCF/NRSCF***

               *****************************************************
               *                     SUCCESS                       *
               *           SCF CONVERGED AFTER  28 CYCLES          *
               *****************************************************


----------------
TOTAL SCF ENERGY
----------------

Total Energy       :        -2123.60568951 Eh          -57786.24861 eV

Components:
Nuclear Repulsion  :         6231.03569056 Eh          169555.10115 eV
Electronic Energy  :        -8354.64138007 Eh         -227341.34976 eV
One Electron Energy:       -15302.85283004 Eh         -416411.79547 eV
Two Electron Energy:         6948.21144997 Eh          189070.44571 eV

Virial components:
Potential Energy   :        -4245.78521787 Eh         -115533.68940 eV
Kinetic Energy     :         2122.17952836 Eh           57747.44079 eV
Virial Ratio       :            2.00067203


---------------
SCF CONVERGENCE
---------------

  Last Energy change         ...   -1.6862e-09  Tolerance :   1.0000e-08
  Last MAX-Density change    ...    1.3348e-05  Tolerance :   1.0000e-07
  Last RMS-Density change    ...    2.8752e-07  Tolerance :   5.0000e-09
  Last Orbital Gradient      ...    2.4077e-06  Tolerance :   1.0000e-05
  Last Orbital Rotation      ...    7.5971e-05  Tolerance :   1.0000e-05

             **** THE GBW FILE WAS UPDATED (/scratch/allen/tmpyp4_amber_gaff2/conf1/conf1/Conf34.orca.gbw) ****
             **** DENSITY /scratch/allen/tmpyp4_amber_gaff2/conf1/conf1/Conf34.orca.scfp WAS UPDATED ****
             **** ENERGY FILE WAS UPDATED (/scratch/allen/tmpyp4_amber_gaff2/conf1/conf1/Conf34.orca.en.tmp) ****
             **** THE GBW FILE WAS UPDATED (/scratch/allen/tmpyp4_amber_gaff2/conf1/conf1/Conf34.orca.gbw) ****
             **** DENSITY /scratch/allen/tmpyp4_amber_gaff2/conf1/conf1/Conf34.orca.scfp WAS UPDATED ****
----------------
ORBITAL ENERGIES
----------------

  NO   OCC          E(Eh)            E(eV) 
   0   2.0000     -15.671138      -426.4334 
   1   2.0000     -15.634763      -425.4435 
   2   2.0000     -15.630934      -425.3393 
   3   2.0000     -15.593226      -424.3132 
   4   2.0000     -15.524277      -422.4370 
   5   2.0000     -15.516293      -422.2198 
   6   2.0000     -15.452047      -420.4716 
   7   2.0000     -15.441598      -420.1872 
   8   2.0000     -11.322593      -308.1034 
   9   2.0000     -11.322392      -308.0979 
  10   2.0000     -11.320923      -308.0580 
  11   2.0000     -11.299817      -307.4837 
  12   2.0000     -11.297748      -307.4274 
  13   2.0000     -11.293218      -307.3041 
  14   2.0000     -11.289907      -307.2140 
  15   2.0000     -11.287711      -307.1542 
  16   2.0000     -11.286216      -307.1135 
  17   2.0000     -11.274645      -306.7987 
  18   2.0000     -11.273934      -306.7794 
  19   2.0000     -11.258387      -306.3563 
  20   2.0000     -11.257315      -306.3271 
  21   2.0000     -11.256362      -306.3012 
  22   2.0000     -11.256205      -306.2969 
  23   2.0000     -11.238402      -305.8125 
  24   2.0000     -11.235684      -305.7385 
  25   2.0000     -11.231769      -305.6320 
  26   2.0000     -11.230962      -305.6100 
  27   2.0000     -11.229050      -305.5580 
  28   2.0000     -11.228956      -305.5554 
  29   2.0000     -11.209064      -305.0141 
  30   2.0000     -11.207887      -304.9821 
  31   2.0000     -11.202136      -304.8256 
  32   2.0000     -11.195675      -304.6498 
  33   2.0000     -11.193503      -304.5907 
  34   2.0000     -11.190577      -304.5111 
  35   2.0000     -11.189608      -304.4847 
  36   2.0000     -11.187709      -304.4330 
  37   2.0000     -11.185053      -304.3608 
  38   2.0000     -11.183986      -304.3317 
  39   2.0000     -11.172481      -304.0187 
  40   2.0000     -11.171579      -303.9941 
  41   2.0000     -11.170139      -303.9549 
  42   2.0000     -11.166631      -303.8595 
  43   2.0000     -11.161839      -303.7291 
  44   2.0000     -11.159728      -303.6716 
  45   2.0000     -11.158359      -303.6344 
  46   2.0000     -11.158149      -303.6287 
  47   2.0000     -11.153685      -303.5072 
  48   2.0000     -11.148716      -303.3720 
  49   2.0000     -11.141101      -303.1648 
  50   2.0000     -11.133127      -302.9478 
  51   2.0000     -11.124182      -302.7044 
  52   2.0000      -1.353028       -36.8178 
  53   2.0000      -1.321904       -35.9708 
  54   2.0000      -1.318811       -35.8867 
  55   2.0000      -1.286909       -35.0186 
  56   2.0000      -1.224679       -33.3252 
  57   2.0000      -1.210848       -32.9489 
  58   2.0000      -1.170826       -31.8598 
  59   2.0000      -1.152559       -31.3627 
  60   2.0000      -1.137486       -30.9526 
  61   2.0000      -1.110732       -30.2246 
  62   2.0000      -1.108307       -30.1586 
  63   2.0000      -1.082492       -29.4561 
  64   2.0000      -1.075255       -29.2592 
  65   2.0000      -1.046050       -28.4645 
  66   2.0000      -1.043519       -28.3956 
  67   2.0000      -1.037036       -28.2192 
  68   2.0000      -1.015349       -27.6291 
  69   2.0000      -1.014170       -27.5970 
  70   2.0000      -1.009819       -27.4786 
  71   2.0000      -0.992412       -27.0049 
  72   2.0000      -0.987243       -26.8642 
  73   2.0000      -0.978979       -26.6394 
  74   2.0000      -0.972566       -26.4649 
  75   2.0000      -0.960567       -26.1384 
  76   2.0000      -0.952687       -25.9239 
  77   2.0000      -0.946921       -25.7670 
  78   2.0000      -0.935294       -25.4506 
  79   2.0000      -0.919930       -25.0326 
  80   2.0000      -0.904540       -24.6138 
  81   2.0000      -0.893082       -24.3020 
  82   2.0000      -0.874323       -23.7915 
  83   2.0000      -0.871581       -23.7169 
  84   2.0000      -0.868173       -23.6242 
  85   2.0000      -0.856479       -23.3060 
  86   2.0000      -0.842060       -22.9136 
  87   2.0000      -0.836502       -22.7624 
  88   2.0000      -0.823726       -22.4147 
  89   2.0000      -0.798120       -21.7180 
  90   2.0000      -0.792559       -21.5666 
  91   2.0000      -0.748850       -20.3772 
  92   2.0000      -0.740933       -20.1618 
  93   2.0000      -0.732401       -19.9296 
  94   2.0000      -0.723553       -19.6889 
  95   2.0000      -0.721499       -19.6330 
  96   2.0000      -0.715155       -19.4604 
  97   2.0000      -0.709761       -19.3136 
  98   2.0000      -0.705691       -19.2028 
  99   2.0000      -0.696128       -18.9426 
 100   2.0000      -0.695900       -18.9364 
 101   2.0000      -0.683758       -18.6060 
 102   2.0000      -0.679028       -18.4773 
 103   2.0000      -0.678485       -18.4625 
 104   2.0000      -0.677791       -18.4436 
 105   2.0000      -0.672827       -18.3086 
 106   2.0000      -0.668225       -18.1833 
 107   2.0000      -0.661220       -17.9927 
 108   2.0000      -0.655637       -17.8408 
 109   2.0000      -0.653690       -17.7878 
 110   2.0000      -0.650544       -17.7022 
 111   2.0000      -0.643478       -17.5099 
 112   2.0000      -0.641110       -17.4455 
 113   2.0000      -0.639783       -17.4094 
 114   2.0000      -0.638063       -17.3626 
 115   2.0000      -0.627242       -17.0681 
 116   2.0000      -0.626010       -17.0346 
 117   2.0000      -0.618101       -16.8194 
 118   2.0000      -0.613028       -16.6813 
 119   2.0000      -0.612051       -16.6548 
 120   2.0000      -0.610737       -16.6190 
 121   2.0000      -0.605949       -16.4887 
 122   2.0000      -0.600620       -16.3437 
 123   2.0000      -0.586827       -15.9684 
 124   2.0000      -0.582486       -15.8503 
 125   2.0000      -0.580689       -15.8014 
 126   2.0000      -0.579559       -15.7706 
 127   2.0000      -0.576701       -15.6928 
 128   2.0000      -0.566031       -15.4025 
 129   2.0000      -0.558973       -15.2104 
 130   2.0000      -0.551974       -15.0200 
 131   2.0000      -0.547871       -14.9083 
 132   2.0000      -0.542191       -14.7538 
 133   2.0000      -0.539401       -14.6778 
 134   2.0000      -0.538101       -14.6425 
 135   2.0000      -0.535527       -14.5724 
 136   2.0000      -0.527265       -14.3476 
 137   2.0000      -0.523498       -14.2451 
 138   2.0000      -0.516639       -14.0585 
 139   2.0000      -0.513904       -13.9840 
 140   2.0000      -0.512492       -13.9456 
 141   2.0000      -0.511380       -13.9153 
 142   2.0000      -0.508937       -13.8489 
 143   2.0000      -0.503621       -13.7042 
 144   2.0000      -0.501503       -13.6466 
 145   2.0000      -0.497343       -13.5334 
 146   2.0000      -0.493547       -13.4301 
 147   2.0000      -0.484564       -13.1856 
 148   2.0000      -0.480804       -13.0833 
 149   2.0000      -0.467057       -12.7093 
 150   2.0000      -0.465574       -12.6689 
 151   2.0000      -0.457102       -12.4384 
 152   2.0000      -0.450114       -12.2482 
 153   2.0000      -0.445494       -12.1225 
 154   2.0000      -0.442151       -12.0315 
 155   2.0000      -0.435627       -11.8540 
 156   2.0000      -0.429527       -11.6880 
 157   2.0000      -0.418858       -11.3977 
 158   2.0000      -0.403609       -10.9828 
 159   2.0000      -0.388130       -10.5615 
 160   2.0000      -0.382019       -10.3953 
 161   2.0000      -0.378302       -10.2941 
 162   2.0000      -0.370099       -10.0709 
 163   2.0000      -0.357145        -9.7184 
 164   2.0000      -0.355200        -9.6655 
 165   2.0000      -0.339947        -9.2504 
 166   2.0000      -0.337381        -9.1806 
 167   2.0000      -0.327014        -8.8985 
 168   2.0000      -0.326010        -8.8712 
 169   2.0000      -0.303420        -8.2565 
 170   2.0000      -0.299800        -8.1580 
 171   2.0000      -0.286307        -7.7908 
 172   2.0000      -0.282687        -7.6923 
 173   2.0000      -0.262232        -7.1357 
 174   2.0000      -0.243430        -6.6241 
 175   2.0000      -0.189768        -5.1639 
 176   2.0000      -0.180100        -4.9008 
 177   2.0000      -0.074780        -2.0349 
 178   2.0000      -0.058063        -1.5800 
 179   0.0000       0.028660         0.7799 
 180   0.0000       0.066795         1.8176 
 181   0.0000       0.091475         2.4892 
 182   0.0000       0.108741         2.9590 
 183   0.0000       0.111908         3.0452 
 184   0.0000       0.136616         3.7175 
 185   0.0000       0.139846         3.8054 
 186   0.0000       0.145435         3.9575 
 187   0.0000       0.163038         4.4365 
 188   0.0000       0.164685         4.4813 
 189   0.0000       0.166184         4.5221 
 190   0.0000       0.167891         4.5686 
 191   0.0000       0.184918         5.0319 
 192   0.0000       0.185566         5.0495 
 193   0.0000       0.188326         5.1246 
 194   0.0000       0.204502         5.5648 
 195   0.0000       0.206106         5.6084 
 196   0.0000       0.207813         5.6549 
 197   0.0000       0.209131         5.6907 
 198   0.0000       0.220741         6.0067 
 199   0.0000       0.225575         6.1382 
 200   0.0000       0.229843         6.2544 
 201   0.0000       0.237677         6.4675 
 202   0.0000       0.239222         6.5096 
 203   0.0000       0.240265         6.5380 
 204   0.0000       0.249084         6.7779 
 205   0.0000       0.256521         6.9803 
 206   0.0000       0.256579         6.9819 
 207   0.0000       0.258294         7.0285 
 208   0.0000       0.258714         7.0400 
 209   0.0000       0.262437         7.1413 
 210   0.0000       0.262975         7.1559 
 211   0.0000       0.269251         7.3267 
 212   0.0000       0.270938         7.3726 
 213   0.0000       0.272550         7.4165 
 214   0.0000       0.273573         7.4443 
 215   0.0000       0.275864         7.5066 
 216   0.0000       0.278355         7.5744 
 217   0.0000       0.282181         7.6785 
 218   0.0000       0.285785         7.7766 
 219   0.0000       0.288218         7.8428 
 220   0.0000       0.289991         7.8911 
 221   0.0000       0.292578         7.9614 
 222   0.0000       0.295093         8.0299 
 223   0.0000       0.296457         8.0670 
 224   0.0000       0.297327         8.0907 
 225   0.0000       0.298479         8.1220 
 226   0.0000       0.306255         8.3336 
 227   0.0000       0.307976         8.3804 
 228   0.0000       0.309915         8.4332 
 229   0.0000       0.324611         8.8331 
 230   0.0000       0.325731         8.8636 
 231   0.0000       0.329086         8.9549 
 232   0.0000       0.333686         9.0800 
 233   0.0000       0.337849         9.1933 
 234   0.0000       0.351487         9.5645 
 235   0.0000       0.353528         9.6200 
 236   0.0000       0.368875        10.0376 
 237   0.0000       0.378922        10.3110 
 238   0.0000       0.394151        10.7254 
 239   0.0000       0.396936        10.8012 
 240   0.0000       0.400520        10.8987 
 241   0.0000       0.411822        11.2063 
 242   0.0000       0.416404        11.3309 
 243   0.0000       0.419915        11.4265 
 244   0.0000       0.429285        11.6814 
 245   0.0000       0.433843        11.8055 
 246   0.0000       0.435889        11.8611 
 247   0.0000       0.441089        12.0026 
 248   0.0000       0.441782        12.0215 
 249   0.0000       0.449033        12.2188 
 250   0.0000       0.453417        12.3381 
 251   0.0000       0.459305        12.4983 
 252   0.0000       0.466637        12.6978 
 253   0.0000       0.469321        12.7709 
 254   0.0000       0.471733        12.8365 
 255   0.0000       0.472796        12.8654 
 256   0.0000       0.479112        13.0373 
 257   0.0000       0.481945        13.1144 
 258   0.0000       0.486709        13.2440 
 259   0.0000       0.498097        13.5539 
 260   0.0000       0.504175        13.7193 
 261   0.0000       0.504619        13.7314 
 262   0.0000       0.506929        13.7942 
 263   0.0000       0.507793        13.8177 
 264   0.0000       0.514258        13.9937 
 265   0.0000       0.519368        14.1327 
 266   0.0000       0.524727        14.2785 
 267   0.0000       0.528894        14.3919 
 268   0.0000       0.531833        14.4719 
 269   0.0000       0.536995        14.6124 
 270   0.0000       0.540362        14.7040 
 271   0.0000       0.547514        14.8986 
 272   0.0000       0.552469        15.0335 
 273   0.0000       0.559117        15.2143 
 274   0.0000       0.561156        15.2698 
 275   0.0000       0.564767        15.3681 
 276   0.0000       0.570981        15.5372 
 277   0.0000       0.571492        15.5511 
 278   0.0000       0.577660        15.7189 
 279   0.0000       0.586577        15.9616 
 280   0.0000       0.589224        16.0336 
 281   0.0000       0.592994        16.1362 
 282   0.0000       0.593393        16.1471 
 283   0.0000       0.595468        16.2035 
 284   0.0000       0.598059        16.2740 
 285   0.0000       0.600190        16.3320 
 286   0.0000       0.607646        16.5349 
 287   0.0000       0.612695        16.6723 
 288   0.0000       0.615597        16.7513 
 289   0.0000       0.621091        16.9007 
 290   0.0000       0.627075        17.0636 
 291   0.0000       0.629892        17.1402 
 292   0.0000       0.634066        17.2538 
 293   0.0000       0.637772        17.3547 
 294   0.0000       0.645940        17.5769 
 295   0.0000       0.648081        17.6352 
 296   0.0000       0.653853        17.7922 
 297   0.0000       0.656382        17.8611 
 298   0.0000       0.663905        18.0658 
 299   0.0000       0.668232        18.1835 
 300   0.0000       0.670263        18.2388 
 301   0.0000       0.674480        18.3535 
 302   0.0000       0.677267        18.4294 
 303   0.0000       0.680113        18.5068 
 304   0.0000       0.680615        18.5205 
 305   0.0000       0.685842        18.6627 
 306   0.0000       0.688610        18.7380 
 307   0.0000       0.690817        18.7981 
 308   0.0000       0.695918        18.9369 
 309   0.0000       0.697921        18.9914 
 310   0.0000       0.702896        19.1268 
 311   0.0000       0.703722        19.1492 
 312   0.0000       0.707454        19.2508 
 313   0.0000       0.709841        19.3157 
 314   0.0000       0.711386        19.3578 
 315   0.0000       0.715284        19.4639 
 316   0.0000       0.717303        19.5188 
 317   0.0000       0.718868        19.5614 
 318   0.0000       0.720050        19.5936 
 319   0.0000       0.723980        19.7005 
 320   0.0000       0.725709        19.7476 
 321   0.0000       0.731728        19.9113 
 322   0.0000       0.732579        19.9345 
 323   0.0000       0.734420        19.9846 
 324   0.0000       0.736006        20.0277 
 325   0.0000       0.740276        20.1439 
 326   0.0000       0.743536        20.2326 
 327   0.0000       0.745845        20.2955 
 328   0.0000       0.749664        20.3994 
 329   0.0000       0.750024        20.4092 
 330   0.0000       0.754168        20.5220 
 331   0.0000       0.757279        20.6066 
 332   0.0000       0.760547        20.6955 
 333   0.0000       0.763275        20.7698 
 334   0.0000       0.767743        20.8914 
 335   0.0000       0.772874        21.0310 
 336   0.0000       0.773859        21.0578 
 337   0.0000       0.780550        21.2398 
 338   0.0000       0.782967        21.3056 
 339   0.0000       0.789050        21.4711 
 340   0.0000       0.791762        21.5449 
 341   0.0000       0.794919        21.6308 
 342   0.0000       0.796250        21.6671 
 343   0.0000       0.803555        21.8658 
 344   0.0000       0.805109        21.9081 
 345   0.0000       0.807918        21.9846 
 346   0.0000       0.808391        21.9974 
 347   0.0000       0.811056        22.0700 
 348   0.0000       0.814977        22.1766 
 349   0.0000       0.818868        22.2825 
 350   0.0000       0.819221        22.2921 
 351   0.0000       0.822822        22.3901 
 352   0.0000       0.825120        22.4526 
 353   0.0000       0.825555        22.4645 
 354   0.0000       0.827316        22.5124 
 355   0.0000       0.831632        22.6299 
 356   0.0000       0.833243        22.6737 
 357   0.0000       0.836648        22.7664 
 358   0.0000       0.837054        22.7774 
 359   0.0000       0.838625        22.8202 
 360   0.0000       0.839195        22.8357 
 361   0.0000       0.843263        22.9464 
 362   0.0000       0.844415        22.9777 
 363   0.0000       0.847097        23.0507 
 364   0.0000       0.847926        23.0732 
 365   0.0000       0.853521        23.2255 
 366   0.0000       0.856848        23.3160 
 367   0.0000       0.860213        23.4076 
 368   0.0000       0.863878        23.5073 
 369   0.0000       0.866254        23.5720 
 370   0.0000       0.868787        23.6409 
 371   0.0000       0.872521        23.7425 
 372   0.0000       0.873406        23.7666 
 373   0.0000       0.876489        23.8505 
 374   0.0000       0.880040        23.9471 
 375   0.0000       0.884080        24.0570 
 376   0.0000       0.886531        24.1237 
 377   0.0000       0.888138        24.1675 
 378   0.0000       0.889238        24.1974 
 379   0.0000       0.893107        24.3027 
 380   0.0000       0.897334        24.4177 
 381   0.0000       0.899779        24.4842 
 382   0.0000       0.900846        24.5133 
 383   0.0000       0.901530        24.5319 
 384   0.0000       0.903470        24.5847 
 385   0.0000       0.904663        24.6171 
 386   0.0000       0.907528        24.6951 
 387   0.0000       0.908704        24.7271 
 388   0.0000       0.910929        24.7876 
 389   0.0000       0.916497        24.9392 
 390   0.0000       0.920957        25.0605 
 391   0.0000       0.923740        25.1363 
 392   0.0000       0.925165        25.1750 
 393   0.0000       0.926697        25.2167 
 394   0.0000       0.927094        25.2275 
 395   0.0000       0.930106        25.3095 
 396   0.0000       0.934047        25.4167 
 397   0.0000       0.938147        25.5283 
 398   0.0000       0.940529        25.5931 
 399   0.0000       0.942338        25.6423 
 400   0.0000       0.944037        25.6886 
 401   0.0000       0.948257        25.8034 
 402   0.0000       0.953076        25.9345 
 403   0.0000       0.956359        26.0239 
 404   0.0000       0.959950        26.1216 
 405   0.0000       0.962296        26.1854 
 406   0.0000       0.964389        26.2424 
 407   0.0000       0.969275        26.3753 
 408   0.0000       0.970203        26.4006 
 409   0.0000       0.978192        26.6180 
 410   0.0000       0.981091        26.6969 
 411   0.0000       0.986174        26.8352 
 412   0.0000       0.988425        26.8964 
 413   0.0000       0.996017        27.1030 
 414   0.0000       0.998721        27.1766 
 415   0.0000       1.000346        27.2208 
 416   0.0000       1.004494        27.3337 
 417   0.0000       1.011739        27.5308 
 418   0.0000       1.020080        27.7578 
 419   0.0000       1.021399        27.7937 
 420   0.0000       1.027781        27.9673 
 421   0.0000       1.031613        28.0716 
 422   0.0000       1.035011        28.1641 
 423   0.0000       1.043661        28.3995 
 424   0.0000       1.049774        28.5658 
 425   0.0000       1.053446        28.6657 
 426   0.0000       1.057873        28.7862 
 427   0.0000       1.064572        28.9685 
 428   0.0000       1.073901        29.2223 
 429   0.0000       1.079303        29.3693 
 430   0.0000       1.080891        29.4125 
 431   0.0000       1.084219        29.5031 
 432   0.0000       1.089677        29.6516 
 433   0.0000       1.090921        29.6855 
 434   0.0000       1.100196        29.9378 
 435   0.0000       1.101008        29.9599 
 436   0.0000       1.106013        30.0962 
 437   0.0000       1.110866        30.2282 
 438   0.0000       1.114773        30.3345 
 439   0.0000       1.117885        30.4192 
 440   0.0000       1.120287        30.4846 
 441   0.0000       1.122554        30.5462 
 442   0.0000       1.124489        30.5989 
 443   0.0000       1.127890        30.6914 
 444   0.0000       1.133772        30.8515 
 445   0.0000       1.136098        30.9148 
 446   0.0000       1.140405        31.0320 
 447   0.0000       1.143219        31.1086 
 448   0.0000       1.144940        31.1554 
 449   0.0000       1.149693        31.2847 
 450   0.0000       1.152139        31.3513 
 451   0.0000       1.158555        31.5259 
 452   0.0000       1.159215        31.5438 
 453   0.0000       1.165471        31.7141 
 454   0.0000       1.166380        31.7388 
 455   0.0000       1.169944        31.8358 
 456   0.0000       1.172087        31.8941 
 457   0.0000       1.176404        32.0116 
 458   0.0000       1.182025        32.1645 
 459   0.0000       1.185378        32.2558 
 460   0.0000       1.192916        32.4609 
 461   0.0000       1.197490        32.5854 
 462   0.0000       1.200352        32.6632 
 463   0.0000       1.205810        32.8118 
 464   0.0000       1.207937        32.8696 
 465   0.0000       1.210016        32.9262 
 466   0.0000       1.216812        33.1111 
 467   0.0000       1.218417        33.1548 
 468   0.0000       1.220643        33.2154 
 469   0.0000       1.225895        33.3583 
 470   0.0000       1.228512        33.4295 
 471   0.0000       1.230793        33.4916 
 472   0.0000       1.234593        33.5950 
 473   0.0000       1.235122        33.6094 
 474   0.0000       1.243097        33.8264 
 475   0.0000       1.243734        33.8437 
 476   0.0000       1.248935        33.9852 
 477   0.0000       1.250579        34.0300 
 478   0.0000       1.251773        34.0625 
 479   0.0000       1.254546        34.1379 
 480   0.0000       1.258155        34.2361 
 481   0.0000       1.264333        34.4042 
 482   0.0000       1.264719        34.4148 
 483   0.0000       1.269468        34.5440 
 484   0.0000       1.273099        34.6428 
 485   0.0000       1.277846        34.7719 
 486   0.0000       1.282211        34.8907 
 487   0.0000       1.284565        34.9548 
 488   0.0000       1.287365        35.0310 
 489   0.0000       1.290564        35.1180 
 490   0.0000       1.294582        35.2274 
 491   0.0000       1.296952        35.2918 
 492   0.0000       1.300562        35.3901 
 493   0.0000       1.309334        35.6288 
 494   0.0000       1.311338        35.6833 
 495   0.0000       1.316406        35.8212 
 496   0.0000       1.321683        35.9648 
 497   0.0000       1.324684        36.0465 
 498   0.0000       1.324840        36.0507 
 499   0.0000       1.328841        36.1596 
 500   0.0000       1.332067        36.2474 
 501   0.0000       1.334673        36.3183 
 502   0.0000       1.338894        36.4332 
 503   0.0000       1.342455        36.5301 
 504   0.0000       1.346065        36.6283 
 505   0.0000       1.351059        36.7642 
 506   0.0000       1.352444        36.8019 
 507   0.0000       1.356427        36.9102 
 508   0.0000       1.358807        36.9750 
 509   0.0000       1.362136        37.0656 
[...]
      pz      :     0.022088  p :     0.079737
      px      :     0.043548
      py      :     0.014100
 77 H s       :     0.885473  s :     0.885473
      pz      :     0.047905  p :     0.079207
      px      :     0.015021
      py      :     0.016281
 78 H s       :     0.885830  s :     0.885830
      pz      :     0.025846  p :     0.079170
      px      :     0.020476
      py      :     0.032848
 79 H s       :     0.910365  s :     0.910365
      pz      :     0.021866  p :     0.086395
      px      :     0.021682
      py      :     0.042847
 80 H s       :     0.865737  s :     0.865737
      pz      :     0.039283  p :     0.084676
      px      :     0.030205
      py      :     0.015189
 81 H s       :     0.886972  s :     0.886972
      pz      :     0.037802  p :     0.084081
      px      :     0.016180
      py      :     0.030098
 82 H s       :     0.915795  s :     0.915795
      pz      :     0.021978  p :     0.086753
      px      :     0.031595
      py      :     0.033180
 83 H s       :     0.873248  s :     0.873248
      pz      :     0.039275  p :     0.084071
      px      :     0.015270
      py      :     0.029525
 84 H s       :     0.886749  s :     0.886749
      pz      :     0.035777  p :     0.083496
      px      :     0.031702
      py      :     0.016018
 85 H s       :     0.892990  s :     0.892990
      pz      :     0.022493  p :     0.079781
      px      :     0.014073
      py      :     0.043215
 86 H s       :     0.890947  s :     0.890947
      pz      :     0.024730  p :     0.078835
      px      :     0.032983
      py      :     0.021123
 87 H s       :     0.889962  s :     0.889962
      pz      :     0.048000  p :     0.078730
      px      :     0.015591
      py      :     0.015138
 88 H s       :     0.911135  s :     0.911135
      pz      :     0.021690  p :     0.087000
      px      :     0.042867
      py      :     0.022443
 89 H s       :     0.871681  s :     0.871681
      pz      :     0.037927  p :     0.083828
      px      :     0.030468
      py      :     0.015432


                      *****************************
                      * MAYER POPULATION ANALYSIS *
                      *****************************

  NA   - Mulliken gross atomic population
  ZA   - Total nuclear charge
  QA   - Mulliken gross atomic charge
  VA   - Mayer's total valence
  BVA  - Mayer's bonded valence
  FA   - Mayer's free valence

  ATOM       NA         ZA         QA         VA         BVA        FA
  0 C      5.7911     6.0000     0.2089     3.8402     3.8402    -0.0000
  1 N      7.4544     7.0000    -0.4544     3.3334     3.3334    -0.0000
  2 C      6.0645     6.0000    -0.0645     3.9202     3.9202    -0.0000
  3 N      7.3368     7.0000    -0.3368     3.4569     3.4569     0.0000
  4 C      6.0482     6.0000    -0.0482     4.0201     4.0201    -0.0000
  5 N      7.5639     7.0000    -0.5639     3.0937     3.0937     0.0000
  6 C      6.1075     6.0000    -0.1075     3.9936     3.9936    -0.0000
  7 N      7.3400     7.0000    -0.3400     3.4350     3.4350     0.0000
  8 C      5.7941     6.0000     0.2059     3.8404     3.8404    -0.0000
  9 N      7.5624     7.0000    -0.5624     3.0783     3.0783    -0.0000
 10 C      5.8816     6.0000     0.1184     3.9078     3.9078     0.0000
 11 N      7.4383     7.0000    -0.4383     3.3789     3.3789     0.0000
 12 C      6.0830     6.0000    -0.0830     3.9028     3.9028    -0.0000
 13 N      7.4315     7.0000    -0.4315     3.4188     3.4188     0.0000
 14 C      5.7647     6.0000     0.2353     3.7836     3.7836    -0.0000
 15 N      7.4410     7.0000    -0.4410     3.3718     3.3718    -0.0000
 16 C      5.7720     6.0000     0.2280     3.7803     3.7803    -0.0000
 17 C      6.1186     6.0000    -0.1186     4.0009     4.0009    -0.0000
 18 C      6.1980     6.0000    -0.1980     3.7677     3.7677    -0.0000
 19 C      5.7721     6.0000     0.2279     3.8614     3.8614    -0.0000
 20 C      5.7875     6.0000     0.2125     3.8287     3.8287    -0.0000
 21 C      6.0943     6.0000    -0.0943     3.8872     3.8872    -0.0000
 22 C      6.0909     6.0000    -0.0909     3.9828     3.9828     0.0000
 23 C      6.0410     6.0000    -0.0410     3.9924     3.9924     0.0000
 24 C      5.8045     6.0000     0.1955     3.8217     3.8217     0.0000
 25 C      5.8855     6.0000     0.1145     3.8913     3.8913     0.0000
 26 C      6.0796     6.0000    -0.0796     3.9093     3.9093    -0.0000
 27 C      5.7867     6.0000     0.2133     3.8653     3.8653    -0.0000
 28 C      6.0603     6.0000    -0.0603     3.9886     3.9886    -0.0000
 29 C      6.1805     6.0000    -0.1805     3.7442     3.7442     0.0000
 30 C      5.7557     6.0000     0.2443     3.7994     3.7994     0.0000
 31 C      5.7733     6.0000     0.2267     3.8193     3.8193     0.0000
 32 C      6.0624     6.0000    -0.0624     3.9223     3.9223     0.0000
 33 C      6.0644     6.0000    -0.0644     3.9747     3.9747    -0.0000
 34 C      6.0508     6.0000    -0.0508     3.9853     3.9853     0.0000
 35 C      5.7764     6.0000     0.2236     3.8184     3.8184     0.0000
 36 C      5.8906     6.0000     0.1094     3.8780     3.8780     0.0000
 37 C      6.0648     6.0000    -0.0648     3.9176     3.9176     0.0000
 38 C      5.7677     6.0000     0.2323     3.8001     3.8001    -0.0000
 39 C      6.0584     6.0000    -0.0584     3.9847     3.9847    -0.0000
 40 C      6.1827     6.0000    -0.1827     3.7300     3.7300    -0.0000
 41 C      5.7749     6.0000     0.2251     3.8857     3.8857    -0.0000
 42 C      5.8018     6.0000     0.1982     3.8262     3.8262     0.0000
 43 C      6.0725     6.0000    -0.0725     3.9005     3.9005     0.0000
 44 C      6.0897     6.0000    -0.0897     3.9849     3.9849    -0.0000
 45 C      6.0598     6.0000    -0.0598     3.9924     3.9924     0.0000
 46 C      5.7899     6.0000     0.2101     3.8281     3.8281     0.0000
 47 C      5.8846     6.0000     0.1154     3.8931     3.8931     0.0000
 48 C      6.0682     6.0000    -0.0682     3.9088     3.9088    -0.0000
 49 C      5.7633     6.0000     0.2367     3.8920     3.8920     0.0000
 50 C      6.0476     6.0000    -0.0476     3.9905     3.9905    -0.0000
 51 C      6.1913     6.0000    -0.1913     3.7360     3.7360    -0.0000
 52 H      0.9593     1.0000     0.0407     0.9859     0.9859    -0.0000
 53 H      1.0164     1.0000    -0.0164     0.9983     0.9983     0.0000
 54 H      0.9469     1.0000     0.0531     1.0149     1.0149     0.0000
 55 H      0.9604     1.0000     0.0396     0.9868     0.9868    -0.0000
 56 H      0.9497     1.0000     0.0503     0.9697     0.9697     0.0000
 57 H      0.9511     1.0000     0.0489     0.9830     0.9830     0.0000
 58 H      0.9518     1.0000     0.0482     0.9848     0.9848     0.0000
 59 H      0.9989     1.0000     0.0011     1.0033     1.0033     0.0000
 60 H      0.9515     1.0000     0.0485     1.0135     1.0135     0.0000
 61 H      0.8286     1.0000     0.1714     1.0421     1.0421     0.0000
 62 H      0.8250     1.0000     0.1750     1.0435     1.0435     0.0000
 63 H      0.9446     1.0000     0.0554     0.9853     0.9853    -0.0000
 64 H      1.0082     1.0000    -0.0082     0.9977     0.9977     0.0000
 65 H      0.9526     1.0000     0.0474     1.0095     1.0095     0.0000
 66 H      0.9440     1.0000     0.0560     0.9854     0.9854    -0.0000
 67 H      0.9376     1.0000     0.0624     0.9719     0.9719    -0.0000
 68 H      0.9426     1.0000     0.0574     0.9868     0.9868    -0.0000
 69 H      0.9433     1.0000     0.0567     0.9828     0.9828     0.0000
 70 H      1.0288     1.0000    -0.0288     0.9935     0.9935    -0.0000
 71 H      0.9549     1.0000     0.0451     1.0060     1.0060    -0.0000
 72 H      0.9314     1.0000     0.0686     0.9838     0.9838    -0.0000
 73 H      1.0089     1.0000    -0.0089     1.0006     1.0006     0.0000
 74 H      0.9421     1.0000     0.0579     1.0100     1.0100     0.0000
 75 H      0.9321     1.0000     0.0679     0.9842     0.9842    -0.0000
 76 H      0.9275     1.0000     0.0725     0.9720     0.9720     0.0000
 77 H      0.9338     1.0000     0.0662     0.9854     0.9854     0.0000
 78 H      0.9346     1.0000     0.0654     0.9853     0.9853    -0.0000
 79 H      1.0160     1.0000    -0.0160     0.9978     0.9978     0.0000
 80 H      0.9413     1.0000     0.0587     1.0072     1.0072    -0.0000
 81 H      0.9460     1.0000     0.0540     0.9856     0.9856    -0.0000
 82 H      1.0245     1.0000    -0.0245     0.9936     0.9936     0.0000
 83 H      0.9579     1.0000     0.0421     1.0084     1.0084     0.0000
 84 H      0.9460     1.0000     0.0540     0.9853     0.9853     0.0000
 85 H      0.9394     1.0000     0.0606     0.9716     0.9716     0.0000
 86 H      0.9443     1.0000     0.0557     0.9839     0.9839     0.0000
 87 H      0.9430     1.0000     0.0570     0.9856     0.9856    -0.0000
 88 H      1.0156     1.0000    -0.0156     0.9964     0.9964    -0.0000
 89 H      0.9542     1.0000     0.0458     1.0074     1.0074    -0.0000

  Mayer bond orders larger than 0.100000
B(  0-C ,  1-N ) :   1.0952 B(  0-C , 17-C ) :   1.6964 B(  0-C , 52-H ) :   0.9675 
B(  1-N ,  8-C ) :   1.0880 B(  1-N , 10-C ) :   0.9762 B(  2-C , 12-C ) :   1.5105 
B(  2-C , 16-C ) :   1.3532 B(  2-C , 53-H ) :   0.9755 B(  3-N , 14-C ) :   1.2180 
B(  3-N , 16-C ) :   1.1904 B(  3-N , 61-H ) :   0.8990 B(  4-C ,  6-C ) :   1.2152 
B(  4-C , 17-C ) :   1.2166 B(  4-C , 18-C ) :   1.4233 B(  5-N , 19-C ) :   1.4494 
B(  5-N , 27-C ) :   1.3812 B(  6-C ,  8-C ) :   1.7032 B(  6-C , 54-H ) :   0.9561 
B(  7-N , 30-C ) :   1.1956 B(  7-N , 38-C ) :   1.1921 B(  7-N , 62-H ) :   0.8971 
B(  8-C , 55-H ) :   0.9674 B(  9-N , 41-C ) :   1.3962 B(  9-N , 49-C ) :   1.4241 
B( 10-C , 56-H ) :   0.9770 B( 10-C , 57-H ) :   0.9821 B( 10-C , 58-H ) :   0.9843 
B( 11-N , 20-C ) :   1.1298 B( 11-N , 24-C ) :   1.1092 B( 11-N , 25-C ) :   0.9599 
B( 12-C , 14-C ) :   1.3534 B( 12-C , 59-H ) :   0.9736 B( 13-N , 31-C ) :   1.1542 
B( 13-N , 35-C ) :   1.1514 B( 13-N , 36-C ) :   0.9449 B( 14-C , 18-C ) :   1.1356 
B( 15-N , 42-C ) :   1.1088 B( 15-N , 46-C ) :   1.1221 B( 15-N , 47-C ) :   0.9616 
B( 16-C , 51-C ) :   1.1743 B( 17-C , 60-H ) :   0.9599 B( 18-C , 19-C ) :   1.1410 
B( 19-C , 21-C ) :   1.2427 B( 20-C , 28-C ) :   1.6279 B( 20-C , 63-H ) :   0.9703 
B( 21-C , 26-C ) :   1.6103 B( 21-C , 64-H ) :   0.9681 B( 22-C , 23-C ) :   1.2886 
B( 22-C , 28-C ) :   1.2654 B( 22-C , 29-C ) :   1.2241 B( 23-C , 24-C ) :   1.6199 
B( 23-C , 65-H ) :   0.9704 B( 24-C , 66-H ) :   0.9694 B( 25-C , 67-H ) :   0.9760 
B( 25-C , 68-H ) :   0.9828 B( 25-C , 69-H ) :   0.9823 B( 26-C , 27-C ) :   1.2390 
B( 26-C , 70-H ) :   0.9709 B( 27-C , 29-C ) :   1.2149 B( 28-C , 71-H ) :   0.9719 
B( 29-C , 30-C ) :   1.2379 B( 30-C , 32-C ) :   1.2864 B( 31-C , 39-C ) :   1.5961 
B( 31-C , 72-H ) :   0.9684 B( 32-C , 37-C ) :   1.5724 B( 32-C , 73-H ) :   0.9785 
B( 33-C , 34-C ) :   1.3012 B( 33-C , 39-C ) :   1.2970 B( 33-C , 40-C ) :   1.1897 
B( 34-C , 35-C ) :   1.5934 B( 34-C , 74-H ) :   0.9698 B( 35-C , 75-H ) :   0.9684 
B( 36-C , 76-H ) :   0.9767 B( 36-C , 77-H ) :   0.9817 B( 36-C , 78-H ) :   0.9825 
B( 37-C , 38-C ) :   1.2909 B( 37-C , 79-H ) :   0.9767 B( 38-C , 40-C ) :   1.2282 
B( 39-C , 80-H ) :   0.9707 B( 40-C , 41-C ) :   1.2453 B( 41-C , 43-C ) :   1.1896 
B( 42-C , 50-C ) :   1.6335 B( 42-C , 81-H ) :   0.9697 B( 43-C , 48-C ) :   1.6629 
B( 43-C , 82-H ) :   0.9724 B( 44-C , 45-C ) :   1.2646 B( 44-C , 50-C ) :   1.2712 
B( 44-C , 51-C ) :   1.2599 B( 45-C , 46-C ) :   1.6347 B( 45-C , 83-H ) :   0.9717 
B( 46-C , 84-H ) :   0.9700 B( 47-C , 85-H ) :   0.9762 B( 47-C , 86-H ) :   0.9829 
B( 47-C , 87-H ) :   0.9825 B( 48-C , 49-C ) :   1.1927 B( 48-C , 88-H ) :   0.9747 
B( 49-C , 51-C ) :   1.2388 B( 50-C , 89-H ) :   0.9710 

-------
TIMINGS
-------

Total SCF time: 0 days 0 hours 30 min 1 sec 

Total time                  ....    1801.315 sec
Sum of individual times     ....    1796.781 sec  ( 99.7%)

Fock matrix formation       ....    1773.412 sec  ( 98.5%)
Diagonalization             ....       6.974 sec  (  0.4%)
Density matrix formation    ....       0.685 sec  (  0.0%)
Population analysis         ....       0.530 sec  (  0.0%)
Initial guess               ....       2.053 sec  (  0.1%)
Orbital Transformation      ....       0.000 sec  (  0.0%)
Orbital Orthonormalization  ....       0.000 sec  (  0.0%)
DIIS solution               ....       3.511 sec  (  0.2%)
SOSCF solution              ....       8.565 sec  (  0.5%)

Maximum memory used throughout the entire SCF-calculation: 302.6 MB


           ************************************************************
           *        Program running with 16 parallel MPI-processes    *
           *              working on a common directory               *
           ************************************************************

------------------------------------------------------------------------------
                                ORCA  MP2 
------------------------------------------------------------------------------

Freezing NCore=104 chemical core electrons

----------
MP2 ENERGY (disk based algorithm)
----------

Dimension of the basis                    ...  918
Memory devoted to MP2                     ... 2000 MB   
Data format for buffers                   ... DOUBLE
Compression type for matrix containers    ... UNCOMPRESSED

-------------------------------
PARTIAL EXCHANGE TRANSFORMATION
-------------------------------

Transformation type                        ... one-operator
Generation of integrals (i,mue|j,nue)      ... ON
Generation of integrals (mue,kappa|nue,tau)... OFF
Generation of integrals (i,mue|a,nue)      ... OFF
Dimension of the basis                     ...  918
Number of internal MOs                     ...  127 (  52- 178)
Pair cutoff                                ... 2.500e-12 Eh
Number of AO pairs in the trafo            ... 421821
Total Number of distinct AO pairs          ... 421821
Memory devoted for trafo                   ... 2000.0 MB 
Max. Number of MO pairs treated together   ...  311      
Number Format for Storage                  ... Double (8 Byte)
Integral package used                      ... LIBINT

Starting integral evaluation:
    ... done with AO integral generation
Closing buffer AOK     (38.26 GB; CompressionRatio= 1.33)
Collecting buffer AOK 
Number of MO pairs included in the trafo   ... 8128
------------------------
SORTING OF (i,mue|j,nue)
------------------------

IBATCH = 1 of  2
IBATCH = 2 of  2
Closing buffer KAO     (51.03 GB; CompressionRatio= 1.00)
Collecting buffer KAO 
N(AO-Batches) Done                         ...  85842340 
N(AO-Batches) Skipped                      ...  82531403 
N(IJ)-pairs Skipped                        ...         0 
TOTAL TIME for half transformation         ...  2884.782 sec
AO-integral generation                     ...   211.412 sec
Half transformation                        ...   372.969 sec
K-integral sorting                         ...  2101.985 sec
Process  1:   Internal MO  60
Process 10:   Internal MO 132
Process 13:   Internal MO 156

Finished integral transformation - now doing MP2 part

OPERATOR COMBINATION   0   0: ij=( 52..178, 52..178)
Process  7:   Internal MO 108
Process  4:   Internal MO  84
Process  0:   Internal MO  54
Process  0:   Internal MO  57
Process  2:   Internal MO  69
Process  1:   Internal MO  63
Process  8:   Internal MO 117
Process  2:   Internal MO  72
Process  1:   Internal MO  66
Process  5:   Internal MO  93
Process  6:   Internal MO 102
Process 14:   Internal MO 165
Process 11:   Internal MO 141
Process  9:   Internal MO 126
Process  2:   Internal MO  75
Process  7:   Internal MO 111
Process 12:   Internal MO 150
Process  3:   Internal MO  78
Process  5:   Internal MO  96
Process 10:   Internal MO 135
Process  6:   Internal MO 105
Process  3:   Internal MO  81
Process 15:   Internal MO 174
Process  4:   Internal MO  87
Process  9:   Internal MO 129
Process  7:   Internal MO 114
Process  8:   Internal MO 120
Process  5:   Internal MO  99
Process 11:   Internal MO 144
Process  4:   Internal MO  90
Process 13:   Internal MO 159
Process 12:   Internal MO 153
Process 10:   Internal MO 138
Process 14:   Internal MO 168
Process  8:   Internal MO 123
Process 11:   Internal MO 147
Process 15:   Internal MO 177
Process 13:   Internal MO 162
Process 14:   Internal MO 171
-----------------------------------------------
 MP2 CORRELATION ENERGY   :     -7.283747826 Eh
-----------------------------------------------


-------
TIMINGS
-------
Total time                : 3246.688 sec
Integral trafo            : 2886.924 sec ( 88.9%)
K(i,j)                    :    6.776 sec (  0.2%)
T(i,j)                    :    0.338 sec (  0.0%)

---------------------------------------
MP2 TOTAL ENERGY:    -2130.889437337 Eh
---------------------------------------

Maximum memory used throughout the entire MP2-calculation: 2275.3 MB

-------------------------   --------------------
FINAL SINGLE POINT ENERGY     -2130.889437337079
-------------------------   --------------------


                            ***************************************
                            *     ORCA property calculations      *
                            ***************************************


  WARNING: The energy has been calculated at the MP2 level but the densities
           used in the property calculations are still SCF densities
           MP2 response densities have not been calculated 
           use %mp2 Density relaxed end
           or  %mp2 Density unrelaxed end

                                    ---------------------
                                    Active property flags
                                    ---------------------
   (+) Dipole Moment


------------------------------------------------------------------------------
                       ORCA ELECTRIC PROPERTIES CALCULATION
------------------------------------------------------------------------------

Dipole Moment Calculation                       ... on
Quadrupole Moment Calculation                   ... off
Polarizability Calculation                      ... off
GBWName                                         ... /scratch/allen/tmpyp4_amber_gaff2/conf1/conf1/Conf34.orca.gbw
Electron density                                ... /scratch/allen/tmpyp4_amber_gaff2/conf1/conf1/Conf34.orca.scfp
The origin for moment calculation is the CENTER OF MASS  = (-0.000525, -0.004512  0.003403)

-------------
DIPOLE MOMENT
-------------
                                X             Y             Z
Electronic contribution:      2.28796      -3.62983      -0.11565
Nuclear contribution   :     -0.05007       0.15257       0.13852
                        -----------------------------------------
Total Dipole Moment    :      2.23789      -3.47726       0.02287
                        -----------------------------------------
Magnitude (a.u.)       :      4.13522
Magnitude (Debye)      :     10.51088



--------------------
Rotational spectrum 
--------------------
 
Rotational constants in cm-1:     0.001502     0.001476     0.000761 
Rotational constants in MHz :    45.018413    44.263653    22.804825 

 Dipole components along the rotational axes: 
x,y,z [a.u.] :     2.980587     2.866254     0.026305 
x,y,z [Debye]:     7.576049     7.285440     0.066862 

 

Timings for individual modules:

Sum of individual times         ...     5072.933 sec (=  84.549 min)
GTO integral calculation        ...        3.254 sec (=   0.054 min)   0.1 %
SCF iterations                  ...     1802.403 sec (=  30.040 min)  35.5 %
MP2 module                      ...     3267.276 sec (=  54.455 min)  64.4 %
                             ****ORCA TERMINATED NORMALLY****
TOTAL RUN TIME: 0 days 1 hours 24 minutes 36 seconds 288 msec
# of primitive gaussian functions

