
                                 *****************
                                 * O   R   C   A *
                                 *****************

                                            #,                                       
                                            ###                                      
                                            ####                                     
                                            #####                                    
                                            ######                                   
                                           ########,                                 
                                     ,,################,,,,,                         
                               ,,#################################,,                 
                          ,,##########################################,,             
                       ,#########################################, ''#####,          
                    ,#############################################,,   '####,        
                  ,##################################################,,,,####,       
                ,###########''''           ''''###############################       
              ,#####''   ,,,,##########,,,,          '''####'''          '####       
            ,##' ,,,,###########################,,,                        '##       
           ' ,,###''''                  '''############,,,                           
         ,,##''                                '''############,,,,        ,,,,,,###''
      ,#''                                            '''#######################'''  
     '                                                          ''''####''''         
             ,#######,   #######,   ,#######,      ##                                
            ,#'     '#,  ##    ##  ,#'     '#,    #''#        ######   ,####,        
            ##       ##  ##   ,#'  ##            #'  '#       #        #'  '#        
            ##       ##  #######   ##           ,######,      #####,   #    #        
            '#,     ,#'  ##    ##  '#,     ,#' ,#      #,         ##   #,  ,#        
             '#######'   ##     ##  '#######'  #'      '#     #####' # '####'        



                  #######################################################
                  #                        -***-                        #
                  #          Department of theory and spectroscopy      #
                  #    Directorship and core code : Frank Neese         #
                  #        Max Planck Institute fuer Kohlenforschung    #
                  #                Kaiser Wilhelm Platz 1               #
                  #                 D-45470 Muelheim/Ruhr               #
                  #                      Germany                        #
                  #                                                     #
                  #                  All rights reserved                #
                  #                        -***-                        #
                  #######################################################


                         Program Version 5.0.4 -  RELEASE  -


 With contributions from (in alphabetic order):
   Daniel Aravena         : Magnetic Suceptibility
   Michael Atanasov       : Ab Initio Ligand Field Theory (pilot matlab implementation)
   Alexander A. Auer      : GIAO ZORA, VPT2 properties, NMR spectrum
   Ute Becker             : Parallelization
   Giovanni Bistoni       : ED, misc. LED, open-shell LED, HFLD
   Martin Brehm           : Molecular dynamics
   Dmytro Bykov           : SCF Hessian
   Vijay G. Chilkuri      : MRCI spin determinant printing, contributions to CSF-ICE
   Dipayan Datta          : RHF DLPNO-CCSD density
   Achintya Kumar Dutta   : EOM-CC, STEOM-CC
   Dmitry Ganyushin       : Spin-Orbit,Spin-Spin,Magnetic field MRCI
   Miquel Garcia          : C-PCM and meta-GGA Hessian, CC/C-PCM, Gaussian charge scheme
   Yang Guo               : DLPNO-NEVPT2, F12-NEVPT2, CIM, IAO-localization
   Andreas Hansen         : Spin unrestricted coupled pair/coupled cluster methods
   Benjamin Helmich-Paris : MC-RPA, TRAH-SCF, COSX integrals
   Lee Huntington         : MR-EOM, pCC
   Robert Izsak           : Overlap fitted RIJCOSX, COSX-SCS-MP3, EOM
   Marcus Kettner         : VPT2
   Christian Kollmar      : KDIIS, OOCD, Brueckner-CCSD(T), CCSD density, CASPT2, CASPT2-K
   Simone Kossmann        : Meta GGA functionals, TD-DFT gradient, OOMP2, MP2 Hessian
   Martin Krupicka        : Initial AUTO-CI
   Lucas Lang             : DCDCAS
   Marvin Lechner         : AUTO-CI (C++ implementation), FIC-MRCC
   Dagmar Lenk            : GEPOL surface, SMD
   Dimitrios Liakos       : Extrapolation schemes; Compound Job, initial MDCI parallelization
   Dimitrios Manganas     : Further ROCIS development; embedding schemes
   Dimitrios Pantazis     : SARC Basis sets
   Anastasios Papadopoulos: AUTO-CI, single reference methods and gradients
   Taras Petrenko         : DFT Hessian,TD-DFT gradient, ASA, ECA, R-Raman, ABS, FL, XAS/XES, NRVS
   Peter Pinski           : DLPNO-MP2, DLPNO-MP2 Gradient
   Christoph Reimann      : Effective Core Potentials
   Marius Retegan         : Local ZFS, SOC
   Christoph Riplinger    : Optimizer, TS searches, QM/MM, DLPNO-CCSD(T), (RO)-DLPNO pert. Triples
   Tobias Risthaus        : Range-separated hybrids, TD-DFT gradient, RPA, STAB
   Michael Roemelt        : Original ROCIS implementation
   Masaaki Saitow         : Open-shell DLPNO-CCSD energy and density
   Barbara Sandhoefer     : DKH picture change effects
   Avijit Sen             : IP-ROCIS
   Kantharuban Sivalingam : CASSCF convergence, NEVPT2, FIC-MRCI
   Bernardo de Souza      : ESD, SOC TD-DFT
   Georgi Stoychev        : AutoAux, RI-MP2 NMR, DLPNO-MP2 response
   Willem Van den Heuvel  : Paramagnetic NMR
   Boris Wezisla          : Elementary symmetry handling
   Frank Wennmohs         : Technical directorship


 We gratefully acknowledge several colleagues who have allowed us to
 interface, adapt or use parts of their codes:
   Stefan Grimme, W. Hujo, H. Kruse, P. Pracht,  : VdW corrections, initial TS optimization,
                  C. Bannwarth, S. Ehlert          DFT functionals, gCP, sTDA/sTD-DF
   Ed Valeev, F. Pavosevic, A. Kumar             : LibInt (2-el integral package), F12 methods
   Garnet Chan, S. Sharma, J. Yang, R. Olivares  : DMRG
   Ulf Ekstrom                                   : XCFun DFT Library
   Mihaly Kallay                                 : mrcc  (arbitrary order and MRCC methods)
   Jiri Pittner, Ondrej Demel                    : Mk-CCSD
   Frank Weinhold                                : gennbo (NPA and NBO analysis)
   Christopher J. Cramer and Donald G. Truhlar   : smd solvation model
   Lars Goerigk                                  : TD-DFT with DH, B97 family of functionals
   V. Asgeirsson, H. Jonsson                     : NEB implementation
   FAccTs GmbH                                   : IRC, NEB, NEB-TS, DLPNO-Multilevel, CI-OPT
                                                   MM, QMMM, 2- and 3-layer-ONIOM, Crystal-QMMM,
                                                   LR-CPCM, SF, NACMEs, symmetry and pop. for TD-DFT,
                                                   nearIR, NL-DFT gradient (VV10), updates on ESD,
                                                   ML-optimized integration grids
   S Lehtola, MJT Oliveira, MAL Marques          : LibXC Library
   Liviu Ungur et al                             : ANISO software


 Your calculation uses the libint2 library for the computation of 2-el integrals
 For citations please refer to: http://libint.valeyev.net

 Your ORCA version has been built with support for libXC version: 5.1.0
 For citations please refer to: https://tddft.org/programs/libxc/

 This ORCA versions uses:
   CBLAS   interface :  Fast vector & matrix operations
   LAPACKE interface :  Fast linear algebra routines
   SCALAPACK package :  Parallel linear algebra routines
   Shared memory     :  Shared parallel matrices
   BLAS/LAPACK       :  OpenBLAS 0.3.15  USE64BITINT DYNAMIC_ARCH NO_AFFINITY Sandybridge SINGLE_THREADED
        Core in use  :  Sandybridge
   Copyright (c) 2011-2014, The OpenBLAS Project


================================================================================

----- Orbital basis set information -----
Your calculation utilizes the basis: cc-pVDZ 
       H, B-Ne : Obtained from the ccRepo (grant-hill.group.shef.ac.uk/ccrepo) Feb. 2017
                 T. H. Dunning, Jr., J. Chem. Phys. 90, 1007 (1989)
            He : Obtained from the ccRepo (grant-hill.group.shef.ac.uk/ccrepo) Feb. 2017
                 D. E. Woon, T. H. Dunning, Jr., J. Chem. Phys. 100, 2975 (1994)
  Li-Be, Na-Mg : Obtained from the ccRepo (grant-hill.group.shef.ac.uk/ccrepo) Feb. 2017
                 B. P. Prascher, D. E. Woon, K. A. Peterson, T. H. Dunning, Jr., A. K. Wilson, Theor. Chem. Acc. 128, 69 (2011)
         Al-Ar : Obtained from the ccRepo (grant-hill.group.shef.ac.uk/ccrepo) Feb. 2017
                 D. E. Woon, T. H. Dunning, Jr., J. Chem. Phys. 98, 1358 (1993)
            Ca : Obtained from the Peterson Research Group Website (tyr0.chem.wsu.edu/~kipeters) Feb. 2017
                 J. Koput, K. A. Peterson, J. Phys. Chem. 106, 9595 (2002)
         Sc-Zn : Obtained from the ccRepo (grant-hill.group.shef.ac.uk/ccrepo) Feb. 2017
                 N. B. Balabanov, K. A. Peterson, J. Chem. Phys. 123, 064107 (2005)
                 N. B. Balabanov, K. A. Peterson, J. Chem. Phys. 125, 074110 (2006)
         Ga-Kr : Obtained from the ccRepo (grant-hill.group.shef.ac.uk/ccrepo) Feb. 2017
                 A. K. Wilson, D. E. Woon, K. A. Peterson, T. H. Dunning, Jr., J. Chem. Phys. 110, 7667 (1999)

================================================================================
                                        WARNINGS
                       Please study these warnings very carefully!
================================================================================


WARNING: No MP2 level density has been requested!
         To caclulate MP2 level properties use
         %mp2 Density relaxed end
         or
         %mp2 Density unrelaxed end

WARNING: Post HF methods need fully converged wavefunctions
  ===> : Setting SCFConvForced true
         You can overwrite this default with %scf ConvForced false 


INFO   : the flag for use of the SHARK integral package has been found!

================================================================================
                                       INPUT FILE
================================================================================
NAME = /scratch/allen/tmpyp4_amber_gaff2/2.Mdgx/conf11/conf11/Conf220.orca
|  1> ! PAL2
|  2> ! mp2 cc-pvdz TightSCF  NoKeepInts
|  3> 
|  4> %scf
|  5>   MaxCore 2000
|  6> end
|  7> %mp2
|  8>   MaxCore 2000
|  9> end
| 10> * xyz 0 1
| 11>    C       -4.75800         5.30300         0.78200
| 12>    C        1.47400         4.04100         0.05700
| 13>    C       -2.80200         4.09300         0.04900
| 14>    C       -2.42800         5.23700        -0.67300
| 15>    C       -3.22200         6.36600        -0.64300
| 16>    C       -5.17800         7.62600         0.11600
| 17>    C        0.13200         4.30700         0.06100
| 18>    C       -0.56900         3.05600         0.04700
| 19>    C        1.64900         2.61800         0.02300
| 20>    C       -3.99400         4.15100         0.78700
| 21>    N       -4.36900         6.38800         0.07400
| 22>    N        0.38800         2.06700         0.02500
| 23>    N       -2.01000         0.39500        -0.07500
| 24>    N       -0.38800        -2.07400        -0.02700
| 25>    N        2.01000        -0.40100         0.06500
| 26>    C       -1.96000         2.86100         0.02400
| 27>    C       -2.62300         1.61500        -0.01800
| 28>    C       -5.57300        -4.32900         1.06600
| 29>    C       -4.07300         1.47100         0.05600
| 30>    C       -4.10600        -2.75600        -0.02600
| 31>    C       -4.99500        -2.75700        -1.11100
| 32>    C       -6.13200        -3.54200        -1.07600
| 33>    C       -7.65100        -5.11300         0.04000
| 34>    C       -4.32400         0.14100         0.03700
| 35>    C       -3.02500        -0.52000        -0.04800
| 36>    C       -4.42200        -3.56600         1.07500
| 37>    N       -6.40700        -4.31300         0.00100
| 38>    C       -2.86700        -1.92200        -0.04000
| 39>    C       -1.65000        -2.62400        -0.02700
| 40>    C        3.56800        -6.14200        -1.04000
| 41>    C       -1.47600        -4.04900        -0.03400
| 42>    C        2.80300        -4.09900        -0.00800
| 43>    C        3.65700        -4.38400         1.06900
| 44>    C        4.42700        -5.53000         1.05900
| 45>    C        5.24500        -7.58800         0.01400
| 46>    C       -0.13400        -4.31500        -0.02200
| 47>    C        0.56800        -3.06400        -0.02700
| 48>    C        2.77500        -5.01200        -1.07400
| 49>    N        4.37600        -6.39100         0.01700
| 50>    C        1.95900        -2.86900        -0.00900
| 51>    C        2.62100        -1.62200         0.00900
| 52>    C        5.54300         4.33900        -1.13000
| 53>    C        4.07000        -1.47900        -0.09400
| 54>    C        4.10400         2.75100        -0.02100
| 55>    C        5.02700         2.72900         1.03600
| 56>    C        6.16600         3.50900         0.97800
| 57>    C        7.61900         5.15300        -0.11500
| 58>    C        4.32100        -0.14800        -0.09200
| 59>    C        3.02500         0.51400         0.01500
| 60>    C        4.38700         3.58200        -1.11500
| 61>    C        2.86600         1.91600         0.01300
| 62>    N        6.41300         4.29600        -0.09500
| 63>    H       -5.69000         5.38800         1.32600
| 64>    H        2.27400         4.76600         0.08100
| 65>    H       -1.51400         5.25700        -1.25500
| 66>    H       -2.97000         7.27400        -1.17600
| 67>    H       -4.79400         8.27500         0.90700
| 68>    H       -5.10300         8.12700        -0.84900
| 69>    H       -6.21500         7.36100         0.32000
| 70>    H       -0.33200         5.28200         0.06900
| 71>    H       -4.34400         3.29600         1.35400
| 72>    H        0.18200         1.07200         0.00500
| 73>    H       -0.18300        -1.08000        -0.02100
| 74>    H       -5.86400        -4.96200         1.89500
| 75>    H       -4.79400         2.27200         0.13900
| 76>    H       -4.80000        -2.16000        -1.99400
| 77>    H       -6.84100        -3.58200        -1.89300
| 78>    H       -8.42800        -4.53600         0.54600
| 79>    H       -7.95600        -5.33700        -0.98100
| 80>    H       -7.45600        -6.03700         0.58400
| 81>    H       -5.28700        -0.34400         0.10000
| 82>    H       -3.78000        -3.60100         1.94700
| 83>    H        3.58700        -6.86800        -1.84300
| 84>    H       -2.27600        -4.77400        -0.05000
| 85>    H        3.71400        -3.72400         1.92600
| 86>    H        5.09200        -5.79500         1.87100
| 87>    H        6.20500        -7.32900        -0.43900
| 88>    H        5.39300        -7.91700         1.04200
| 89>    H        4.75900        -8.37300        -0.56400
| 90>    H        0.32900        -5.29000        -0.00800
| 91>    H        2.14600        -4.84200        -1.94000
| 92>    H        5.80800         4.98600        -1.95600
| 93>    H        4.78800        -2.28100        -0.18500
| 94>    H        4.86000         2.11400         1.91200
| 95>    H        6.90100         3.53100         1.77200
| 96>    H        7.38300         6.10900         0.35600
| 97>    H        8.41400         4.65200         0.43500
| 98>    H        7.92100         5.31000        -1.15000
| 99>    H        5.28300         0.33600        -0.17900
|100>    H        3.72000         3.63200        -1.96700
|101> *
|102> 
|103>                          ****END OF INPUT****
================================================================================

                       ****************************
                       * Single Point Calculation *
                       ****************************

---------------------------------
CARTESIAN COORDINATES (ANGSTROEM)
---------------------------------
  C     -4.758000    5.303000    0.782000
  C      1.474000    4.041000    0.057000
  C     -2.802000    4.093000    0.049000
  C     -2.428000    5.237000   -0.673000
  C     -3.222000    6.366000   -0.643000
  C     -5.178000    7.626000    0.116000
  C      0.132000    4.307000    0.061000
  C     -0.569000    3.056000    0.047000
  C      1.649000    2.618000    0.023000
  C     -3.994000    4.151000    0.787000
  N     -4.369000    6.388000    0.074000
  N      0.388000    2.067000    0.025000
  N     -2.010000    0.395000   -0.075000
  N     -0.388000   -2.074000   -0.027000
  N      2.010000   -0.401000    0.065000
  C     -1.960000    2.861000    0.024000
  C     -2.623000    1.615000   -0.018000
  C     -5.573000   -4.329000    1.066000
  C     -4.073000    1.471000    0.056000
  C     -4.106000   -2.756000   -0.026000
  C     -4.995000   -2.757000   -1.111000
  C     -6.132000   -3.542000   -1.076000
  C     -7.651000   -5.113000    0.040000
  C     -4.324000    0.141000    0.037000
  C     -3.025000   -0.520000   -0.048000
  C     -4.422000   -3.566000    1.075000
  N     -6.407000   -4.313000    0.001000
  C     -2.867000   -1.922000   -0.040000
  C     -1.650000   -2.624000   -0.027000
  C      3.568000   -6.142000   -1.040000
  C     -1.476000   -4.049000   -0.034000
  C      2.803000   -4.099000   -0.008000
  C      3.657000   -4.384000    1.069000
  C      4.427000   -5.530000    1.059000
  C      5.245000   -7.588000    0.014000
  C     -0.134000   -4.315000   -0.022000
  C      0.568000   -3.064000   -0.027000
  C      2.775000   -5.012000   -1.074000
  N      4.376000   -6.391000    0.017000
  C      1.959000   -2.869000   -0.009000
  C      2.621000   -1.622000    0.009000
  C      5.543000    4.339000   -1.130000
  C      4.070000   -1.479000   -0.094000
  C      4.104000    2.751000   -0.021000
  C      5.027000    2.729000    1.036000
  C      6.166000    3.509000    0.978000
  C      7.619000    5.153000   -0.115000
  C      4.321000   -0.148000   -0.092000
  C      3.025000    0.514000    0.015000
  C      4.387000    3.582000   -1.115000
  C      2.866000    1.916000    0.013000
  N      6.413000    4.296000   -0.095000
  H     -5.690000    5.388000    1.326000
  H      2.274000    4.766000    0.081000
  H     -1.514000    5.257000   -1.255000
  H     -2.970000    7.274000   -1.176000
  H     -4.794000    8.275000    0.907000
  H     -5.103000    8.127000   -0.849000
  H     -6.215000    7.361000    0.320000
  H     -0.332000    5.282000    0.069000
  H     -4.344000    3.296000    1.354000
  H      0.182000    1.072000    0.005000
  H     -0.183000   -1.080000   -0.021000
  H     -5.864000   -4.962000    1.895000
  H     -4.794000    2.272000    0.139000
  H     -4.800000   -2.160000   -1.994000
  H     -6.841000   -3.582000   -1.893000
  H     -8.428000   -4.536000    0.546000
  H     -7.956000   -5.337000   -0.981000
  H     -7.456000   -6.037000    0.584000
  H     -5.287000   -0.344000    0.100000
  H     -3.780000   -3.601000    1.947000
  H      3.587000   -6.868000   -1.843000
  H     -2.276000   -4.774000   -0.050000
  H      3.714000   -3.724000    1.926000
  H      5.092000   -5.795000    1.871000
  H      6.205000   -7.329000   -0.439000
  H      5.393000   -7.917000    1.042000
  H      4.759000   -8.373000   -0.564000
  H      0.329000   -5.290000   -0.008000
  H      2.146000   -4.842000   -1.940000
  H      5.808000    4.986000   -1.956000
  H      4.788000   -2.281000   -0.185000
  H      4.860000    2.114000    1.912000
  H      6.901000    3.531000    1.772000
  H      7.383000    6.109000    0.356000
  H      8.414000    4.652000    0.435000
  H      7.921000    5.310000   -1.150000
  H      5.283000    0.336000   -0.179000
  H      3.720000    3.632000   -1.967000

----------------------------
CARTESIAN COORDINATES (A.U.)
----------------------------
  NO LB      ZA    FRAG     MASS         X           Y           Z
   0 C     6.0000    0    12.011   -8.991317   10.021218    1.477766
   1 C     6.0000    0    12.011    2.785456    7.636383    0.107714
   2 C     6.0000    0    12.011   -5.295013    7.734649    0.092597
   3 C     6.0000    0    12.011   -4.588255    9.896496   -1.271786
   4 C     6.0000    0    12.011   -6.088698   12.029997   -1.215094
   5 C     6.0000    0    12.011   -9.785002   14.411051    0.219208
   6 C     6.0000    0    12.011    0.249444    8.139050    0.115273
   7 C     6.0000    0    12.011   -1.075254    5.775003    0.088817
   8 C     6.0000    0    12.011    3.116158    4.947303    0.043464
   9 C     6.0000    0    12.011   -7.547566    7.844253    1.487214
  10 N     7.0000    0    14.007   -8.256213   12.071571    0.139840
  11 N     7.0000    0    14.007    0.733214    3.906064    0.047243
  12 N     7.0000    0    14.007   -3.798350    0.746442   -0.141729
  13 N     7.0000    0    14.007   -0.733214   -3.919292   -0.051023
  14 N     7.0000    0    14.007    3.798350   -0.757780    0.122832
  15 C     6.0000    0    12.011   -3.703863    5.406506    0.045353
  16 C     6.0000    0    12.011   -4.956752    3.051908   -0.034015
  17 C     6.0000    0    12.011  -10.531444   -8.180624    2.014448
  18 C     6.0000    0    12.011   -7.696855    2.779787    0.105825
  19 C     6.0000    0    12.011   -7.759216   -5.208085   -0.049133
  20 C     6.0000    0    12.011   -9.439182   -5.209975   -2.099486
  21 C     6.0000    0    12.011  -11.587801   -6.693410   -2.033345
  22 C     6.0000    0    12.011  -14.458295   -9.662170    0.075589
  23 C     6.0000    0    12.011   -8.171176    0.266451    0.069920
  24 C     6.0000    0    12.011   -5.716422   -0.982658   -0.090707
  25 C     6.0000    0    12.011   -8.356369   -6.738763    2.031456
  26 N     7.0000    0    14.007  -12.107475   -8.150389    0.001890
  27 C     6.0000    0    12.011   -5.417845   -3.632054   -0.075589
  28 C     6.0000    0    12.011   -3.118048   -4.958641   -0.051023
  29 C     6.0000    0    12.011    6.742543  -11.606698   -1.965315
  30 C     6.0000    0    12.011   -2.789236   -7.651501   -0.064251
  31 C     6.0000    0    12.011    5.296902   -7.745987   -0.015118
  32 C     6.0000    0    12.011    6.910728   -8.284559    2.020117
  33 C     6.0000    0    12.011    8.365818  -10.450186    2.001220
  34 C     6.0000    0    12.011    9.911614  -14.339242    0.026456
  35 C     6.0000    0    12.011   -0.253223   -8.154168   -0.041574
  36 C     6.0000    0    12.011    1.073364   -5.790121   -0.051023
  37 C     6.0000    0    12.011    5.243990   -9.471307   -2.029566
  38 N     7.0000    0    14.007    8.269442  -12.077240    0.032125
  39 C     6.0000    0    12.011    3.701973   -5.421624   -0.017008
  40 C     6.0000    0    12.011    4.952972   -3.065136    0.017008
  41 C     6.0000    0    12.011   10.474752    8.199522   -2.135391
  42 C     6.0000    0    12.011    7.691185   -2.794905   -0.177634
  43 C     6.0000    0    12.011    7.755436    5.198637   -0.039684
  44 C     6.0000    0    12.011    9.499653    5.157063    1.957756
  45 C     6.0000    0    12.011   11.652051    6.631049    1.848152
  46 C     6.0000    0    12.011   14.397823    9.737759   -0.217319
  47 C     6.0000    0    12.011    8.165507   -0.279679   -0.173855
  48 C     6.0000    0    12.011    5.716422    0.971319    0.028346
  49 C     6.0000    0    12.011    8.290229    6.768999   -2.107045
  50 C     6.0000    0    12.011    5.415955    3.620715    0.024566
  51 N     7.0000    0    14.007   12.118814    8.118263   -0.179524
  52 H     1.0000    0     1.008  -10.752542   10.181844    2.505777
  53 H     1.0000    0     1.008    4.297237    9.006435    0.153068
  54 H     1.0000    0     1.008   -2.861045    9.934290   -2.371606
  55 H     1.0000    0     1.008   -5.612487   13.745868   -2.222318
  56 H     1.0000    0     1.008   -9.059347   15.637484    1.713982
  57 H     1.0000    0     1.008   -9.643272   15.357804   -1.604377
  58 H     1.0000    0     1.008  -11.744648   13.910274    0.604712
  59 H     1.0000    0     1.008   -0.627389    9.981533    0.130391
  60 H     1.0000    0     1.008   -8.208970    6.228537    2.558689
  61 H     1.0000    0     1.008    0.343930    2.025786    0.009449
  62 H     1.0000    0     1.008   -0.345820   -2.040904   -0.039684
  63 H     1.0000    0     1.008  -11.081354   -9.376821    3.581031
  64 H     1.0000    0     1.008   -9.059347    4.293458    0.262672
  65 H     1.0000    0     1.008   -9.070685   -4.081808   -3.768114
  66 H     1.0000    0     1.008  -12.927616   -6.768999   -3.577252
  67 H     1.0000    0     1.008  -15.926612   -8.571798    1.031790
  68 H     1.0000    0     1.008  -15.034661  -10.085468   -1.853821
  69 H     1.0000    0     1.008  -14.089798  -11.408277    1.103600
  70 H     1.0000    0     1.008   -9.990982   -0.650066    0.188973
  71 H     1.0000    0     1.008   -7.143165   -6.804904    3.679297
  72 H     1.0000    0     1.008    6.778448  -12.978639   -3.482765
  73 H     1.0000    0     1.008   -4.301017   -9.021553   -0.094486
  74 H     1.0000    0     1.008    7.018443   -7.037340    3.639613
  75 H     1.0000    0     1.008    9.622485  -10.950963    3.535678
  76 H     1.0000    0     1.008   11.725751  -13.849803   -0.829590
  77 H     1.0000    0     1.008   10.191293  -14.960962    1.969095
  78 H     1.0000    0     1.008    8.993207  -15.822677   -1.065806
  79 H     1.0000    0     1.008    0.621720   -9.996651   -0.015118
  80 H     1.0000    0     1.008    4.055352   -9.150054   -3.666069
  81 H     1.0000    0     1.008   10.975529    9.422175   -3.696304
  82 H     1.0000    0     1.008    9.048009   -4.310465   -0.349599
  83 H     1.0000    0     1.008    9.184069    3.994881    3.613156
  84 H     1.0000    0     1.008   13.041000    6.672623    3.348595
  85 H     1.0000    0     1.008   13.951848   11.544337    0.672743
  86 H     1.0000    0     1.008   15.900156    8.791006    0.822031
  87 H     1.0000    0     1.008   14.968521   10.034446   -2.173185
  88 H     1.0000    0     1.008    9.983423    0.634948   -0.338261
  89 H     1.0000    0     1.008    7.029781    6.863485   -3.717091

--------------------------------
INTERNAL COORDINATES (ANGSTROEM)
--------------------------------
 C      0   0   0     0.000000000000     0.00000000     0.00000000
 C      1   0   0     6.399694758346     0.00000000     0.00000000
 C      1   2   0     2.413985294073    22.73688439     0.00000000
 C      3   1   2     1.403529835807    87.91155047   299.57628761
 C      4   3   1     1.380571258574   120.14089283     0.08709983
 C      5   4   3     2.447369404075   152.55036669     1.71425136
 C      2   1   3     1.368114030335     6.34168210    56.61820057
 C      7   2   4     1.434084376876   108.05010202   118.55111420
 C      2   1   3     1.434123425651   108.49255512   328.01551444
 C      1   2   7     1.382325938410    45.40113473    94.60994204
 N      1   2   7     1.352704698003    79.56270314   298.83316931
 N      9   2   1     1.376127174356   106.58526707     5.91348028
 N     12   9   2     2.925062050624   168.53581413   171.12065651
 N     13  12   9     2.954513327098    91.55032014    11.12112580
 N     14  13  12     2.925371258490    88.43092389   359.84326247
 C      8   7   2     1.404790019896   127.24786865   181.11170171
 C     13  12   9     1.366535034311    81.72106996   188.00453233
 C     14  13  12     5.758810554272    80.56209567   166.76250791
 C     17  13  12     1.459010623676   111.08861209   183.82872609
 C     18  14  13     2.412235892279    27.27532823    36.33507194
 C     20  18  14     1.402692767501    87.95206320   148.94598259
 C     21  20  18     1.382106725257   120.14573887   359.70382047
 C     18  14  13     2.446510985056   144.15733107    82.80075377
 C     19  17  13     1.353610726908   106.29293361   359.75308708
 C     13  12   9     1.366813447402   172.21332906    33.46711076
 C     18  14  13     1.380960173213    15.08449437   309.23336894
 N     22  21  20     1.352773077792   120.73759875     0.27865223
 C     25  13  17     1.410897586645   125.60330303   182.37774668
 C     14  13  12     1.376642291955    80.24689249   177.85461986
 C     14  13  12     5.764089607215   164.51507311   312.20821879
 C     29  14  13     1.435600919476   106.58649366   178.76395472
 C     30  14  13     2.413316804732    27.10625047    82.12560436
 C     32  30  14     1.403734305344    87.90059683   149.76154742
 C     33  32  30     1.380694028378   120.14881443   359.74174632
 C     34  33  32     2.448777858443   152.49203239     2.45173620
 C     31  29  14     1.368160809262   108.16950133     0.70383075
 C     14  13  12     1.376239804685   169.26375223   353.09862627
 C     30  14  13     1.380907310430    14.68948582   353.70041132
 N     34  33  32     1.352658863128   120.85575621     0.19603406
 C     37  14  29     1.404717053360   126.01551127   180.90772073
 C     15  14  13     1.366491126938    81.61824056   183.09049352
 C      2   1   3     4.249062720177   161.86892097   115.02712511
 C     41  15  14     1.459677704153   111.05201287   175.08990246
 C     42   2   1     2.412953791518    41.78584867   187.49408808
 C     44  42   2     1.403446472082    87.95153797   233.97558675
 C     45  44  42     1.381696421071   120.11137308     0.19721020
 C     42   2   1     2.450019795838   135.97209175    97.80893718
 C     43  41  15     1.354461516618   106.26758155     0.30894352
 C     15  14  13     1.367461151185   171.87382904   332.35056460
 C     42   2   1     1.381886391857    32.59078432   236.34936727
 C      9   2   1     1.404988612053   126.98745415   186.91781781
 N     42   2   1     1.352765315936   113.57249190   125.54552637
 H      1   2   7     1.082490184713   155.62074402   164.70719316
 H      2   1   3     1.079907866440   125.90801729   155.08444009
 H      4   3   1     1.083752739328   121.06621421   179.59917399
 H      5   4   3     1.082615813666   122.77271345   179.42894132
 H      6   5   4     1.092857721755   104.44097350   100.06045577
 H      6   5   4     1.089885773831    84.66785537   209.47562109
 H      6   5   4     1.089591666635   133.90774121   322.33092816
 H      7   2  54     1.079807853278   126.66122480     1.30600390
 H     10   1   2     1.083980627133   118.73580181   152.88068257
 H     12   9   2     1.016297692608   125.29023241   180.00180175
 H     14  13  12     1.014936943854    44.97226959   359.42596618
 H     18  14  13     1.082871645210   128.03556573   234.20482432
 H     19  17  13     1.080893611786   126.41830519   178.11313280
 H     21  20  18     1.083569563987   121.05669627   180.67006309
 H     22  21  20     1.082483256222   122.73097286   180.59748951
 H     23  18  14     1.092105306278   103.92715769   234.93429879
 H     23  18  14     1.088871893291   134.19244188    12.25587044
 H     23  18  14     1.089833473518    84.85857450   125.45241208
 H     24  19  17     1.080075460327   127.28078426   178.44613241
 H     26  18  14     1.083408048706   118.76995697   244.94906660
 H     30  14  13     1.082703098730   127.99711412   279.66882698
 H     31  29  14     1.079759695488   125.22293469   180.92530585
 H     33  32  30     1.083188810873   121.01964473   180.74284758
 H     34  33  32     1.082494341787   122.70821597   180.59516895
 H     35  34  33     1.092652735319   105.73575241    97.19771933
 H     35  34  33     1.089462711615    84.05943581   206.43036958
 H     35  34  33     1.089268102902   133.08365142   318.50306270
 H     36  31  29     1.079439669458   126.61599965   178.98859863
 H     38  30  73     1.083742127999   118.77264435   359.90091293
 H     42   2   1     1.082178358682   119.31790784   342.17705683
 H     43  41  15     1.080281907652   126.36969097   182.06329380
 H     45  44  42     1.083277434455   121.10105945   179.58025624
 H     46  45  44     1.082194529648   122.72144639   179.46906377
 H     47  42   2     1.091546151109   106.65128841   315.16475048
 H     47  42   2     1.088818625851   132.46019523    94.52397119
 H     47  42   2     1.089531091801    83.63838232   206.04504406
 H     48  43  41     1.080402239909   127.23657387   181.62955349
 H     50  42   2     1.083186502870   118.77001737    94.71359229

---------------------------
INTERNAL COORDINATES (A.U.)
---------------------------
 C      0   0   0     0.000000000000     0.00000000     0.00000000
 C      1   0   0    12.093670433965     0.00000000     0.00000000
 C      1   2   0     4.561771097111    22.73688439     0.00000000
 C      3   1   2     2.652287010462    87.91155047   299.57628761
 C      4   3   1     2.608901587067   120.14089283     0.08709983
 C      5   4   3     4.624857922239   152.55036669     1.71425136
 C      2   1   3     2.585360837309     6.34168210    56.61820057
 C      7   2   4     2.710026725231   108.05010202   118.55111420
 C      2   1   3     2.710100516721   108.49255512   328.01551444
 C      1   2   7     2.612217451410    45.40113473    94.60994204
 N      1   2   7     2.556241419295    79.56270314   298.83316931
 N      9   2   1     2.600503484979   106.58526707     5.91348028
 N     12   9   2     5.527566200405   168.53581413   171.12065651
 N     13  12   9     5.583221047236    91.55032014    11.12112580
 N     14  13  12     5.528150518591    88.43092389   359.84326247
 C      8   7   2     2.654668413270   127.24786865   181.11170171
 C     13  12   9     2.582376967257    81.72106996   188.00453233
 C     14  13  12    10.882574804710    80.56209567   166.76250791
 C     17  13  12     2.757130505230   111.08861209   183.82872609
 C     18  14  13     4.558465206823    27.27532823    36.33507194
 C     20  18  14     2.650705180609    87.95206320   148.94598259
 C     21  20  18     2.611803198586   120.14573887   359.70382047
 C     18  14  13     4.623235745386   144.15733107    82.80075377
 C     19  17  13     2.557953565794   106.29293361   359.75308708
 C     13  12   9     2.582903091751   172.21332906    33.46711076
 C     18  14  13     2.609636529225    15.08449437   309.23336894
 N     22  21  20     2.556370638369   120.73759875     0.27865223
 C     25  13  17     2.666210041769   125.60330303   182.37774668
 C     14  13  12     2.601476916169    80.24689249   177.85461986
 C     14  13  12    10.892550769017   164.51507311   312.20821879
 C     29  14  13     2.712892575415   106.58649366   178.76395472
 C     30  14  13     4.560507835333    27.10625047    82.12560436
 C     32  30  14     2.652673401891    87.90059683   149.76154742
 C     33  32  30     2.609133588376   120.14881443   359.74174632
 C     34  33  32     4.627519515267   152.49203239     2.45173620
 C     31  29  14     2.585449236669   108.16950133     0.70383075
 C     14  13  12     2.600716325456   169.26375223   353.09862627
 C     30  14  13     2.609536633043    14.68948582   353.70041132
 N     34  33  32     2.556154803934   120.85575621     0.19603406
 C     37  14  29     2.654530526499   126.01551127   180.90772073
 C     15  14  13     2.582293994346    81.61824056   183.09049352
 C      2   1   3     8.029564866989   161.86892097   115.02712511
 C     41  15  14     2.758391104639   111.05201287   175.08990246
 C     42   2   1     4.559821839776    41.78584867   187.49408808
 C     44  42   2     2.652129475853    87.95153797   233.97558675
 C     45  44  42     2.611027836043   120.11137308     0.19721020
 C     42   2   1     4.629866436820   135.97209175    97.80893718
 C     43  41  15     2.559561325344   106.26758155     0.30894352
 C     15  14  13     2.584127074516   171.87382904   332.35056460
 C     42   2   1     2.611386828803    32.59078432   236.34936727
 C      9   2   1     2.655043698059   126.98745415   186.91781781
 N     42   2   1     2.556355970587   113.57249190   125.54552637
 H      1   2   7     2.045609991765   155.62074402   164.70719316
 H      2   1   3     2.040730117440   125.90801729   155.08444009
 H      4   3   1     2.047995874216   121.06621421   179.59917399
 H      5   4   3     2.045847396081   122.77271345   179.42894132
 H      6   5   4     2.065201797458   104.44097350   100.06045577
 H      6   5   4     2.059585629798    84.66785537   209.47562109
 H      6   5   4     2.059029847743   133.90774121   322.33092816
 H      7   2  54     2.040541119952   126.66122480     1.30600390
 H     10   1   2     2.048426519758   118.73580181   152.88068257
 H     12   9   2     1.920524309565   125.29023241   180.00180175
 H     14  13  12     1.917952867083    44.97226959   359.42596618
 H     18  14  13     2.046330847636   128.03556573   234.20482432
 H     19  17  13     2.042592906181   126.41830519   178.11313280
 H     21  20  18     2.047649722989   121.05669627   180.67006309
 H     22  21  20     2.045596898814   122.73097286   180.59748951
 H     23  18  14     2.063779938267   103.92715769   234.93429879
 H     23  18  14     2.057669673245   134.19244188    12.25587044
 H     23  18  14     2.059486796529    84.85857450   125.45241208
 H     24  19  17     2.041046823986   127.28078426   178.44613241
 H     26  18  14     2.047344503340   118.76995697   244.94906660
 H     30  14  13     2.046012340948   127.99711412   279.66882698
 H     31  29  14     2.040450114918   125.22293469   180.92530585
 H     33  32  30     2.046930203877   121.01964473   180.74284758
 H     34  33  32     2.045617847496   122.70821597   180.59516895
 H     35  34  33     2.064814429233   105.73575241    97.19771933
 H     35  34  33     2.058786158072    84.05943581   206.43036958
 H     35  34  33     2.058418400901   133.08365142   318.50306270
 H     36  31  29     2.039845353366   126.61599965   178.98859863
 H     38  30  73     2.047975821711   118.77264435   359.90091293
 H     42   2   1     2.045020725966   119.31790784   342.17705683
 H     43  41  15     2.041436952892   126.36969097   182.06329380
 H     45  44  42     2.047097678177   121.10105945   179.58025624
 H     46  45  44     2.045051284662   122.72144639   179.46906377
 H     47  42   2     2.062723288131   106.65128841   315.16475048
 H     47  42   2     2.057569012371   132.46019523    94.52397119
 H     47  42   2     2.058915377895    83.63838232   206.04504406
 H     48  43  41     2.041664347903   127.23657387   181.62955349
 H     50  42   2     2.046925842384   118.77001737    94.71359229

---------------------
BASIS SET INFORMATION
---------------------
There are 3 groups of distinct atoms

 Group   1 Type C   : 17s4p1d contracted to 3s2p1d pattern {881/31/1}
 Group   2 Type N   : 17s4p1d contracted to 3s2p1d pattern {881/31/1}
 Group   3 Type H   : 4s1p contracted to 2s1p pattern {31/1}

Atom   0C    basis set group =>   1
Atom   1N    basis set group =>   2
Atom   2C    basis set group =>   1
Atom   3N    basis set group =>   2
Atom   4C    basis set group =>   1
Atom   5N    basis set group =>   2
Atom   6C    basis set group =>   1
Atom   7N    basis set group =>   2
Atom   8C    basis set group =>   1
Atom   9N    basis set group =>   2
Atom  10C    basis set group =>   1
Atom  11N    basis set group =>   2
Atom  12C    basis set group =>   1
Atom  13N    basis set group =>   2
Atom  14C    basis set group =>   1
Atom  15N    basis set group =>   2
Atom  16C    basis set group =>   1
Atom  17C    basis set group =>   1
Atom  18C    basis set group =>   1
Atom  19C    basis set group =>   1
Atom  20C    basis set group =>   1
Atom  21C    basis set group =>   1
Atom  22C    basis set group =>   1
Atom  23C    basis set group =>   1
Atom  24C    basis set group =>   1
Atom  25C    basis set group =>   1
Atom  26C    basis set group =>   1
Atom  27C    basis set group =>   1
Atom  28C    basis set group =>   1
Atom  29C    basis set group =>   1
Atom  30C    basis set group =>   1
Atom  31C    basis set group =>   1
Atom  32C    basis set group =>   1
Atom  33C    basis set group =>   1
Atom  34C    basis set group =>   1
Atom  35C    basis set group =>   1
Atom  36C    basis set group =>   1
Atom  37C    basis set group =>   1
Atom  38C    basis set group =>   1
Atom  39C    basis set group =>   1
Atom  40C    basis set group =>   1
Atom  41C    basis set group =>   1
Atom  42C    basis set group =>   1
Atom  43C    basis set group =>   1
Atom  44C    basis set group =>   1
Atom  45C    basis set group =>   1
Atom  46C    basis set group =>   1
Atom  47C    basis set group =>   1
Atom  48C    basis set group =>   1
Atom  49C    basis set group =>   1
Atom  50C    basis set group =>   1
Atom  51C    basis set group =>   1
Atom  52H    basis set group =>   3
Atom  53H    basis set group =>   3
Atom  54H    basis set group =>   3
Atom  55H    basis set group =>   3
Atom  56H    basis set group =>   3
Atom  57H    basis set group =>   3
Atom  58H    basis set group =>   3
Atom  59H    basis set group =>   3
Atom  60H    basis set group =>   3
Atom  61H    basis set group =>   3
Atom  62H    basis set group =>   3
Atom  63H    basis set group =>   3
Atom  64H    basis set group =>   3
Atom  65H    basis set group =>   3
Atom  66H    basis set group =>   3
Atom  67H    basis set group =>   3
Atom  68H    basis set group =>   3
Atom  69H    basis set group =>   3
Atom  70H    basis set group =>   3
Atom  71H    basis set group =>   3
Atom  72H    basis set group =>   3
Atom  73H    basis set group =>   3
Atom  74H    basis set group =>   3
Atom  75H    basis set group =>   3
Atom  76H    basis set group =>   3
Atom  77H    basis set group =>   3
Atom  78H    basis set group =>   3
Atom  79H    basis set group =>   3
Atom  80H    basis set group =>   3
Atom  81H    basis set group =>   3
Atom  82H    basis set group =>   3
Atom  83H    basis set group =>   3
Atom  84H    basis set group =>   3
Atom  85H    basis set group =>   3
Atom  86H    basis set group =>   3
Atom  87H    basis set group =>   3
Atom  88H    basis set group =>   3
Atom  89H    basis set group =>   3


           ************************************************************
           *        Program running with 16 parallel MPI-processes    *
           *              working on a common directory               *
           ************************************************************
------------------------------------------------------------------------------
                           ORCA GTO INTEGRAL CALCULATION
------------------------------------------------------------------------------
------------------------------------------------------------------------------
                   ___                                                        
                  /   \      - P O W E R E D   B Y -                         
                 /     \                                                     
                 |  |  |   _    _      __       _____    __    __             
                 |  |  |  | |  | |    /  \     |  _  \  |  |  /  |          
                  \  \/   | |  | |   /    \    | | | |  |  | /  /          
                 / \  \   | |__| |  /  /\  \   | |_| |  |  |/  /          
                |  |  |   |  __  | /  /__\  \  |    /   |      \           
                |  |  |   | |  | | |   __   |  |    \   |  |\   \          
                \     /   | |  | | |  |  |  |  | |\  \  |  | \   \       
                 \___/    |_|  |_| |__|  |__|  |_| \__\ |__|  \__/        
                                                                              
                      - O R C A' S   B I G   F R I E N D -                    
                                      &                                       
                       - I N T E G R A L  F E E D E R -                       
                                                                              
 v1 FN, 2020, v2 2021                                                         
------------------------------------------------------------------------------


Reading SHARK input file /scratch/allen/tmpyp4_amber_gaff2/conf1/conf1/Conf220.orca.SHARKINP.tmp ... ok
----------------------
SHARK INTEGRAL PACKAGE
----------------------

Number of atoms                             ...     90
Number of basis functions                   ...   1230
Number of shells                            ...    738
Maximum angular momentum                    ...      2
Integral batch strategy                     ... SHARK/LIBINT Hybrid
RI-J (if used) integral strategy            ... SPLIT-RIJ (Revised 2003 algorithm where possible)
Printlevel                                  ...      1
Contraction scheme used                     ... PARTIAL GENERAL contraction
Coulomb Range Separation                    ... NOT USED
Exchange Range Separation                   ... NOT USED
Finite Nucleus Model                        ... NOT USED
Auxiliary Coulomb fitting basis             ... NOT available
Auxiliary J/K fitting basis                 ... NOT available
Auxiliary Correlation fitting basis         ... NOT available
Auxiliary 'external' fitting basis          ... NOT available
Integral threshold                          ...     2.500000e-11
Primitive cut-off                           ...     2.500000e-12
Primitive pair pre-selection threshold      ...     2.500000e-12

Calculating pre-screening integrals         ... done (  0.1 sec) Dimension = 738
Calculating pre-screening integrals (ORCA)  ... done (  0.3 sec) Dimension = 426
Organizing shell pair data                  ... done (  0.7 sec)
Shell pair information
Total number of shell pairs                 ...    272691
Shell pairs after pre-screening             ...     71648
Total number of primitive shell pairs       ...    422091
Primitive shell pairs kept                  ...     92455
          la=0 lb=0:  29417 shell pairs
          la=1 lb=0:  25991 shell pairs
          la=1 lb=1:   4706 shell pairs
          la=2 lb=0:   7882 shell pairs
          la=2 lb=1:   3122 shell pairs
          la=2 lb=2:    530 shell pairs

Calculating one electron integrals          ... done (  0.2 sec)
Calculating Nuclear repulsion               ... done (  0.0 sec) ENN=   6229.693373206152 Eh

SHARK setup successfully completed in   2.1 seconds

Maximum memory used throughout the entire GTOINT-calculation: 99.0 MB


           ************************************************************
           *        Program running with 16 parallel MPI-processes    *
           *              working on a common directory               *
           ************************************************************
-------------------------------------------------------------------------------
                                 ORCA SCF
-------------------------------------------------------------------------------

------------
SCF SETTINGS
------------
Hamiltonian:
 Ab initio Hamiltonian  Method          .... Hartree-Fock(GTOs)


General Settings:
 Integral files         IntName         .... /scratch/allen/tmpyp4_amber_gaff2/conf1/conf1/Conf220.orca
 Hartree-Fock type      HFTyp           .... RHF
 Total Charge           Charge          ....    0
 Multiplicity           Mult            ....    1
 Number of Electrons    NEL             ....  358
 Basis Dimension        Dim             ....  918
 Nuclear Repulsion      ENuc            ....   6229.6933732062 Eh

Convergence Acceleration:
 DIIS                   CNVDIIS         .... on
   Start iteration      DIISMaxIt       ....    12
   Startup error        DIISStart       ....  0.200000
   # of expansion vecs  DIISMaxEq       ....     5
   Bias factor          DIISBfac        ....   1.050
   Max. coefficient     DIISMaxC        ....  10.000
 Trust-Rad. Augm. Hess. CNVTRAH         .... auto
   Auto Start mean grad. ratio tolernc. ....  1.125000
   Auto Start start iteration           ....    20
   Auto Start num. interpolation iter.  ....    10
   Max. Number of Micro iterations      ....    16
   Max. Number of Macro iterations      .... Maxiter - #DIIS iter
   Number of Davidson start vectors     ....     2
   Converg. threshold I  (grad. norm)   ....   1.000e-05
   Converg. threshold II (energy diff.) ....   1.000e-08
   Grad. Scal. Fac. for Micro threshold ....   0.100
   Minimum threshold for Micro iter.    ....   0.010
   NR start threshold (gradient norm)   ....   0.001
   Initial trust radius                 ....   0.400
   Minimum AH scaling param. (alpha)    ....   1.000
   Maximum AH scaling param. (alpha)    .... 1000.000
   Orbital update algorithm             .... Taylor
   White noise on init. David. guess    .... on
   Maximum white noise                  ....   0.010
   Quad. conv. algorithm                .... NR
 SOSCF                  CNVSOSCF        .... on
   Start iteration      SOSCFMaxIt      ....   150
   Startup grad/error   SOSCFStart      ....  0.003300
 Level Shifting         CNVShift        .... on
   Level shift para.    LevelShift      ....    0.2500
   Turn off err/grad.   ShiftErr        ....    0.0010
 Zerner damping         CNVZerner       .... off
 Static damping         CNVDamp         .... on
   Fraction old density DampFac         ....    0.7000
   Max. Damping (<1)    DampMax         ....    0.9800
   Min. Damping (>=0)   DampMin         ....    0.0000
   Turn off err/grad.   DampErr         ....    0.1000
 Fernandez-Rico         CNVRico         .... off

SCF Procedure:
 Maximum # iterations   MaxIter         ....   125
 SCF integral mode      SCFMode         .... Direct
   Integral package                     .... SHARK and LIBINT hybrid scheme
 Reset frequency        DirectResetFreq ....    20
 Integral Threshold     Thresh          ....  2.500e-11 Eh
 Primitive CutOff       TCut            ....  2.500e-12 Eh

Convergence Tolerance:
 Convergence Check Mode ConvCheckMode   .... Total+1el-Energy
 Convergence forced     ConvForced      .... 1
 Energy Change          TolE            ....  1.000e-08 Eh
 1-El. energy change                    ....  1.000e-05 Eh
 Orbital Gradient       TolG            ....  1.000e-05
 Orbital Rotation angle TolX            ....  1.000e-05
 DIIS Error             TolErr          ....  5.000e-07


Diagonalization of the overlap matrix:
Smallest eigenvalue                        ... 2.213e-04
Time for diagonalization                   ...    0.423 sec
Threshold for overlap eigenvalues          ... 1.000e-08
Number of eigenvalues below threshold      ... 0
Time for construction of square roots      ...    0.272 sec
Total time needed                          ...    0.701 sec

Time for model grid setup =    1.288 sec

------------------------------
INITIAL GUESS: MODEL POTENTIAL
------------------------------
Loading Hartree-Fock densities                     ... done
Calculating cut-offs                               ... done
Initializing the effective Hamiltonian             ... done
Setting up the integral package (SHARK)            ... done
Starting the Coulomb interaction                   ... done (   1.5 sec)
Reading the grid                                   ... done
Mapping shells                                     ... done
Starting the XC term evaluation                    ... done (   0.2 sec)
Transforming the Hamiltonian                       ... done (   0.3 sec)
Diagonalizing the Hamiltonian                      ... done (   0.4 sec)
Back transforming the eigenvectors                 ... done (   0.1 sec)
Now organizing SCF variables                       ... done
                      ------------------
                      INITIAL GUESS DONE (   3.8 sec)
                      ------------------
--------------
SCF ITERATIONS
--------------
ITER       Energy         Delta-E        Max-DP      RMS-DP      [F,P]     Damp
               ***  Starting incremental Fock matrix formation  ***
  0  -2121.6865833911   0.000000000000 0.06859255  0.00121442  0.2323742 0.7000
  1  -2122.3438641480  -0.657280756954 0.05198983  0.00098756  0.1438983 0.7000
                               ***Turning on DIIS***
  2  -2122.7523308361  -0.408466688028 0.12020082  0.00223973  0.0802334 0.0000
  3  -2117.8764171016   4.875913734422 0.03408637  0.00067734  0.0439902 0.0000
  4  -2123.4230882617  -5.546671160018 0.01080432  0.00022676  0.0075291 0.0000
  5  -2123.5871282979  -0.164040036261 0.00535200  0.00013340  0.0049661 0.0000
  6  -2123.5706955090   0.016432788900 0.00358917  0.00008576  0.0019903 0.0000
  7  -2123.6703088422  -0.099613333212 0.00299510  0.00006738  0.0015547 0.0000
  8  -2123.6830521201  -0.012743277824 0.00312124  0.00006333  0.0014494 0.0000
  9  -2123.6512905648   0.031761555259 0.00249227  0.00004379  0.0011568 0.0000
 10  -2123.6617590561  -0.010468491288 0.00502583  0.00008946  0.0008922 0.0000
                      *** Initiating the SOSCF procedure ***
                           *** Shutting down DIIS ***
                      *** Re-Reading the Fockian *** 
                      *** Removing any level shift *** 
ITER      Energy       Delta-E        Grad      Rot      Max-DP    RMS-DP
 11  -2123.55077126   0.1109877914  0.000216  0.000216  0.000245  0.000005
               *** Restarting incremental Fock matrix formation ***
 12  -2123.61680018  -0.0660289137  0.000882  0.005929  0.001254  0.000032
 13  -2123.61689192  -0.0000917429  0.001052  0.028744  0.005971  0.000125
 14  -2123.61704686  -0.0001549431  0.000356  0.001883  0.000553  0.000012
 15  -2123.61706272  -0.0000158545  0.000171  0.003487  0.000931  0.000019
 16  -2123.61707298  -0.0000102625  0.000169  0.003570  0.000563  0.000012
 17  -2123.61707682  -0.0000038358  0.000153  0.002336  0.000367  0.000008
 18  -2123.61707889  -0.0000020729  0.000079  0.001061  0.000320  0.000005
 19  -2123.61707986  -0.0000009745  0.000049  0.000686  0.000166  0.000003
 20  -2123.61708018  -0.0000003156  0.000026  0.000417  0.000105  0.000002
 21  -2123.61708036  -0.0000001772  0.000026  0.000496  0.000111  0.000002
 22  -2123.61708047  -0.0000001169  0.000020  0.000511  0.000106  0.000002
 23  -2123.61708054  -0.0000000690  0.000010  0.000314  0.000060  0.000001
 24  -2123.61708058  -0.0000000342  0.000006  0.000236  0.000043  0.000001
 25  -2123.61708060  -0.0000000225  0.000007  0.000161  0.000026  0.000001
 26  -2123.61708061  -0.0000000130  0.000004  0.000170  0.000027  0.000001
 27  -2123.61708062  -0.0000000072  0.000003  0.000153  0.000024  0.000001
                  ***Gradient check signals convergence***
              ***Rediagonalizing the Fockian in SOSCF/NRSCF***

               *****************************************************
               *                     SUCCESS                       *
               *           SCF CONVERGED AFTER  28 CYCLES          *
               *****************************************************


----------------
TOTAL SCF ENERGY
----------------

Total Energy       :        -2123.61708062 Eh          -57786.55858 eV

Components:
Nuclear Repulsion  :         6229.69337321 Eh          169518.57484 eV
Electronic Energy  :        -8353.31045383 Eh         -227305.13342 eV
One Electron Energy:       -15300.23399302 Eh         -416340.53329 eV
Two Electron Energy:         6946.92353919 Eh          189035.39988 eV

Virial components:
Potential Energy   :        -4245.73078112 Eh         -115532.20810 eV
Kinetic Energy     :         2122.11370049 Eh           57745.64952 eV
Virial Ratio       :            2.00070844


---------------
SCF CONVERGENCE
---------------

  Last Energy change         ...   -2.4756e-09  Tolerance :   1.0000e-08
  Last MAX-Density change    ...    1.4849e-05  Tolerance :   1.0000e-07
  Last RMS-Density change    ...    3.5809e-07  Tolerance :   5.0000e-09
  Last Orbital Gradient      ...    2.4058e-06  Tolerance :   1.0000e-05
  Last Orbital Rotation      ...    1.0592e-04  Tolerance :   1.0000e-05

             **** THE GBW FILE WAS UPDATED (/scratch/allen/tmpyp4_amber_gaff2/conf1/conf1/Conf220.orca.gbw) ****
             **** DENSITY /scratch/allen/tmpyp4_amber_gaff2/conf1/conf1/Conf220.orca.scfp WAS UPDATED ****
             **** ENERGY FILE WAS UPDATED (/scratch/allen/tmpyp4_amber_gaff2/conf1/conf1/Conf220.orca.en.tmp) ****
             **** THE GBW FILE WAS UPDATED (/scratch/allen/tmpyp4_amber_gaff2/conf1/conf1/Conf220.orca.gbw) ****
             **** DENSITY /scratch/allen/tmpyp4_amber_gaff2/conf1/conf1/Conf220.orca.scfp WAS UPDATED ****
----------------
ORBITAL ENERGIES
----------------

  NO   OCC          E(Eh)            E(eV) 
   0   2.0000     -15.666271      -426.3009 
   1   2.0000     -15.635984      -425.4768 
   2   2.0000     -15.630132      -425.3175 
   3   2.0000     -15.597089      -424.4184 
   4   2.0000     -15.523712      -422.4217 
   5   2.0000     -15.516359      -422.2216 
   6   2.0000     -15.450776      -420.4370 
   7   2.0000     -15.442293      -420.2062 
   8   2.0000     -11.319577      -308.0213 
   9   2.0000     -11.318450      -307.9907 
  10   2.0000     -11.316676      -307.9424 
  11   2.0000     -11.300566      -307.5040 
  12   2.0000     -11.297200      -307.4124 
  13   2.0000     -11.293960      -307.3243 
  14   2.0000     -11.289020      -307.1898 
  15   2.0000     -11.288902      -307.1866 
  16   2.0000     -11.285743      -307.1007 
  17   2.0000     -11.277174      -306.8675 
  18   2.0000     -11.269344      -306.6544 
  19   2.0000     -11.261134      -306.4310 
  20   2.0000     -11.260681      -306.4187 
  21   2.0000     -11.253860      -306.2331 
  22   2.0000     -11.252925      -306.2076 
  23   2.0000     -11.239526      -305.8431 
  24   2.0000     -11.234865      -305.7162 
  25   2.0000     -11.232615      -305.6550 
  26   2.0000     -11.231820      -305.6334 
  27   2.0000     -11.228388      -305.5400 
  28   2.0000     -11.228287      -305.5372 
  29   2.0000     -11.207985      -304.9848 
  30   2.0000     -11.206893      -304.9551 
  31   2.0000     -11.206377      -304.9410 
  32   2.0000     -11.201335      -304.8038 
  33   2.0000     -11.199242      -304.7469 
  34   2.0000     -11.190914      -304.5202 
  35   2.0000     -11.190213      -304.5012 
  36   2.0000     -11.185389      -304.3699 
  37   2.0000     -11.182856      -304.3010 
  38   2.0000     -11.181972      -304.2769 
  39   2.0000     -11.172870      -304.0292 
  40   2.0000     -11.169847      -303.9470 
  41   2.0000     -11.169408      -303.9350 
  42   2.0000     -11.165779      -303.8363 
  43   2.0000     -11.163367      -303.7707 
  44   2.0000     -11.161551      -303.7212 
  45   2.0000     -11.160044      -303.6802 
  46   2.0000     -11.155780      -303.5642 
  47   2.0000     -11.151681      -303.4527 
  48   2.0000     -11.149319      -303.3884 
  49   2.0000     -11.143290      -303.2243 
  50   2.0000     -11.135113      -303.0018 
  51   2.0000     -11.127634      -302.7983 
  52   2.0000      -1.348877       -36.7048 
  53   2.0000      -1.322940       -35.9990 
  54   2.0000      -1.318085       -35.8669 
  55   2.0000      -1.290506       -35.1164 
  56   2.0000      -1.223806       -33.3015 
  57   2.0000      -1.211137       -32.9567 
  58   2.0000      -1.169109       -31.8131 
  59   2.0000      -1.153699       -31.3937 
  60   2.0000      -1.133948       -30.8563 
  61   2.0000      -1.111542       -30.2466 
  62   2.0000      -1.107642       -30.1405 
  63   2.0000      -1.085332       -29.5334 
  64   2.0000      -1.071391       -29.1540 
  65   2.0000      -1.047013       -28.4907 
  66   2.0000      -1.042812       -28.3764 
  67   2.0000      -1.034845       -28.1596 
  68   2.0000      -1.018199       -27.7066 
  69   2.0000      -1.013752       -27.5856 
  70   2.0000      -1.009799       -27.4780 
  71   2.0000      -0.992498       -27.0072 
  72   2.0000      -0.987409       -26.8688 
  73   2.0000      -0.977461       -26.5981 
  74   2.0000      -0.972912       -26.4743 
  75   2.0000      -0.959891       -26.1200 
  76   2.0000      -0.951530       -25.8924 
  77   2.0000      -0.947768       -25.7901 
  78   2.0000      -0.935964       -25.4689 
  79   2.0000      -0.920952       -25.0604 
  80   2.0000      -0.901519       -24.5316 
  81   2.0000      -0.891605       -24.2618 
  82   2.0000      -0.874573       -23.7984 
  83   2.0000      -0.870913       -23.6987 
  84   2.0000      -0.866452       -23.5774 
  85   2.0000      -0.855899       -23.2902 
  86   2.0000      -0.843763       -22.9599 
  87   2.0000      -0.837630       -22.7931 
  88   2.0000      -0.823012       -22.3953 
  89   2.0000      -0.798480       -21.7277 
  90   2.0000      -0.794003       -21.6059 
  91   2.0000      -0.746235       -20.3061 
  92   2.0000      -0.738736       -20.1020 
  93   2.0000      -0.731881       -19.9155 
  94   2.0000      -0.722989       -19.6735 
  95   2.0000      -0.720971       -19.6186 
  96   2.0000      -0.714283       -19.4366 
  97   2.0000      -0.707700       -19.2575 
  98   2.0000      -0.703704       -19.1488 
  99   2.0000      -0.696017       -18.9396 
 100   2.0000      -0.694713       -18.9041 
 101   2.0000      -0.682473       -18.5710 
 102   2.0000      -0.678795       -18.4710 
 103   2.0000      -0.676363       -18.4048 
 104   2.0000      -0.675468       -18.3804 
 105   2.0000      -0.671994       -18.2859 
 106   2.0000      -0.666077       -18.1249 
 107   2.0000      -0.662196       -18.0193 
 108   2.0000      -0.655147       -17.8274 
 109   2.0000      -0.654185       -17.8013 
 110   2.0000      -0.650018       -17.6879 
 111   2.0000      -0.645724       -17.5710 
 112   2.0000      -0.642078       -17.4718 
 113   2.0000      -0.637942       -17.3593 
 114   2.0000      -0.636276       -17.3140 
 115   2.0000      -0.629000       -17.1159 
 116   2.0000      -0.625896       -17.0315 
 117   2.0000      -0.616541       -16.7769 
 118   2.0000      -0.613881       -16.7045 
 119   2.0000      -0.611803       -16.6480 
 120   2.0000      -0.610058       -16.6005 
 121   2.0000      -0.603056       -16.4100 
 122   2.0000      -0.600755       -16.3474 
 123   2.0000      -0.588218       -16.0062 
 124   2.0000      -0.584371       -15.9015 
 125   2.0000      -0.582005       -15.8372 
 126   2.0000      -0.579417       -15.7667 
 127   2.0000      -0.577186       -15.7060 
 128   2.0000      -0.564158       -15.3515 
 129   2.0000      -0.558602       -15.2003 
 130   2.0000      -0.553681       -15.0664 
 131   2.0000      -0.548460       -14.9244 
 132   2.0000      -0.541874       -14.7451 
 133   2.0000      -0.538254       -14.6466 
 134   2.0000      -0.536513       -14.5993 
 135   2.0000      -0.535096       -14.5607 
 136   2.0000      -0.526371       -14.3233 
 137   2.0000      -0.524619       -14.2756 
 138   2.0000      -0.516730       -14.0609 
 139   2.0000      -0.514631       -14.0038 
 140   2.0000      -0.511341       -13.9143 
 141   2.0000      -0.510780       -13.8990 
 142   2.0000      -0.508672       -13.8417 
 143   2.0000      -0.502830       -13.6827 
 144   2.0000      -0.501483       -13.6461 
 145   2.0000      -0.497846       -13.5471 
 146   2.0000      -0.494166       -13.4469 
 147   2.0000      -0.485835       -13.2203 
 148   2.0000      -0.482884       -13.1399 
 149   2.0000      -0.468153       -12.7391 
 150   2.0000      -0.464483       -12.6392 
 151   2.0000      -0.456494       -12.4218 
 152   2.0000      -0.449166       -12.2224 
 153   2.0000      -0.446045       -12.1375 
 154   2.0000      -0.443473       -12.0675 
 155   2.0000      -0.440187       -11.9781 
 156   2.0000      -0.431063       -11.7298 
 157   2.0000      -0.424276       -11.5451 
 158   2.0000      -0.401332       -10.9208 
 159   2.0000      -0.387706       -10.5500 
 160   2.0000      -0.379156       -10.3173 
 161   2.0000      -0.377683       -10.2773 
 162   2.0000      -0.370329       -10.0772 
 163   2.0000      -0.357915        -9.7394 
 164   2.0000      -0.354560        -9.6481 
 165   2.0000      -0.338667        -9.2156 
 166   2.0000      -0.337137        -9.1740 
 167   2.0000      -0.330130        -8.9833 
 168   2.0000      -0.327108        -8.9010 
 169   2.0000      -0.302353        -8.2275 
 170   2.0000      -0.299829        -8.1588 
 171   2.0000      -0.286927        -7.8077 
 172   2.0000      -0.283975        -7.7273 
 173   2.0000      -0.260922        -7.1000 
 174   2.0000      -0.244728        -6.6594 
 175   2.0000      -0.189572        -5.1585 
 176   2.0000      -0.179817        -4.8931 
 177   2.0000      -0.073064        -1.9882 
 178   2.0000      -0.057345        -1.5604 
 179   0.0000       0.028978         0.7885 
 180   0.0000       0.067652         1.8409 
 181   0.0000       0.091911         2.5010 
 182   0.0000       0.106296         2.8925 
 183   0.0000       0.115185         3.1343 
 184   0.0000       0.135921         3.6986 
 185   0.0000       0.140345         3.8190 
 186   0.0000       0.147982         4.0268 
 187   0.0000       0.162348         4.4177 
 188   0.0000       0.164026         4.4634 
 189   0.0000       0.164832         4.4853 
 190   0.0000       0.166679         4.5356 
 191   0.0000       0.183369         4.9897 
 192   0.0000       0.187516         5.1026 
 193   0.0000       0.190917         5.1951 
 194   0.0000       0.203884         5.5480 
 195   0.0000       0.206599         5.6218 
 196   0.0000       0.207201         5.6382 
 197   0.0000       0.209634         5.7044 
 198   0.0000       0.223120         6.0714 
 199   0.0000       0.223410         6.0793 
 200   0.0000       0.227311         6.1854 
 201   0.0000       0.238118         6.4795 
 202   0.0000       0.240551         6.5457 
 203   0.0000       0.240994         6.5578 
 204   0.0000       0.250656         6.8207 
 205   0.0000       0.255610         6.9555 
 206   0.0000       0.257305         7.0016 
 207   0.0000       0.259593         7.0639 
 208   0.0000       0.260582         7.0908 
 209   0.0000       0.261342         7.1115 
 210   0.0000       0.264252         7.1907 
 211   0.0000       0.269917         7.3448 
 212   0.0000       0.271482         7.3874 
 213   0.0000       0.272455         7.4139 
 214   0.0000       0.275380         7.4935 
 215   0.0000       0.276839         7.5332 
 216   0.0000       0.278776         7.5859 
 217   0.0000       0.280568         7.6347 
 218   0.0000       0.284851         7.7512 
 219   0.0000       0.288956         7.8629 
 220   0.0000       0.289563         7.8794 
 221   0.0000       0.292777         7.9669 
 222   0.0000       0.294324         8.0090 
 223   0.0000       0.296059         8.0562 
 224   0.0000       0.298252         8.1158 
 225   0.0000       0.298810         8.1310 
 226   0.0000       0.305806         8.3214 
 227   0.0000       0.308705         8.4003 
 228   0.0000       0.310223         8.4416 
 229   0.0000       0.321960         8.7610 
 230   0.0000       0.324104         8.8193 
 231   0.0000       0.326955         8.8969 
 232   0.0000       0.329324         8.9614 
 233   0.0000       0.336027         9.1438 
 234   0.0000       0.347125         9.4458 
 235   0.0000       0.349120         9.5000 
 236   0.0000       0.360410         9.8073 
 237   0.0000       0.380549        10.3553 
 238   0.0000       0.394740        10.7414 
 239   0.0000       0.397657        10.8208 
 240   0.0000       0.401265        10.9190 
 241   0.0000       0.413767        11.2592 
 242   0.0000       0.418619        11.3912 
 243   0.0000       0.420581        11.4446 
 244   0.0000       0.429364        11.6836 
 245   0.0000       0.432821        11.7777 
 246   0.0000       0.435651        11.8547 
 247   0.0000       0.440337        11.9822 
 248   0.0000       0.442341        12.0367 
 249   0.0000       0.446418        12.1477 
 250   0.0000       0.450947        12.2709 
 251   0.0000       0.458480        12.4759 
 252   0.0000       0.461775        12.5655 
 253   0.0000       0.468389        12.7455 
 254   0.0000       0.471260        12.8236 
 255   0.0000       0.473278        12.8785 
 256   0.0000       0.481113        13.0918 
 257   0.0000       0.482262        13.1230 
 258   0.0000       0.487526        13.2663 
 259   0.0000       0.498956        13.5773 
 260   0.0000       0.502691        13.6789 
 261   0.0000       0.504903        13.7391 
 262   0.0000       0.506816        13.7912 
 263   0.0000       0.508494        13.8368 
 264   0.0000       0.513859        13.9828 
 265   0.0000       0.519399        14.1336 
 266   0.0000       0.522079        14.2065 
 267   0.0000       0.525075        14.2880 
 268   0.0000       0.533667        14.5218 
 269   0.0000       0.537799        14.6343 
 270   0.0000       0.540787        14.7156 
 271   0.0000       0.547108        14.8876 
 272   0.0000       0.549372        14.9492 
 273   0.0000       0.557754        15.1773 
 274   0.0000       0.560288        15.2462 
 275   0.0000       0.566052        15.4031 
 276   0.0000       0.569313        15.4918 
 277   0.0000       0.573224        15.5982 
 278   0.0000       0.579021        15.7560 
 279   0.0000       0.585972        15.9451 
 280   0.0000       0.588896        16.0247 
 281   0.0000       0.592293        16.1171 
 282   0.0000       0.593684        16.1550 
 283   0.0000       0.596959        16.2441 
 284   0.0000       0.598340        16.2816 
 285   0.0000       0.600627        16.3439 
 286   0.0000       0.607646        16.5349 
 287   0.0000       0.611554        16.6412 
 288   0.0000       0.612770        16.6743 
 289   0.0000       0.621407        16.9093 
 290   0.0000       0.628070        17.0907 
 291   0.0000       0.629315        17.1245 
 292   0.0000       0.633076        17.2269 
 293   0.0000       0.635635        17.2965 
 294   0.0000       0.646299        17.5867 
 295   0.0000       0.649289        17.6680 
 296   0.0000       0.653827        17.7915 
 297   0.0000       0.656979        17.8773 
 298   0.0000       0.665461        18.1081 
 299   0.0000       0.666185        18.1278 
 300   0.0000       0.669759        18.2251 
 301   0.0000       0.671427        18.2705 
 302   0.0000       0.678304        18.4576 
 303   0.0000       0.680473        18.5166 
 304   0.0000       0.682290        18.5661 
 305   0.0000       0.687668        18.7124 
 306   0.0000       0.690115        18.7790 
 307   0.0000       0.691705        18.8222 
 308   0.0000       0.696764        18.9599 
 309   0.0000       0.698200        18.9990 
 310   0.0000       0.700845        19.0710 
 311   0.0000       0.703667        19.1478 
 312   0.0000       0.705423        19.1955 
 313   0.0000       0.710284        19.3278 
 314   0.0000       0.711618        19.3641 
 315   0.0000       0.714484        19.4421 
 316   0.0000       0.717344        19.5199 
 317   0.0000       0.718951        19.5637 
 318   0.0000       0.721441        19.6314 
 319   0.0000       0.724190        19.7062 
 320   0.0000       0.725689        19.7470 
 321   0.0000       0.729057        19.8386 
 322   0.0000       0.732755        19.9393 
 323   0.0000       0.737463        20.0674 
 324   0.0000       0.737802        20.0766 
 325   0.0000       0.738895        20.1064 
 326   0.0000       0.742717        20.2104 
 327   0.0000       0.745588        20.2885 
 328   0.0000       0.749248        20.3881 
 329   0.0000       0.750233        20.4149 
 330   0.0000       0.752609        20.4795 
 331   0.0000       0.756005        20.5719 
 332   0.0000       0.757394        20.6098 
 333   0.0000       0.761656        20.7257 
 334   0.0000       0.768712        20.9177 
 335   0.0000       0.771278        20.9875 
 336   0.0000       0.774962        21.0878 
 337   0.0000       0.784095        21.3363 
 338   0.0000       0.786799        21.4099 
 339   0.0000       0.787625        21.4324 
 340   0.0000       0.790134        21.5007 
 341   0.0000       0.795005        21.6332 
 342   0.0000       0.797954        21.7134 
 343   0.0000       0.802389        21.8341 
 344   0.0000       0.806439        21.9443 
 345   0.0000       0.807267        21.9668 
 346   0.0000       0.808845        22.0098 
 347   0.0000       0.811195        22.0737 
 348   0.0000       0.812164        22.1001 
 349   0.0000       0.818565        22.2743 
 350   0.0000       0.821270        22.3479 
 351   0.0000       0.821890        22.3648 
 352   0.0000       0.824569        22.4377 
 353   0.0000       0.826826        22.4991 
 354   0.0000       0.828590        22.5471 
 355   0.0000       0.831492        22.6261 
 356   0.0000       0.832260        22.6469 
 357   0.0000       0.835769        22.7424 
 358   0.0000       0.837014        22.7763 
 359   0.0000       0.838349        22.8126 
 360   0.0000       0.839622        22.8473 
 361   0.0000       0.842994        22.9390 
 362   0.0000       0.843727        22.9590 
 363   0.0000       0.844897        22.9908 
 364   0.0000       0.848070        23.0772 
 365   0.0000       0.852490        23.1974 
 366   0.0000       0.856397        23.3037 
 367   0.0000       0.858855        23.3706 
 368   0.0000       0.862128        23.4597 
 369   0.0000       0.865050        23.5392 
 370   0.0000       0.869403        23.6577 
 371   0.0000       0.873932        23.7809 
 372   0.0000       0.874849        23.8058 
 373   0.0000       0.877497        23.8779 
 374   0.0000       0.879381        23.9292 
 375   0.0000       0.882812        24.0225 
 376   0.0000       0.884149        24.0589 
 377   0.0000       0.888295        24.1717 
 378   0.0000       0.889680        24.2094 
 379   0.0000       0.894767        24.3478 
 380   0.0000       0.895980        24.3809 
 381   0.0000       0.899514        24.4770 
 382   0.0000       0.901636        24.5348 
 383   0.0000       0.902408        24.5558 
 384   0.0000       0.904185        24.6041 
 385   0.0000       0.905234        24.6327 
 386   0.0000       0.907739        24.7008 
 387   0.0000       0.909724        24.7548 
 388   0.0000       0.910050        24.7637 
 389   0.0000       0.916722        24.9453 
 390   0.0000       0.918912        25.0049 
 391   0.0000       0.921315        25.0702 
 392   0.0000       0.923452        25.1284 
 393   0.0000       0.926577        25.2134 
 394   0.0000       0.929009        25.2796 
 395   0.0000       0.930349        25.3161 
 396   0.0000       0.931279        25.3414 
 397   0.0000       0.934723        25.4351 
 398   0.0000       0.940062        25.5804 
 399   0.0000       0.942200        25.6386 
 400   0.0000       0.944596        25.7038 
 401   0.0000       0.947061        25.7708 
 402   0.0000       0.952319        25.9139 
 403   0.0000       0.956413        26.0253 
 404   0.0000       0.958950        26.0943 
 405   0.0000       0.961105        26.1530 
 406   0.0000       0.962639        26.1947 
 407   0.0000       0.966769        26.3071 
 408   0.0000       0.968675        26.3590 
 409   0.0000       0.976804        26.5802 
 410   0.0000       0.980615        26.6839 
 411   0.0000       0.985650        26.8209 
 412   0.0000       0.988304        26.8931 
 413   0.0000       0.991766        26.9873 
 414   0.0000       0.993957        27.0469 
 415   0.0000       0.995357        27.0850 
 416   0.0000       1.002630        27.2829 
 417   0.0000       1.010283        27.4912 
 418   0.0000       1.014007        27.5925 
 419   0.0000       1.018858        27.7245 
 420   0.0000       1.026786        27.9403 
 421   0.0000       1.030848        28.0508 
 422   0.0000       1.032832        28.1048 
 423   0.0000       1.042227        28.3604 
 424   0.0000       1.047395        28.5011 
 425   0.0000       1.047890        28.5145 
 426   0.0000       1.058839        28.8125 
 427   0.0000       1.063698        28.9447 
 428   0.0000       1.067728        29.0544 
 429   0.0000       1.076638        29.2968 
 430   0.0000       1.078895        29.3582 
 431   0.0000       1.083081        29.4721 
 432   0.0000       1.085318        29.5330 
 433   0.0000       1.090679        29.6789 
 434   0.0000       1.099244        29.9120 
 435   0.0000       1.101208        29.9654 
 436   0.0000       1.105683        30.0872 
 437   0.0000       1.111390        30.2424 
 438   0.0000       1.114461        30.3260 
 439   0.0000       1.118279        30.4299 
 440   0.0000       1.120213        30.4825 
 441   0.0000       1.122777        30.5523 
 442   0.0000       1.124904        30.6102 
 443   0.0000       1.128416        30.7058 
 444   0.0000       1.132701        30.8224 
 445   0.0000       1.135831        30.9075 
 446   0.0000       1.141097        31.0508 
 447   0.0000       1.143398        31.1135 
 448   0.0000       1.145193        31.1623 
 449   0.0000       1.149607        31.2824 
 450   0.0000       1.151813        31.3424 
 451   0.0000       1.153445        31.3868 
 452   0.0000       1.158054        31.5123 
 453   0.0000       1.161374        31.6026 
 454   0.0000       1.164721        31.6937 
 455   0.0000       1.169977        31.8367 
 456   0.0000       1.172692        31.9106 
 457   0.0000       1.175597        31.9896 
 458   0.0000       1.179396        32.0930 
 459   0.0000       1.184326        32.2271 
 460   0.0000       1.186733        32.2926 
 461   0.0000       1.196614        32.5615 
 462   0.0000       1.201944        32.7066 
 463   0.0000       1.204682        32.7811 
 464   0.0000       1.207863        32.8676 
 465   0.0000       1.209981        32.9253 
 466   0.0000       1.215593        33.0780 
 467   0.0000       1.217690        33.1350 
 468   0.0000       1.222218        33.2583 
 469   0.0000       1.226197        33.3665 
 470   0.0000       1.229806        33.4647 
 471   0.0000       1.232035        33.5254 
 472   0.0000       1.234478        33.5919 
 473   0.0000       1.235182        33.6110 
 474   0.0000       1.242918        33.8215 
 475   0.0000       1.244979        33.8776 
 476   0.0000       1.248932        33.9852 
 477   0.0000       1.250624        34.0312 
 478   0.0000       1.251172        34.0461 
 479   0.0000       1.254090        34.1255 
 480   0.0000       1.259501        34.2728 
 481   0.0000       1.264862        34.4187 
 482   0.0000       1.265607        34.4389 
 483   0.0000       1.269831        34.5539 
 484   0.0000       1.271845        34.6087 
 485   0.0000       1.277573        34.7645 
 486   0.0000       1.280902        34.8551 
 487   0.0000       1.283691        34.9310 
 488   0.0000       1.287350        35.0306 
 489   0.0000       1.290905        35.1273 
 490   0.0000       1.292509        35.1710 
 491   0.0000       1.297856        35.3165 
 492   0.0000       1.299301        35.3558 
 493   0.0000       1.309658        35.6376 
 494   0.0000       1.311024        35.6748 
 495   0.0000       1.313960        35.7547 
 496   0.0000       1.320542        35.9338 
 497   0.0000       1.323321        36.0094 
 498   0.0000       1.326134        36.0859 
 499   0.0000       1.329481        36.1770 
 500   0.0000       1.332034        36.2465 
 501   0.0000       1.335359        36.3370 
 502   0.0000       1.336848        36.3775 
 503   0.0000       1.343777        36.5660 
 504   0.0000       1.346353        36.6361 
 505   0.0000       1.350689        36.7541 
 506   0.0000       1.352962        36.8160 
 507   0.0000       1.358292        36.9610 
 508   0.0000       1.359610        36.9969 
 509   0.0000       1.361675        37.0531 
[...]
      pz      :     0.022069  p :     0.079711
      px      :     0.043511
      py      :     0.014131
 77 H s       :     0.886037  s :     0.886037
      pz      :     0.047863  p :     0.079158
      px      :     0.015019
      py      :     0.016276
 78 H s       :     0.886412  s :     0.886412
      pz      :     0.025823  p :     0.079115
      px      :     0.020488
      py      :     0.032803
 79 H s       :     0.910123  s :     0.910123
      pz      :     0.021912  p :     0.086453
      px      :     0.021695
      py      :     0.042847
 80 H s       :     0.866536  s :     0.866536
      pz      :     0.039218  p :     0.084589
      px      :     0.030162
      py      :     0.015209
 81 H s       :     0.887110  s :     0.887110
      pz      :     0.037787  p :     0.084049
      px      :     0.016181
      py      :     0.030080
 82 H s       :     0.915720  s :     0.915720
      pz      :     0.021998  p :     0.086767
      px      :     0.031559
      py      :     0.033210
 83 H s       :     0.873218  s :     0.873218
      pz      :     0.039267  p :     0.084048
      px      :     0.015269
      py      :     0.029511
 84 H s       :     0.886869  s :     0.886869
      pz      :     0.035775  p :     0.083533
      px      :     0.031702
      py      :     0.016055
 85 H s       :     0.893161  s :     0.893161
      pz      :     0.022492  p :     0.079773
      px      :     0.014079
      py      :     0.043202
 86 H s       :     0.890965  s :     0.890965
      pz      :     0.024727  p :     0.078835
      px      :     0.032981
      py      :     0.021127
 87 H s       :     0.890058  s :     0.890058
      pz      :     0.047989  p :     0.078721
      px      :     0.015594
      py      :     0.015138
 88 H s       :     0.911519  s :     0.911519
      pz      :     0.021744  p :     0.086993
      px      :     0.042816
      py      :     0.022434
 89 H s       :     0.871945  s :     0.871945
      pz      :     0.037912  p :     0.083821
      px      :     0.030461
      py      :     0.015449


                      *****************************
                      * MAYER POPULATION ANALYSIS *
                      *****************************

  NA   - Mulliken gross atomic population
  ZA   - Total nuclear charge
  QA   - Mulliken gross atomic charge
  VA   - Mayer's total valence
  BVA  - Mayer's bonded valence
  FA   - Mayer's free valence

  ATOM       NA         ZA         QA         VA         BVA        FA
  0 C      5.7918     6.0000     0.2082     3.8373     3.8373    -0.0000
  1 N      7.4526     7.0000    -0.4526     3.3358     3.3358     0.0000
  2 C      6.0631     6.0000    -0.0631     3.9201     3.9201    -0.0000
  3 N      7.3362     7.0000    -0.3362     3.4558     3.4558     0.0000
  4 C      6.0490     6.0000    -0.0490     4.0051     4.0051    -0.0000
  5 N      7.5632     7.0000    -0.5632     3.0925     3.0925     0.0000
  6 C      6.1083     6.0000    -0.1083     4.0065     4.0065    -0.0000
  7 N      7.3396     7.0000    -0.3396     3.4361     3.4361    -0.0000
  8 C      5.7951     6.0000     0.2049     3.8398     3.8398     0.0000
  9 N      7.5626     7.0000    -0.5626     3.0792     3.0792    -0.0000
 10 C      5.8820     6.0000     0.1180     3.9064     3.9064     0.0000
 11 N      7.4380     7.0000    -0.4380     3.3803     3.3803    -0.0000
 12 C      6.0839     6.0000    -0.0839     3.9101     3.9101    -0.0000
 13 N      7.4326     7.0000    -0.4326     3.4135     3.4135    -0.0000
 14 C      5.7612     6.0000     0.2388     3.7809     3.7809     0.0000
 15 N      7.4411     7.0000    -0.4411     3.3712     3.3712    -0.0000
 16 C      5.7718     6.0000     0.2282     3.7826     3.7826    -0.0000
 17 C      6.1084     6.0000    -0.1084     4.0026     4.0026    -0.0000
 18 C      6.2042     6.0000    -0.2042     3.7701     3.7701     0.0000
 19 C      5.7676     6.0000     0.2324     3.8596     3.8596    -0.0000
 20 C      5.7877     6.0000     0.2123     3.8282     3.8282     0.0000
 21 C      6.0954     6.0000    -0.0954     3.8972     3.8972    -0.0000
 22 C      6.0903     6.0000    -0.0903     3.9827     3.9827    -0.0000
 23 C      6.0419     6.0000    -0.0419     3.9921     3.9921    -0.0000
 24 C      5.8030     6.0000     0.1970     3.8218     3.8218    -0.0000
 25 C      5.8857     6.0000     0.1143     3.8908     3.8908     0.0000
 26 C      6.0759     6.0000    -0.0759     3.9095     3.9095    -0.0000
 27 C      5.7860     6.0000     0.2140     3.8683     3.8683    -0.0000
 28 C      6.0593     6.0000    -0.0593     3.9884     3.9884     0.0000
 29 C      6.1805     6.0000    -0.1805     3.7431     3.7431     0.0000
 30 C      5.7570     6.0000     0.2430     3.7984     3.7984    -0.0000
 31 C      5.7753     6.0000     0.2247     3.8206     3.8206    -0.0000
 32 C      6.0627     6.0000    -0.0627     3.9218     3.9218    -0.0000
 33 C      6.0667     6.0000    -0.0667     3.9764     3.9764    -0.0000
 34 C      6.0505     6.0000    -0.0505     3.9863     3.9863    -0.0000
 35 C      5.7792     6.0000     0.2208     3.8194     3.8194     0.0000
 36 C      5.8900     6.0000     0.1100     3.8799     3.8799     0.0000
 37 C      6.0651     6.0000    -0.0651     3.9175     3.9175    -0.0000
 38 C      5.7668     6.0000     0.2332     3.8001     3.8001     0.0000
 39 C      6.0590     6.0000    -0.0590     3.9856     3.9856     0.0000
 40 C      6.1835     6.0000    -0.1835     3.7316     3.7316     0.0000
 41 C      5.7757     6.0000     0.2243     3.8848     3.8848    -0.0000
 42 C      5.8013     6.0000     0.1987     3.8265     3.8265    -0.0000
 43 C      6.0726     6.0000    -0.0726     3.9008     3.9008    -0.0000
 44 C      6.0898     6.0000    -0.0898     3.9850     3.9850     0.0000
 45 C      6.0589     6.0000    -0.0589     3.9926     3.9926     0.0000
 46 C      5.7911     6.0000     0.2089     3.8278     3.8278     0.0000
 47 C      5.8845     6.0000     0.1155     3.8934     3.8934    -0.0000
 48 C      6.0691     6.0000    -0.0691     3.9082     3.9082    -0.0000
 49 C      5.7647     6.0000     0.2353     3.8910     3.8910     0.0000
 50 C      6.0484     6.0000    -0.0484     3.9906     3.9906     0.0000
 51 C      6.1909     6.0000    -0.1909     3.7358     3.7358    -0.0000
 52 H      0.9571     1.0000     0.0429     0.9860     0.9860    -0.0000
 53 H      1.0158     1.0000    -0.0158     0.9983     0.9983    -0.0000
 54 H      0.9508     1.0000     0.0492     1.0112     1.0112    -0.0000
 55 H      0.9589     1.0000     0.0411     0.9866     0.9866    -0.0000
 56 H      0.9490     1.0000     0.0510     0.9699     0.9699     0.0000
 57 H      0.9506     1.0000     0.0494     0.9831     0.9831    -0.0000
 58 H      0.9505     1.0000     0.0495     0.9849     0.9849    -0.0000
 59 H      0.9999     1.0000     0.0001     1.0032     1.0032    -0.0000
 60 H      0.9479     1.0000     0.0521     1.0129     1.0129    -0.0000
 61 H      0.8285     1.0000     0.1715     1.0421     1.0421     0.0000
 62 H      0.8252     1.0000     0.1748     1.0435     1.0435    -0.0000
 63 H      0.9442     1.0000     0.0558     0.9853     0.9853     0.0000
 64 H      1.0084     1.0000    -0.0084     0.9982     0.9982    -0.0000
 65 H      0.9524     1.0000     0.0476     1.0093     1.0093    -0.0000
 66 H      0.9435     1.0000     0.0565     0.9853     0.9853    -0.0000
 67 H      0.9374     1.0000     0.0626     0.9720     0.9720     0.0000
 68 H      0.9423     1.0000     0.0577     0.9868     0.9868    -0.0000
 69 H      0.9428     1.0000     0.0572     0.9828     0.9828     0.0000
 70 H      1.0281     1.0000    -0.0281     0.9935     0.9935     0.0000
 71 H      0.9543     1.0000     0.0457     1.0061     1.0061    -0.0000
 72 H      0.9330     1.0000     0.0670     0.9840     0.9840     0.0000
 73 H      1.0096     1.0000    -0.0096     1.0003     1.0003    -0.0000
 74 H      0.9436     1.0000     0.0564     1.0101     1.0101    -0.0000
 75 H      0.9338     1.0000     0.0662     0.9844     0.9844    -0.0000
 76 H      0.9289     1.0000     0.0711     0.9720     0.9720     0.0000
 77 H      0.9349     1.0000     0.0651     0.9854     0.9854    -0.0000
 78 H      0.9357     1.0000     0.0643     0.9852     0.9852    -0.0000
 79 H      1.0157     1.0000    -0.0157     0.9981     0.9981    -0.0000
 80 H      0.9429     1.0000     0.0571     1.0072     1.0072    -0.0000
 81 H      0.9463     1.0000     0.0537     0.9856     0.9856     0.0000
 82 H      1.0245     1.0000    -0.0245     0.9936     0.9936    -0.0000
 83 H      0.9579     1.0000     0.0421     1.0085     1.0085     0.0000
 84 H      0.9463     1.0000     0.0537     0.9853     0.9853    -0.0000
 85 H      0.9398     1.0000     0.0602     0.9716     0.9716     0.0000
 86 H      0.9444     1.0000     0.0556     0.9839     0.9839    -0.0000
 87 H      0.9432     1.0000     0.0568     0.9856     0.9856     0.0000
 88 H      1.0164     1.0000    -0.0164     0.9961     0.9961    -0.0000
 89 H      0.9548     1.0000     0.0452     1.0074     1.0074     0.0000

  Mayer bond orders larger than 0.100000
B(  0-C ,  1-N ) :   1.0942 B(  0-C , 17-C ) :   1.6926 B(  0-C , 52-H ) :   0.9678 
B(  1-N ,  8-C ) :   1.0921 B(  1-N , 10-C ) :   0.9750 B(  2-C , 12-C ) :   1.5149 
B(  2-C , 16-C ) :   1.3491 B(  2-C , 53-H ) :   0.9760 B(  3-N , 14-C ) :   1.2160 
B(  3-N , 16-C ) :   1.1920 B(  3-N , 61-H ) :   0.8990 B(  4-C ,  6-C ) :   1.2204 
B(  4-C , 17-C ) :   1.2205 B(  4-C , 18-C ) :   1.4038 B(  5-N , 19-C ) :   1.4466 
B(  5-N , 27-C ) :   1.3837 B(  6-C ,  8-C ) :   1.6914 B(  6-C , 54-H ) :   0.9637 
B(  7-N , 30-C ) :   1.1952 B(  7-N , 38-C ) :   1.1937 B(  7-N , 62-H ) :   0.8972 
B(  8-C , 55-H ) :   0.9685 B(  9-N , 41-C ) :   1.3973 B(  9-N , 49-C ) :   1.4235 
B( 10-C , 56-H ) :   0.9768 B( 10-C , 57-H ) :   0.9821 B( 10-C , 58-H ) :   0.9842 
B( 11-N , 20-C ) :   1.1298 B( 11-N , 24-C ) :   1.1114 B( 11-N , 25-C ) :   0.9594 
B( 12-C , 14-C ) :   1.3499 B( 12-C , 59-H ) :   0.9743 B( 13-N , 31-C ) :   1.1502 
B( 13-N , 35-C ) :   1.1462 B( 13-N , 36-C ) :   0.9469 B( 14-C , 18-C ) :   1.1433 
B( 15-N , 42-C ) :   1.1092 B( 15-N , 46-C ) :   1.1206 B( 15-N , 47-C ) :   0.9619 
B( 16-C , 51-C ) :   1.1772 B( 17-C , 60-H ) :   0.9627 B( 18-C , 19-C ) :   1.1505 
B( 19-C , 21-C ) :   1.2368 B( 20-C , 28-C ) :   1.6266 B( 20-C , 63-H ) :   0.9703 
B( 21-C , 26-C ) :   1.6193 B( 21-C , 64-H ) :   0.9698 B( 22-C , 23-C ) :   1.2888 
B( 22-C , 28-C ) :   1.2671 B( 22-C , 29-C ) :   1.2227 B( 23-C , 24-C ) :   1.6188 
B( 23-C , 65-H ) :   0.9705 B( 24-C , 66-H ) :   0.9694 B( 25-C , 67-H ) :   0.9760 
B( 25-C , 68-H ) :   0.9828 B( 25-C , 69-H ) :   0.9822 B( 26-C , 27-C ) :   1.2326 
B( 26-C , 70-H ) :   0.9715 B( 27-C , 29-C ) :   1.2195 B( 28-C , 71-H ) :   0.9718 
B( 29-C , 30-C ) :   1.2336 B( 30-C , 32-C ) :   1.2902 B( 31-C , 39-C ) :   1.6009 
B( 31-C , 72-H ) :   0.9686 B( 32-C , 37-C ) :   1.5687 B( 32-C , 73-H ) :   0.9784 
B( 33-C , 34-C ) :   1.2980 B( 33-C , 39-C ) :   1.2928 B( 33-C , 40-C ) :   1.1974 
B( 34-C , 35-C ) :   1.5979 B( 34-C , 74-H ) :   0.9699 B( 35-C , 75-H ) :   0.9686 
B( 36-C , 76-H ) :   0.9766 B( 36-C , 77-H ) :   0.9817 B( 36-C , 78-H ) :   0.9826 
B( 37-C , 38-C ) :   1.2939 B( 37-C , 79-H ) :   0.9769 B( 38-C , 40-C ) :   1.2253 
B( 39-C , 80-H ) :   0.9708 B( 40-C , 41-C ) :   1.2418 B( 41-C , 43-C ) :   1.1931 
B( 42-C , 50-C ) :   1.6340 B( 42-C , 81-H ) :   0.9697 B( 43-C , 48-C ) :   1.6591 
B( 43-C , 82-H ) :   0.9726 B( 44-C , 45-C ) :   1.2650 B( 44-C , 50-C ) :   1.2702 
B( 44-C , 51-C ) :   1.2604 B( 45-C , 46-C ) :   1.6350 B( 45-C , 83-H ) :   0.9717 
B( 46-C , 84-H ) :   0.9701 B( 47-C , 85-H ) :   0.9762 B( 47-C , 86-H ) :   0.9829 
B( 47-C , 87-H ) :   0.9825 B( 48-C , 49-C ) :   1.1958 B( 48-C , 88-H ) :   0.9746 
B( 49-C , 51-C ) :   1.2356 B( 50-C , 89-H ) :   0.9711 

-------
TIMINGS
-------

Total SCF time: 0 days 0 hours 28 min 30 sec 

Total time                  ....    1710.003 sec
Sum of individual times     ....    1705.330 sec  ( 99.7%)

Fock matrix formation       ....    1677.692 sec  ( 98.1%)
Diagonalization             ....       8.778 sec  (  0.5%)
Density matrix formation    ....       0.523 sec  (  0.0%)
Population analysis         ....       0.582 sec  (  0.0%)
Initial guess               ....       2.537 sec  (  0.1%)
Orbital Transformation      ....       0.000 sec  (  0.0%)
Orbital Orthonormalization  ....       0.000 sec  (  0.0%)
DIIS solution               ....       3.964 sec  (  0.2%)
SOSCF solution              ....       9.965 sec  (  0.6%)

Maximum memory used throughout the entire SCF-calculation: 302.6 MB


           ************************************************************
           *        Program running with 16 parallel MPI-processes    *
           *              working on a common directory               *
           ************************************************************

------------------------------------------------------------------------------
                                ORCA  MP2 
------------------------------------------------------------------------------

Freezing NCore=104 chemical core electrons

----------
MP2 ENERGY (disk based algorithm)
----------

Dimension of the basis                    ...  918
Memory devoted to MP2                     ... 2000 MB   
Data format for buffers                   ... DOUBLE
Compression type for matrix containers    ... UNCOMPRESSED

-------------------------------
PARTIAL EXCHANGE TRANSFORMATION
-------------------------------

Transformation type                        ... one-operator
Generation of integrals (i,mue|j,nue)      ... ON
Generation of integrals (mue,kappa|nue,tau)... OFF
Generation of integrals (i,mue|a,nue)      ... OFF
Dimension of the basis                     ...  918
Number of internal MOs                     ...  127 (  52- 178)
Pair cutoff                                ... 2.500e-12 Eh
Number of AO pairs in the trafo            ... 421821
Total Number of distinct AO pairs          ... 421821
Memory devoted for trafo                   ... 2000.0 MB 
Max. Number of MO pairs treated together   ...  311      
Number Format for Storage                  ... Double (8 Byte)
Integral package used                      ... LIBINT

Starting integral evaluation:
    ... done with AO integral generation
Closing buffer AOK     (38.23 GB; CompressionRatio= 1.33)
Collecting buffer AOK 
Number of MO pairs included in the trafo   ... 8128
------------------------
SORTING OF (i,mue|j,nue)
------------------------

IBATCH = 1 of  2
IBATCH = 2 of  2
Closing buffer KAO     (51.03 GB; CompressionRatio= 1.00)
Collecting buffer KAO 
N(AO-Batches) Done                         ...  85794875 
N(AO-Batches) Skipped                      ...  82419887 
N(IJ)-pairs Skipped                        ...         0 
TOTAL TIME for half transformation         ...  2773.850 sec
AO-integral generation                     ...   212.110 sec
Half transformation                        ...   423.393 sec
K-integral sorting                         ...  1915.112 sec
Process 13:   Internal MO 156
Process 10:   Internal MO 132

Finished integral transformation - now doing MP2 part

OPERATOR COMBINATION   0   0: ij=( 52..178, 52..178)
Process  1:   Internal MO  60
Process  7:   Internal MO 108
Process  4:   Internal MO  84
Process  0:   Internal MO  54
Process  0:   Internal MO  57
Process  2:   Internal MO  69
Process  1:   Internal MO  63
Process  5:   Internal MO  93
Process  3:   Internal MO  78
Process  1:   Internal MO  66
Process  8:   Internal MO 117
Process 11:   Internal MO 141
Process  2:   Internal MO  72
Process  6:   Internal MO 102
Process  4:   Internal MO  87
Process  3:   Internal MO  81
Process  9:   Internal MO 126
Process  5:   Internal MO  96
Process  2:   Internal MO  75
Process 14:   Internal MO 165
Process  7:   Internal MO 111
Process 12:   Internal MO 150
Process 10:   Internal MO 135
Process 15:   Internal MO 174
Process  4:   Internal MO  90
Process  6:   Internal MO 105
Process  5:   Internal MO  99
Process  8:   Internal MO 120
Process 13:   Internal MO 159
Process 11:   Internal MO 144
Process  9:   Internal MO 129
Process  7:   Internal MO 114
Process  8:   Internal MO 123
Process 10:   Internal MO 138
Process 12:   Internal MO 153
Process 14:   Internal MO 168
Process 11:   Internal MO 147
Process 15:   Internal MO 177
Process 13:   Internal MO 162
Process 14:   Internal MO 171
-----------------------------------------------
 MP2 CORRELATION ENERGY   :     -7.284469828 Eh
-----------------------------------------------


-------
TIMINGS
-------
Total time                : 3027.957 sec
Integral trafo            : 2778.316 sec ( 91.8%)
K(i,j)                    :    6.053 sec (  0.2%)
T(i,j)                    :    0.102 sec (  0.0%)

---------------------------------------
MP2 TOTAL ENERGY:    -2130.901550451 Eh
---------------------------------------

Maximum memory used throughout the entire MP2-calculation: 2275.3 MB

-------------------------   --------------------
FINAL SINGLE POINT ENERGY     -2130.901550450893
-------------------------   --------------------


                            ***************************************
                            *     ORCA property calculations      *
                            ***************************************


  WARNING: The energy has been calculated at the MP2 level but the densities
           used in the property calculations are still SCF densities
           MP2 response densities have not been calculated 
           use %mp2 Density relaxed end
           or  %mp2 Density unrelaxed end

                                    ---------------------
                                    Active property flags
                                    ---------------------
   (+) Dipole Moment


------------------------------------------------------------------------------
                       ORCA ELECTRIC PROPERTIES CALCULATION
------------------------------------------------------------------------------

Dipole Moment Calculation                       ... on
Quadrupole Moment Calculation                   ... off
Polarizability Calculation                      ... off
GBWName                                         ... /scratch/allen/tmpyp4_amber_gaff2/conf1/conf1/Conf220.orca.gbw
Electron density                                ... /scratch/allen/tmpyp4_amber_gaff2/conf1/conf1/Conf220.orca.scfp
The origin for moment calculation is the CENTER OF MASS  = ( 0.002348, -0.002408 -0.001204)

-------------
DIPOLE MOMENT
-------------
                                X             Y             Z
Electronic contribution:      1.77546      -3.37851      -0.14794
Nuclear contribution   :      0.07955       0.24045       0.15118
                        -----------------------------------------
Total Dipole Moment    :      1.85501      -3.13807       0.00324
                        -----------------------------------------
Magnitude (a.u.)       :      3.64534
Magnitude (Debye)      :      9.26572



--------------------
Rotational spectrum 
--------------------
 
Rotational constants in cm-1:     0.001500     0.001477     0.000761 
Rotational constants in MHz :    44.963208    44.287501    22.812064 

 Dipole components along the rotational axes: 
x,y,z [a.u.] :     2.605871    -2.549108     0.001748 
x,y,z [Debye]:     6.623598    -6.479318     0.004444 

 

Timings for individual modules:

Sum of individual times         ...     4765.298 sec (=  79.422 min)
GTO integral calculation        ...        3.319 sec (=   0.055 min)   0.1 %
SCF iterations                  ...     1711.200 sec (=  28.520 min)  35.9 %
MP2 module                      ...     3050.778 sec (=  50.846 min)  64.0 %
                             ****ORCA TERMINATED NORMALLY****
TOTAL RUN TIME: 0 days 1 hours 19 minutes 28 seconds 769 msec
# of primitive gaussian functions

