
                                 *****************
                                 * O   R   C   A *
                                 *****************

                                            #,                                       
                                            ###                                      
                                            ####                                     
                                            #####                                    
                                            ######                                   
                                           ########,                                 
                                     ,,################,,,,,                         
                               ,,#################################,,                 
                          ,,##########################################,,             
                       ,#########################################, ''#####,          
                    ,#############################################,,   '####,        
                  ,##################################################,,,,####,       
                ,###########''''           ''''###############################       
              ,#####''   ,,,,##########,,,,          '''####'''          '####       
            ,##' ,,,,###########################,,,                        '##       
           ' ,,###''''                  '''############,,,                           
         ,,##''                                '''############,,,,        ,,,,,,###''
      ,#''                                            '''#######################'''  
     '                                                          ''''####''''         
             ,#######,   #######,   ,#######,      ##                                
            ,#'     '#,  ##    ##  ,#'     '#,    #''#        ######   ,####,        
            ##       ##  ##   ,#'  ##            #'  '#       #        #'  '#        
            ##       ##  #######   ##           ,######,      #####,   #    #        
            '#,     ,#'  ##    ##  '#,     ,#' ,#      #,         ##   #,  ,#        
             '#######'   ##     ##  '#######'  #'      '#     #####' # '####'        



                  #######################################################
                  #                        -***-                        #
                  #          Department of theory and spectroscopy      #
                  #    Directorship and core code : Frank Neese         #
                  #        Max Planck Institute fuer Kohlenforschung    #
                  #                Kaiser Wilhelm Platz 1               #
                  #                 D-45470 Muelheim/Ruhr               #
                  #                      Germany                        #
                  #                                                     #
                  #                  All rights reserved                #
                  #                        -***-                        #
                  #######################################################


                         Program Version 5.0.4 -  RELEASE  -


 With contributions from (in alphabetic order):
   Daniel Aravena         : Magnetic Suceptibility
   Michael Atanasov       : Ab Initio Ligand Field Theory (pilot matlab implementation)
   Alexander A. Auer      : GIAO ZORA, VPT2 properties, NMR spectrum
   Ute Becker             : Parallelization
   Giovanni Bistoni       : ED, misc. LED, open-shell LED, HFLD
   Martin Brehm           : Molecular dynamics
   Dmytro Bykov           : SCF Hessian
   Vijay G. Chilkuri      : MRCI spin determinant printing, contributions to CSF-ICE
   Dipayan Datta          : RHF DLPNO-CCSD density
   Achintya Kumar Dutta   : EOM-CC, STEOM-CC
   Dmitry Ganyushin       : Spin-Orbit,Spin-Spin,Magnetic field MRCI
   Miquel Garcia          : C-PCM and meta-GGA Hessian, CC/C-PCM, Gaussian charge scheme
   Yang Guo               : DLPNO-NEVPT2, F12-NEVPT2, CIM, IAO-localization
   Andreas Hansen         : Spin unrestricted coupled pair/coupled cluster methods
   Benjamin Helmich-Paris : MC-RPA, TRAH-SCF, COSX integrals
   Lee Huntington         : MR-EOM, pCC
   Robert Izsak           : Overlap fitted RIJCOSX, COSX-SCS-MP3, EOM
   Marcus Kettner         : VPT2
   Christian Kollmar      : KDIIS, OOCD, Brueckner-CCSD(T), CCSD density, CASPT2, CASPT2-K
   Simone Kossmann        : Meta GGA functionals, TD-DFT gradient, OOMP2, MP2 Hessian
   Martin Krupicka        : Initial AUTO-CI
   Lucas Lang             : DCDCAS
   Marvin Lechner         : AUTO-CI (C++ implementation), FIC-MRCC
   Dagmar Lenk            : GEPOL surface, SMD
   Dimitrios Liakos       : Extrapolation schemes; Compound Job, initial MDCI parallelization
   Dimitrios Manganas     : Further ROCIS development; embedding schemes
   Dimitrios Pantazis     : SARC Basis sets
   Anastasios Papadopoulos: AUTO-CI, single reference methods and gradients
   Taras Petrenko         : DFT Hessian,TD-DFT gradient, ASA, ECA, R-Raman, ABS, FL, XAS/XES, NRVS
   Peter Pinski           : DLPNO-MP2, DLPNO-MP2 Gradient
   Christoph Reimann      : Effective Core Potentials
   Marius Retegan         : Local ZFS, SOC
   Christoph Riplinger    : Optimizer, TS searches, QM/MM, DLPNO-CCSD(T), (RO)-DLPNO pert. Triples
   Tobias Risthaus        : Range-separated hybrids, TD-DFT gradient, RPA, STAB
   Michael Roemelt        : Original ROCIS implementation
   Masaaki Saitow         : Open-shell DLPNO-CCSD energy and density
   Barbara Sandhoefer     : DKH picture change effects
   Avijit Sen             : IP-ROCIS
   Kantharuban Sivalingam : CASSCF convergence, NEVPT2, FIC-MRCI
   Bernardo de Souza      : ESD, SOC TD-DFT
   Georgi Stoychev        : AutoAux, RI-MP2 NMR, DLPNO-MP2 response
   Willem Van den Heuvel  : Paramagnetic NMR
   Boris Wezisla          : Elementary symmetry handling
   Frank Wennmohs         : Technical directorship


 We gratefully acknowledge several colleagues who have allowed us to
 interface, adapt or use parts of their codes:
   Stefan Grimme, W. Hujo, H. Kruse, P. Pracht,  : VdW corrections, initial TS optimization,
                  C. Bannwarth, S. Ehlert          DFT functionals, gCP, sTDA/sTD-DF
   Ed Valeev, F. Pavosevic, A. Kumar             : LibInt (2-el integral package), F12 methods
   Garnet Chan, S. Sharma, J. Yang, R. Olivares  : DMRG
   Ulf Ekstrom                                   : XCFun DFT Library
   Mihaly Kallay                                 : mrcc  (arbitrary order and MRCC methods)
   Jiri Pittner, Ondrej Demel                    : Mk-CCSD
   Frank Weinhold                                : gennbo (NPA and NBO analysis)
   Christopher J. Cramer and Donald G. Truhlar   : smd solvation model
   Lars Goerigk                                  : TD-DFT with DH, B97 family of functionals
   V. Asgeirsson, H. Jonsson                     : NEB implementation
   FAccTs GmbH                                   : IRC, NEB, NEB-TS, DLPNO-Multilevel, CI-OPT
                                                   MM, QMMM, 2- and 3-layer-ONIOM, Crystal-QMMM,
                                                   LR-CPCM, SF, NACMEs, symmetry and pop. for TD-DFT,
                                                   nearIR, NL-DFT gradient (VV10), updates on ESD,
                                                   ML-optimized integration grids
   S Lehtola, MJT Oliveira, MAL Marques          : LibXC Library
   Liviu Ungur et al                             : ANISO software


 Your calculation uses the libint2 library for the computation of 2-el integrals
 For citations please refer to: http://libint.valeyev.net

 Your ORCA version has been built with support for libXC version: 5.1.0
 For citations please refer to: https://tddft.org/programs/libxc/

 This ORCA versions uses:
   CBLAS   interface :  Fast vector & matrix operations
   LAPACKE interface :  Fast linear algebra routines
   SCALAPACK package :  Parallel linear algebra routines
   Shared memory     :  Shared parallel matrices
   BLAS/LAPACK       :  OpenBLAS 0.3.15  USE64BITINT DYNAMIC_ARCH NO_AFFINITY Sandybridge SINGLE_THREADED
        Core in use  :  Sandybridge
   Copyright (c) 2011-2014, The OpenBLAS Project


================================================================================

----- Orbital basis set information -----
Your calculation utilizes the basis: cc-pVDZ 
       H, B-Ne : Obtained from the ccRepo (grant-hill.group.shef.ac.uk/ccrepo) Feb. 2017
                 T. H. Dunning, Jr., J. Chem. Phys. 90, 1007 (1989)
            He : Obtained from the ccRepo (grant-hill.group.shef.ac.uk/ccrepo) Feb. 2017
                 D. E. Woon, T. H. Dunning, Jr., J. Chem. Phys. 100, 2975 (1994)
  Li-Be, Na-Mg : Obtained from the ccRepo (grant-hill.group.shef.ac.uk/ccrepo) Feb. 2017
                 B. P. Prascher, D. E. Woon, K. A. Peterson, T. H. Dunning, Jr., A. K. Wilson, Theor. Chem. Acc. 128, 69 (2011)
         Al-Ar : Obtained from the ccRepo (grant-hill.group.shef.ac.uk/ccrepo) Feb. 2017
                 D. E. Woon, T. H. Dunning, Jr., J. Chem. Phys. 98, 1358 (1993)
            Ca : Obtained from the Peterson Research Group Website (tyr0.chem.wsu.edu/~kipeters) Feb. 2017
                 J. Koput, K. A. Peterson, J. Phys. Chem. 106, 9595 (2002)
         Sc-Zn : Obtained from the ccRepo (grant-hill.group.shef.ac.uk/ccrepo) Feb. 2017
                 N. B. Balabanov, K. A. Peterson, J. Chem. Phys. 123, 064107 (2005)
                 N. B. Balabanov, K. A. Peterson, J. Chem. Phys. 125, 074110 (2006)
         Ga-Kr : Obtained from the ccRepo (grant-hill.group.shef.ac.uk/ccrepo) Feb. 2017
                 A. K. Wilson, D. E. Woon, K. A. Peterson, T. H. Dunning, Jr., J. Chem. Phys. 110, 7667 (1999)

================================================================================
                                        WARNINGS
                       Please study these warnings very carefully!
================================================================================


WARNING: No MP2 level density has been requested!
         To caclulate MP2 level properties use
         %mp2 Density relaxed end
         or
         %mp2 Density unrelaxed end

WARNING: Post HF methods need fully converged wavefunctions
  ===> : Setting SCFConvForced true
         You can overwrite this default with %scf ConvForced false 


INFO   : the flag for use of the SHARK integral package has been found!

================================================================================
                                       INPUT FILE
================================================================================
NAME = /scratch/allen/tmpyp4_amber_gaff2/2.Mdgx/conf11/conf11/Conf133.orca
|  1> ! PAL2
|  2> ! mp2 cc-pvdz TightSCF  NoKeepInts
|  3> 
|  4> %scf
|  5>   MaxCore 2000
|  6> end
|  7> %mp2
|  8>   MaxCore 2000
|  9> end
| 10> * xyz 0 1
| 11>    C       -4.62800         5.42300        -0.80000
| 12>    C        1.47400         4.04100         0.05700
| 13>    C       -2.80200         4.09300         0.04900
| 14>    C       -2.54300         5.12500         0.96500
| 15>    C       -3.32900         6.26000         0.97100
| 16>    C       -5.19900         7.61100         0.15200
| 17>    C        0.13200         4.30700         0.06100
| 18>    C       -0.56900         3.05600         0.04700
| 19>    C        1.64900         2.61800         0.02300
| 20>    C       -3.87400         4.26700        -0.84000
| 21>    N       -4.35200         6.39900         0.09500
| 22>    N        0.38800         2.06700         0.02500
| 23>    N       -2.01000         0.39500        -0.07500
| 24>    N       -0.38800        -2.07400        -0.02700
| 25>    N        2.01000        -0.40100         0.06500
| 26>    C       -1.96000         2.86100         0.02400
| 27>    C       -2.62300         1.61500        -0.01800
| 28>    C       -5.57300        -4.32900         1.06600
| 29>    C       -4.07300         1.47100         0.05600
| 30>    C       -4.10600        -2.75600        -0.02600
| 31>    C       -4.99500        -2.75700        -1.11100
| 32>    C       -6.13200        -3.54200        -1.07600
| 33>    C       -7.65100        -5.11300         0.04000
| 34>    C       -4.32400         0.14100         0.03700
| 35>    C       -3.02500        -0.52000        -0.04800
| 36>    C       -4.42200        -3.56600         1.07500
| 37>    N       -6.40700        -4.31300         0.00100
| 38>    C       -2.86700        -1.92200        -0.04000
| 39>    C       -1.65000        -2.62400        -0.02700
| 40>    C        3.56800        -6.14200        -1.04000
| 41>    C       -1.47600        -4.04900        -0.03400
| 42>    C        2.80300        -4.09900        -0.00800
| 43>    C        3.65700        -4.38400         1.06900
| 44>    C        4.42700        -5.53000         1.05900
| 45>    C        5.24500        -7.58800         0.01400
| 46>    C       -0.13400        -4.31500        -0.02200
| 47>    C        0.56800        -3.06400        -0.02700
| 48>    C        2.77500        -5.01200        -1.07400
| 49>    N        4.37600        -6.39100         0.01700
| 50>    C        1.95900        -2.86900        -0.00900
| 51>    C        2.62100        -1.62200         0.00900
| 52>    C        5.54300         4.33900        -1.13000
| 53>    C        4.07000        -1.47900        -0.09400
| 54>    C        4.10400         2.75100        -0.02100
| 55>    C        5.02700         2.72900         1.03600
| 56>    C        6.16600         3.50900         0.97800
| 57>    C        7.61900         5.15300        -0.11500
| 58>    C        4.32100        -0.14800        -0.09200
| 59>    C        3.02500         0.51400         0.01500
| 60>    C        4.38700         3.58200        -1.11500
| 61>    C        2.86600         1.91600         0.01300
| 62>    N        6.41300         4.29600        -0.09500
| 63>    H       -5.45500         5.60500        -1.47400
| 64>    H        2.27400         4.76600         0.08100
| 65>    H       -1.73600         5.04500         1.68300
| 66>    H       -3.17400         7.07700         1.66300
| 67>    H       -5.98900         7.45800         0.89000
| 68>    H       -4.57800         8.46000         0.43800
| 69>    H       -5.63400         7.78100        -0.83200
| 70>    H       -0.33200         5.28200         0.06900
| 71>    H       -4.11500         3.51200        -1.58100
| 72>    H        0.18200         1.07200         0.00500
| 73>    H       -0.18300        -1.08000        -0.02100
| 74>    H       -5.86400        -4.96200         1.89500
| 75>    H       -4.79400         2.27200         0.13900
| 76>    H       -4.80000        -2.16000        -1.99400
| 77>    H       -6.84100        -3.58200        -1.89300
| 78>    H       -8.42800        -4.53600         0.54600
| 79>    H       -7.95600        -5.33700        -0.98100
| 80>    H       -7.45600        -6.03700         0.58400
| 81>    H       -5.28700        -0.34400         0.10000
| 82>    H       -3.78000        -3.60100         1.94700
| 83>    H        3.58700        -6.86800        -1.84300
| 84>    H       -2.27600        -4.77400        -0.05000
| 85>    H        3.71400        -3.72400         1.92600
| 86>    H        5.09200        -5.79500         1.87100
| 87>    H        6.20500        -7.32900        -0.43900
| 88>    H        5.39300        -7.91700         1.04200
| 89>    H        4.75900        -8.37300        -0.56400
| 90>    H        0.32900        -5.29000        -0.00800
| 91>    H        2.14600        -4.84200        -1.94000
| 92>    H        5.80800         4.98600        -1.95600
| 93>    H        4.78800        -2.28100        -0.18500
| 94>    H        4.86000         2.11400         1.91200
| 95>    H        6.90100         3.53100         1.77200
| 96>    H        7.38300         6.10900         0.35600
| 97>    H        8.41400         4.65200         0.43500
| 98>    H        7.92100         5.31000        -1.15000
| 99>    H        5.28300         0.33600        -0.17900
|100>    H        3.72000         3.63200        -1.96700
|101> *
|102> 
|103>                          ****END OF INPUT****
================================================================================

                       ****************************
                       * Single Point Calculation *
                       ****************************

---------------------------------
CARTESIAN COORDINATES (ANGSTROEM)
---------------------------------
  C     -4.628000    5.423000   -0.800000
  C      1.474000    4.041000    0.057000
  C     -2.802000    4.093000    0.049000
  C     -2.543000    5.125000    0.965000
  C     -3.329000    6.260000    0.971000
  C     -5.199000    7.611000    0.152000
  C      0.132000    4.307000    0.061000
  C     -0.569000    3.056000    0.047000
  C      1.649000    2.618000    0.023000
  C     -3.874000    4.267000   -0.840000
  N     -4.352000    6.399000    0.095000
  N      0.388000    2.067000    0.025000
  N     -2.010000    0.395000   -0.075000
  N     -0.388000   -2.074000   -0.027000
  N      2.010000   -0.401000    0.065000
  C     -1.960000    2.861000    0.024000
  C     -2.623000    1.615000   -0.018000
  C     -5.573000   -4.329000    1.066000
  C     -4.073000    1.471000    0.056000
  C     -4.106000   -2.756000   -0.026000
  C     -4.995000   -2.757000   -1.111000
  C     -6.132000   -3.542000   -1.076000
  C     -7.651000   -5.113000    0.040000
  C     -4.324000    0.141000    0.037000
  C     -3.025000   -0.520000   -0.048000
  C     -4.422000   -3.566000    1.075000
  N     -6.407000   -4.313000    0.001000
  C     -2.867000   -1.922000   -0.040000
  C     -1.650000   -2.624000   -0.027000
  C      3.568000   -6.142000   -1.040000
  C     -1.476000   -4.049000   -0.034000
  C      2.803000   -4.099000   -0.008000
  C      3.657000   -4.384000    1.069000
  C      4.427000   -5.530000    1.059000
  C      5.245000   -7.588000    0.014000
  C     -0.134000   -4.315000   -0.022000
  C      0.568000   -3.064000   -0.027000
  C      2.775000   -5.012000   -1.074000
  N      4.376000   -6.391000    0.017000
  C      1.959000   -2.869000   -0.009000
  C      2.621000   -1.622000    0.009000
  C      5.543000    4.339000   -1.130000
  C      4.070000   -1.479000   -0.094000
  C      4.104000    2.751000   -0.021000
  C      5.027000    2.729000    1.036000
  C      6.166000    3.509000    0.978000
  C      7.619000    5.153000   -0.115000
  C      4.321000   -0.148000   -0.092000
  C      3.025000    0.514000    0.015000
  C      4.387000    3.582000   -1.115000
  C      2.866000    1.916000    0.013000
  N      6.413000    4.296000   -0.095000
  H     -5.455000    5.605000   -1.474000
  H      2.274000    4.766000    0.081000
  H     -1.736000    5.045000    1.683000
  H     -3.174000    7.077000    1.663000
  H     -5.989000    7.458000    0.890000
  H     -4.578000    8.460000    0.438000
  H     -5.634000    7.781000   -0.832000
  H     -0.332000    5.282000    0.069000
  H     -4.115000    3.512000   -1.581000
  H      0.182000    1.072000    0.005000
  H     -0.183000   -1.080000   -0.021000
  H     -5.864000   -4.962000    1.895000
  H     -4.794000    2.272000    0.139000
  H     -4.800000   -2.160000   -1.994000
  H     -6.841000   -3.582000   -1.893000
  H     -8.428000   -4.536000    0.546000
  H     -7.956000   -5.337000   -0.981000
  H     -7.456000   -6.037000    0.584000
  H     -5.287000   -0.344000    0.100000
  H     -3.780000   -3.601000    1.947000
  H      3.587000   -6.868000   -1.843000
  H     -2.276000   -4.774000   -0.050000
  H      3.714000   -3.724000    1.926000
  H      5.092000   -5.795000    1.871000
  H      6.205000   -7.329000   -0.439000
  H      5.393000   -7.917000    1.042000
  H      4.759000   -8.373000   -0.564000
  H      0.329000   -5.290000   -0.008000
  H      2.146000   -4.842000   -1.940000
  H      5.808000    4.986000   -1.956000
  H      4.788000   -2.281000   -0.185000
  H      4.860000    2.114000    1.912000
  H      6.901000    3.531000    1.772000
  H      7.383000    6.109000    0.356000
  H      8.414000    4.652000    0.435000
  H      7.921000    5.310000   -1.150000
  H      5.283000    0.336000   -0.179000
  H      3.720000    3.632000   -1.967000

----------------------------
CARTESIAN COORDINATES (A.U.)
----------------------------
  NO LB      ZA    FRAG     MASS         X           Y           Z
   0 C     6.0000    0    12.011   -8.745653   10.247985   -1.511781
   1 C     6.0000    0    12.011    2.785456    7.636383    0.107714
   2 C     6.0000    0    12.011   -5.295013    7.734649    0.092597
   3 C     6.0000    0    12.011   -4.805574    9.684846    1.823586
   4 C     6.0000    0    12.011   -6.290898   11.829686    1.834924
   5 C     6.0000    0    12.011   -9.824686   14.382706    0.287238
   6 C     6.0000    0    12.011    0.249444    8.139050    0.115273
   7 C     6.0000    0    12.011   -1.075254    5.775003    0.088817
   8 C     6.0000    0    12.011    3.116158    4.947303    0.043464
   9 C     6.0000    0    12.011   -7.320799    8.063461   -1.587370
  10 N     7.0000    0    14.007   -8.224088   12.092358    0.179524
  11 N     7.0000    0    14.007    0.733214    3.906064    0.047243
  12 N     7.0000    0    14.007   -3.798350    0.746442   -0.141729
  13 N     7.0000    0    14.007   -0.733214   -3.919292   -0.051023
  14 N     7.0000    0    14.007    3.798350   -0.757780    0.122832
  15 C     6.0000    0    12.011   -3.703863    5.406506    0.045353
  16 C     6.0000    0    12.011   -4.956752    3.051908   -0.034015
  17 C     6.0000    0    12.011  -10.531444   -8.180624    2.014448
  18 C     6.0000    0    12.011   -7.696855    2.779787    0.105825
  19 C     6.0000    0    12.011   -7.759216   -5.208085   -0.049133
  20 C     6.0000    0    12.011   -9.439182   -5.209975   -2.099486
  21 C     6.0000    0    12.011  -11.587801   -6.693410   -2.033345
  22 C     6.0000    0    12.011  -14.458295   -9.662170    0.075589
  23 C     6.0000    0    12.011   -8.171176    0.266451    0.069920
  24 C     6.0000    0    12.011   -5.716422   -0.982658   -0.090707
  25 C     6.0000    0    12.011   -8.356369   -6.738763    2.031456
  26 N     7.0000    0    14.007  -12.107475   -8.150389    0.001890
  27 C     6.0000    0    12.011   -5.417845   -3.632054   -0.075589
  28 C     6.0000    0    12.011   -3.118048   -4.958641   -0.051023
  29 C     6.0000    0    12.011    6.742543  -11.606698   -1.965315
  30 C     6.0000    0    12.011   -2.789236   -7.651501   -0.064251
  31 C     6.0000    0    12.011    5.296902   -7.745987   -0.015118
  32 C     6.0000    0    12.011    6.910728   -8.284559    2.020117
  33 C     6.0000    0    12.011    8.365818  -10.450186    2.001220
  34 C     6.0000    0    12.011    9.911614  -14.339242    0.026456
  35 C     6.0000    0    12.011   -0.253223   -8.154168   -0.041574
  36 C     6.0000    0    12.011    1.073364   -5.790121   -0.051023
  37 C     6.0000    0    12.011    5.243990   -9.471307   -2.029566
  38 N     7.0000    0    14.007    8.269442  -12.077240    0.032125
  39 C     6.0000    0    12.011    3.701973   -5.421624   -0.017008
  40 C     6.0000    0    12.011    4.952972   -3.065136    0.017008
  41 C     6.0000    0    12.011   10.474752    8.199522   -2.135391
  42 C     6.0000    0    12.011    7.691185   -2.794905   -0.177634
  43 C     6.0000    0    12.011    7.755436    5.198637   -0.039684
  44 C     6.0000    0    12.011    9.499653    5.157063    1.957756
  45 C     6.0000    0    12.011   11.652051    6.631049    1.848152
  46 C     6.0000    0    12.011   14.397823    9.737759   -0.217319
  47 C     6.0000    0    12.011    8.165507   -0.279679   -0.173855
  48 C     6.0000    0    12.011    5.716422    0.971319    0.028346
  49 C     6.0000    0    12.011    8.290229    6.768999   -2.107045
  50 C     6.0000    0    12.011    5.415955    3.620715    0.024566
  51 N     7.0000    0    14.007   12.118814    8.118263   -0.179524
  52 H     1.0000    0     1.008  -10.308456   10.591915   -2.785456
  53 H     1.0000    0     1.008    4.297237    9.006435    0.153068
  54 H     1.0000    0     1.008   -3.280565    9.533668    3.180409
  55 H     1.0000    0     1.008   -5.997991   13.373592    3.142615
  56 H     1.0000    0     1.008  -11.317570   14.093578    1.681856
  57 H     1.0000    0     1.008   -8.651166   15.987083    0.827700
  58 H     1.0000    0     1.008  -10.646717   14.703959   -1.572252
  59 H     1.0000    0     1.008   -0.627389    9.981533    0.130391
  60 H     1.0000    0     1.008   -7.776223    6.636718   -2.987657
  61 H     1.0000    0     1.008    0.343930    2.025786    0.009449
  62 H     1.0000    0     1.008   -0.345820   -2.040904   -0.039684
  63 H     1.0000    0     1.008  -11.081354   -9.376821    3.581031
  64 H     1.0000    0     1.008   -9.059347    4.293458    0.262672
  65 H     1.0000    0     1.008   -9.070685   -4.081808   -3.768114
  66 H     1.0000    0     1.008  -12.927616   -6.768999   -3.577252
  67 H     1.0000    0     1.008  -15.926612   -8.571798    1.031790
  68 H     1.0000    0     1.008  -15.034661  -10.085468   -1.853821
  69 H     1.0000    0     1.008  -14.089798  -11.408277    1.103600
  70 H     1.0000    0     1.008   -9.990982   -0.650066    0.188973
  71 H     1.0000    0     1.008   -7.143165   -6.804904    3.679297
  72 H     1.0000    0     1.008    6.778448  -12.978639   -3.482765
  73 H     1.0000    0     1.008   -4.301017   -9.021553   -0.094486
  74 H     1.0000    0     1.008    7.018443   -7.037340    3.639613
  75 H     1.0000    0     1.008    9.622485  -10.950963    3.535678
  76 H     1.0000    0     1.008   11.725751  -13.849803   -0.829590
  77 H     1.0000    0     1.008   10.191293  -14.960962    1.969095
  78 H     1.0000    0     1.008    8.993207  -15.822677   -1.065806
  79 H     1.0000    0     1.008    0.621720   -9.996651   -0.015118
  80 H     1.0000    0     1.008    4.055352   -9.150054   -3.666069
  81 H     1.0000    0     1.008   10.975529    9.422175   -3.696304
  82 H     1.0000    0     1.008    9.048009   -4.310465   -0.349599
  83 H     1.0000    0     1.008    9.184069    3.994881    3.613156
  84 H     1.0000    0     1.008   13.041000    6.672623    3.348595
  85 H     1.0000    0     1.008   13.951848   11.544337    0.672743
  86 H     1.0000    0     1.008   15.900156    8.791006    0.822031
  87 H     1.0000    0     1.008   14.968521   10.034446   -2.173185
  88 H     1.0000    0     1.008    9.983423    0.634948   -0.338261
  89 H     1.0000    0     1.008    7.029781    6.863485   -3.717091

--------------------------------
INTERNAL COORDINATES (ANGSTROEM)
--------------------------------
 C      0   0   0     0.000000000000     0.00000000     0.00000000
 C      1   0   0     6.314964528800     0.00000000     0.00000000
 C      1   2   0     2.413291735369    25.91051722     0.00000000
 C      3   1   2     1.403980412969    87.93747666    71.53557396
 C      4   3   1     1.380600231783   120.13915728     0.15259034
 C      5   4   3     2.448032271029   152.51515421     1.59477200
 C      2   1   3     1.368114030335     8.11561359   313.09536286
 C      7   2   4     1.434084376876   108.05010202   251.86706995
 C      2   1   3     1.434123425651   109.38055733    36.26781216
 C      1   2   7     1.380743278093    45.01196671   270.77694995
 N      1   2   7     1.352692500164    82.58554848    60.07831866
 N      9   2   1     1.376127174356   106.58526707   350.75142201
 N     12   9   2     2.925062050624   168.53581413   171.12065651
 N     13  12   9     2.954513327098    91.55032014    11.12112580
 N     14  13  12     2.925371258490    88.43092389   359.84326247
 C      8   7   2     1.404790019896   127.24786865   181.11170171
 C     13  12   9     1.366535034311    81.72106996   188.00453233
 C     14  13  12     5.758810554272    80.56209567   166.76250791
 C     17  13  12     1.459010623676   111.08861209   183.82872609
 C     18  14  13     2.412235892279    27.27532823    36.33507194
 C     20  18  14     1.402692767501    87.95206320   148.94598259
 C     21  20  18     1.382106725257   120.14573887   359.70382047
 C     18  14  13     2.446510985056   144.15733107    82.80075377
 C     19  17  13     1.353610726908   106.29293361   359.75308708
 C     13  12   9     1.366813447402   172.21332906    33.46711076
 C     18  14  13     1.380960173213    15.08449437   309.23336894
 N     22  21  20     1.352773077792   120.73759875     0.27865223
 C     25  13  17     1.410897586645   125.60330303   182.37774668
 C     14  13  12     1.376642291955    80.24689249   177.85461986
 C     14  13  12     5.764089607215   164.51507311   312.20821879
 C     29  14  13     1.435600919476   106.58649366   178.76395472
 C     30  14  13     2.413316804732    27.10625047    82.12560436
 C     32  30  14     1.403734305344    87.90059683   149.76154742
 C     33  32  30     1.380694028378   120.14881443   359.74174632
 C     34  33  32     2.448777858443   152.49203239     2.45173620
 C     31  29  14     1.368160809262   108.16950133     0.70383075
 C     14  13  12     1.376239804685   169.26375223   353.09862627
 C     30  14  13     1.380907310430    14.68948582   353.70041132
 N     34  33  32     1.352658863128   120.85575621     0.19603406
 C     37  14  29     1.404717053360   126.01551127   180.90772073
 C     15  14  13     1.366491126938    81.61824056   183.09049352
 C      2   1   3     4.249062720177   150.69994311   156.93985968
 C     41  15  14     1.459677704153   111.05201287   175.08990246
 C     42   2   1     2.412953791518    41.78584867   210.70100281
 C     44  42   2     1.403446472082    87.95153797   233.97558675
 C     45  44  42     1.381696421071   120.11137308     0.19721020
 C     42   2   1     2.450019795838   135.97209175   121.01585191
 C     43  41  15     1.354461516618   106.26758155     0.30894352
 C     15  14  13     1.367461151185   171.87382904   332.35056460
 C     42   2   1     1.381886391857    32.59078432   259.55628200
 C      9   2   1     1.404988612053   126.98745415   171.75575954
 N     42   2   1     1.352765315936   113.57249190   148.75244110
 H      1   2   7     1.082279538751   149.28008356   191.58139805
 H      2   1   3     1.079907866440   124.88385206   208.14187121
 H      4   3   1     1.083131109331   121.04067848   179.51953765
 H      5   4   3     1.081840099090   122.82408800   179.43364765
 H      6   5   4     1.091857591447   104.43211781   100.12305909
 H      6   5   4     1.090063300914    84.65658837   209.55470511
 H      6   5   4     1.089211182462   133.90335909   322.39041534
 H      7   2  54     1.079807853278   126.66122480     1.30600390
 H     10   1   2     1.084982488338   118.75633652   217.00627383
 H     12   9   2     1.016297692608   125.29023241   180.00180175
 H     14  13  12     1.014936943854    44.97226959   359.42596618
 H     18  14  13     1.082871645210   128.03556573   234.20482432
 H     19  17  13     1.080893611786   126.41830519   178.11313280
 H     21  20  18     1.083569563987   121.05669627   180.67006309
 H     22  21  20     1.082483256222   122.73097286   180.59748951
 H     23  18  14     1.092105306278   103.92715769   234.93429879
 H     23  18  14     1.088871893291   134.19244188    12.25587044
 H     23  18  14     1.089833473518    84.85857450   125.45241208
 H     24  19  17     1.080075460327   127.28078426   178.44613241
 H     26  18  14     1.083408048706   118.76995697   244.94906660
 H     30  14  13     1.082703098730   127.99711412   279.66882698
 H     31  29  14     1.079759695488   125.22293469   180.92530585
 H     33  32  30     1.083188810873   121.01964473   180.74284758
 H     34  33  32     1.082494341787   122.70821597   180.59516895
 H     35  34  33     1.092652735319   105.73575241    97.19771933
 H     35  34  33     1.089462711615    84.05943581   206.43036958
 H     35  34  33     1.089268102902   133.08365142   318.50306270
 H     36  31  29     1.079439669458   126.61599965   178.98859863
 H     38  30  73     1.083742127999   118.77264435   359.90091293
 H     42   2   1     1.082178358682   119.31790784     5.38397155
 H     43  41  15     1.080281907652   126.36969097   182.06329380
 H     45  44  42     1.083277434455   121.10105945   179.58025624
 H     46  45  44     1.082194529648   122.72144639   179.46906377
 H     47  42   2     1.091546151109   106.65128841   315.16475048
 H     47  42   2     1.088818625851   132.46019523    94.52397119
 H     47  42   2     1.089531091801    83.63838232   206.04504406
 H     48  43  41     1.080402239909   127.23657387   181.62955349
 H     50  42   2     1.083186502870   118.77001737    94.71359229

---------------------------
INTERNAL COORDINATES (A.U.)
---------------------------
 C      0   0   0     0.000000000000     0.00000000     0.00000000
 C      1   0   0    11.933553504859     0.00000000     0.00000000
 C      1   2   0     4.560460461103    25.91051722     0.00000000
 C      3   1   2     2.653138477901    87.93747666    71.53557396
 C      4   3   1     2.608956338499   120.13915728     0.15259034
 C      5   4   3     4.626110559246   152.51515421     1.59477200
 C      2   1   3     2.585360837309     8.11561359   313.09536286
 C      7   2   4     2.710026725231   108.05010202   251.86706995
 C      2   1   3     2.710100516721   109.38055733    36.26781216
 C      1   2   7     2.609226656849    45.01196671   270.77694995
 N      1   2   7     2.556218368719    82.58554848    60.07831866
 N      9   2   1     2.600503484979   106.58526707   350.75142201
 N     12   9   2     5.527566200405   168.53581413   171.12065651
 N     13  12   9     5.583221047236    91.55032014    11.12112580
 N     14  13  12     5.528150518591    88.43092389   359.84326247
 C      8   7   2     2.654668413270   127.24786865   181.11170171
 C     13  12   9     2.582376967257    81.72106996   188.00453233
 C     14  13  12    10.882574804710    80.56209567   166.76250791
 C     17  13  12     2.757130505230   111.08861209   183.82872609
 C     18  14  13     4.558465206823    27.27532823    36.33507194
 C     20  18  14     2.650705180609    87.95206320   148.94598259
 C     21  20  18     2.611803198586   120.14573887   359.70382047
 C     18  14  13     4.623235745386   144.15733107    82.80075377
 C     19  17  13     2.557953565794   106.29293361   359.75308708
 C     13  12   9     2.582903091751   172.21332906    33.46711076
 C     18  14  13     2.609636529225    15.08449437   309.23336894
 N     22  21  20     2.556370638369   120.73759875     0.27865223
 C     25  13  17     2.666210041769   125.60330303   182.37774668
 C     14  13  12     2.601476916169    80.24689249   177.85461986
 C     14  13  12    10.892550769017   164.51507311   312.20821879
 C     29  14  13     2.712892575415   106.58649366   178.76395472
 C     30  14  13     4.560507835333    27.10625047    82.12560436
 C     32  30  14     2.652673401891    87.90059683   149.76154742
 C     33  32  30     2.609133588376   120.14881443   359.74174632
 C     34  33  32     4.627519515267   152.49203239     2.45173620
 C     31  29  14     2.585449236669   108.16950133     0.70383075
 C     14  13  12     2.600716325456   169.26375223   353.09862627
 C     30  14  13     2.609536633043    14.68948582   353.70041132
 N     34  33  32     2.556154803934   120.85575621     0.19603406
 C     37  14  29     2.654530526499   126.01551127   180.90772073
 C     15  14  13     2.582293994346    81.61824056   183.09049352
 C      2   1   3     8.029564866989   150.69994311   156.93985968
 C     41  15  14     2.758391104639   111.05201287   175.08990246
 C     42   2   1     4.559821839776    41.78584867   210.70100281
 C     44  42   2     2.652129475853    87.95153797   233.97558675
 C     45  44  42     2.611027836043   120.11137308     0.19721020
 C     42   2   1     4.629866436820   135.97209175   121.01585191
 C     43  41  15     2.559561325344   106.26758155     0.30894352
 C     15  14  13     2.584127074516   171.87382904   332.35056460
 C     42   2   1     2.611386828803    32.59078432   259.55628200
 C      9   2   1     2.655043698059   126.98745415   171.75575954
 N     42   2   1     2.556355970587   113.57249190   148.75244110
 H      1   2   7     2.045211928587   149.28008356   191.58139805
 H      2   1   3     2.040730117440   124.88385206   208.14187121
 H      4   3   1     2.046821163765   121.04067848   179.51953765
 H      5   4   3     2.044381507975   122.82408800   179.43364765
 H      6   5   4     2.063311825077   104.43211781   100.12305909
 H      6   5   4     2.059921107366    84.65658837   209.55470511
 H      6   5   4     2.058310836857   133.90335909   322.39041534
 H      7   2  54     2.040541119952   126.66122480     1.30600390
 H     10   1   2     2.050319763059   118.75633652   217.00627383
 H     12   9   2     1.920524309565   125.29023241   180.00180175
 H     14  13  12     1.917952867083    44.97226959   359.42596618
 H     18  14  13     2.046330847636   128.03556573   234.20482432
 H     19  17  13     2.042592906181   126.41830519   178.11313280
 H     21  20  18     2.047649722989   121.05669627   180.67006309
 H     22  21  20     2.045596898814   122.73097286   180.59748951
 H     23  18  14     2.063779938267   103.92715769   234.93429879
 H     23  18  14     2.057669673245   134.19244188    12.25587044
 H     23  18  14     2.059486796529    84.85857450   125.45241208
 H     24  19  17     2.041046823986   127.28078426   178.44613241
 H     26  18  14     2.047344503340   118.76995697   244.94906660
 H     30  14  13     2.046012340948   127.99711412   279.66882698
 H     31  29  14     2.040450114918   125.22293469   180.92530585
 H     33  32  30     2.046930203877   121.01964473   180.74284758
 H     34  33  32     2.045617847496   122.70821597   180.59516895
 H     35  34  33     2.064814429233   105.73575241    97.19771933
 H     35  34  33     2.058786158072    84.05943581   206.43036958
 H     35  34  33     2.058418400901   133.08365142   318.50306270
 H     36  31  29     2.039845353366   126.61599965   178.98859863
 H     38  30  73     2.047975821711   118.77264435   359.90091293
 H     42   2   1     2.045020725966   119.31790784     5.38397155
 H     43  41  15     2.041436952892   126.36969097   182.06329380
 H     45  44  42     2.047097678177   121.10105945   179.58025624
 H     46  45  44     2.045051284662   122.72144639   179.46906377
 H     47  42   2     2.062723288131   106.65128841   315.16475048
 H     47  42   2     2.057569012371   132.46019523    94.52397119
 H     47  42   2     2.058915377895    83.63838232   206.04504406
 H     48  43  41     2.041664347903   127.23657387   181.62955349
 H     50  42   2     2.046925842384   118.77001737    94.71359229

---------------------
BASIS SET INFORMATION
---------------------
There are 3 groups of distinct atoms

 Group   1 Type C   : 17s4p1d contracted to 3s2p1d pattern {881/31/1}
 Group   2 Type N   : 17s4p1d contracted to 3s2p1d pattern {881/31/1}
 Group   3 Type H   : 4s1p contracted to 2s1p pattern {31/1}

Atom   0C    basis set group =>   1
Atom   1N    basis set group =>   2
Atom   2C    basis set group =>   1
Atom   3N    basis set group =>   2
Atom   4C    basis set group =>   1
Atom   5N    basis set group =>   2
Atom   6C    basis set group =>   1
Atom   7N    basis set group =>   2
Atom   8C    basis set group =>   1
Atom   9N    basis set group =>   2
Atom  10C    basis set group =>   1
Atom  11N    basis set group =>   2
Atom  12C    basis set group =>   1
Atom  13N    basis set group =>   2
Atom  14C    basis set group =>   1
Atom  15N    basis set group =>   2
Atom  16C    basis set group =>   1
Atom  17C    basis set group =>   1
Atom  18C    basis set group =>   1
Atom  19C    basis set group =>   1
Atom  20C    basis set group =>   1
Atom  21C    basis set group =>   1
Atom  22C    basis set group =>   1
Atom  23C    basis set group =>   1
Atom  24C    basis set group =>   1
Atom  25C    basis set group =>   1
Atom  26C    basis set group =>   1
Atom  27C    basis set group =>   1
Atom  28C    basis set group =>   1
Atom  29C    basis set group =>   1
Atom  30C    basis set group =>   1
Atom  31C    basis set group =>   1
Atom  32C    basis set group =>   1
Atom  33C    basis set group =>   1
Atom  34C    basis set group =>   1
Atom  35C    basis set group =>   1
Atom  36C    basis set group =>   1
Atom  37C    basis set group =>   1
Atom  38C    basis set group =>   1
Atom  39C    basis set group =>   1
Atom  40C    basis set group =>   1
Atom  41C    basis set group =>   1
Atom  42C    basis set group =>   1
Atom  43C    basis set group =>   1
Atom  44C    basis set group =>   1
Atom  45C    basis set group =>   1
Atom  46C    basis set group =>   1
Atom  47C    basis set group =>   1
Atom  48C    basis set group =>   1
Atom  49C    basis set group =>   1
Atom  50C    basis set group =>   1
Atom  51C    basis set group =>   1
Atom  52H    basis set group =>   3
Atom  53H    basis set group =>   3
Atom  54H    basis set group =>   3
Atom  55H    basis set group =>   3
Atom  56H    basis set group =>   3
Atom  57H    basis set group =>   3
Atom  58H    basis set group =>   3
Atom  59H    basis set group =>   3
Atom  60H    basis set group =>   3
Atom  61H    basis set group =>   3
Atom  62H    basis set group =>   3
Atom  63H    basis set group =>   3
Atom  64H    basis set group =>   3
Atom  65H    basis set group =>   3
Atom  66H    basis set group =>   3
Atom  67H    basis set group =>   3
Atom  68H    basis set group =>   3
Atom  69H    basis set group =>   3
Atom  70H    basis set group =>   3
Atom  71H    basis set group =>   3
Atom  72H    basis set group =>   3
Atom  73H    basis set group =>   3
Atom  74H    basis set group =>   3
Atom  75H    basis set group =>   3
Atom  76H    basis set group =>   3
Atom  77H    basis set group =>   3
Atom  78H    basis set group =>   3
Atom  79H    basis set group =>   3
Atom  80H    basis set group =>   3
Atom  81H    basis set group =>   3
Atom  82H    basis set group =>   3
Atom  83H    basis set group =>   3
Atom  84H    basis set group =>   3
Atom  85H    basis set group =>   3
Atom  86H    basis set group =>   3
Atom  87H    basis set group =>   3
Atom  88H    basis set group =>   3
Atom  89H    basis set group =>   3


           ************************************************************
           *        Program running with 16 parallel MPI-processes    *
           *              working on a common directory               *
           ************************************************************
------------------------------------------------------------------------------
                           ORCA GTO INTEGRAL CALCULATION
------------------------------------------------------------------------------
------------------------------------------------------------------------------
                   ___                                                        
                  /   \      - P O W E R E D   B Y -                         
                 /     \                                                     
                 |  |  |   _    _      __       _____    __    __             
                 |  |  |  | |  | |    /  \     |  _  \  |  |  /  |          
                  \  \/   | |  | |   /    \    | | | |  |  | /  /          
                 / \  \   | |__| |  /  /\  \   | |_| |  |  |/  /          
                |  |  |   |  __  | /  /__\  \  |    /   |      \           
                |  |  |   | |  | | |   __   |  |    \   |  |\   \          
                \     /   | |  | | |  |  |  |  | |\  \  |  | \   \       
                 \___/    |_|  |_| |__|  |__|  |_| \__\ |__|  \__/        
                                                                              
                      - O R C A' S   B I G   F R I E N D -                    
                                      &                                       
                       - I N T E G R A L  F E E D E R -                       
                                                                              
 v1 FN, 2020, v2 2021                                                         
------------------------------------------------------------------------------


Reading SHARK input file /scratch/allen/tmpyp4_amber_gaff2/conf1/conf1/Conf133.orca.SHARKINP.tmp ... ok
----------------------
SHARK INTEGRAL PACKAGE
----------------------

Number of atoms                             ...     90
Number of basis functions                   ...   1230
Number of shells                            ...    738
Maximum angular momentum                    ...      2
Integral batch strategy                     ... SHARK/LIBINT Hybrid
RI-J (if used) integral strategy            ... SPLIT-RIJ (Revised 2003 algorithm where possible)
Printlevel                                  ...      1
Contraction scheme used                     ... PARTIAL GENERAL contraction
Coulomb Range Separation                    ... NOT USED
Exchange Range Separation                   ... NOT USED
Finite Nucleus Model                        ... NOT USED
Auxiliary Coulomb fitting basis             ... NOT available
Auxiliary J/K fitting basis                 ... NOT available
Auxiliary Correlation fitting basis         ... NOT available
Auxiliary 'external' fitting basis          ... NOT available
Integral threshold                          ...     2.500000e-11
Primitive cut-off                           ...     2.500000e-12
Primitive pair pre-selection threshold      ...     2.500000e-12

Calculating pre-screening integrals         ... done (  0.1 sec) Dimension = 738
Calculating pre-screening integrals (ORCA)  ... done (  0.3 sec) Dimension = 426
Organizing shell pair data                  ... done (  0.8 sec)
Shell pair information
Total number of shell pairs                 ...    272691
Shell pairs after pre-screening             ...     71608
Total number of primitive shell pairs       ...    422091
Primitive shell pairs kept                  ...     92396
          la=0 lb=0:  29414 shell pairs
          la=1 lb=0:  25969 shell pairs
          la=1 lb=1:   4702 shell pairs
          la=2 lb=0:   7871 shell pairs
          la=2 lb=1:   3122 shell pairs
          la=2 lb=2:    530 shell pairs

Calculating one electron integrals          ... done (  0.3 sec)
Calculating Nuclear repulsion               ... done (  0.0 sec) ENN=   6227.032899752616 Eh

SHARK setup successfully completed in   2.1 seconds

Maximum memory used throughout the entire GTOINT-calculation: 99.0 MB


           ************************************************************
           *        Program running with 16 parallel MPI-processes    *
           *              working on a common directory               *
           ************************************************************
-------------------------------------------------------------------------------
                                 ORCA SCF
-------------------------------------------------------------------------------

------------
SCF SETTINGS
------------
Hamiltonian:
 Ab initio Hamiltonian  Method          .... Hartree-Fock(GTOs)


General Settings:
 Integral files         IntName         .... /scratch/allen/tmpyp4_amber_gaff2/conf1/conf1/Conf133.orca
 Hartree-Fock type      HFTyp           .... RHF
 Total Charge           Charge          ....    0
 Multiplicity           Mult            ....    1
 Number of Electrons    NEL             ....  358
 Basis Dimension        Dim             ....  918
 Nuclear Repulsion      ENuc            ....   6227.0328997526 Eh

Convergence Acceleration:
 DIIS                   CNVDIIS         .... on
   Start iteration      DIISMaxIt       ....    12
   Startup error        DIISStart       ....  0.200000
   # of expansion vecs  DIISMaxEq       ....     5
   Bias factor          DIISBfac        ....   1.050
   Max. coefficient     DIISMaxC        ....  10.000
 Trust-Rad. Augm. Hess. CNVTRAH         .... auto
   Auto Start mean grad. ratio tolernc. ....  1.125000
   Auto Start start iteration           ....    20
   Auto Start num. interpolation iter.  ....    10
   Max. Number of Micro iterations      ....    16
   Max. Number of Macro iterations      .... Maxiter - #DIIS iter
   Number of Davidson start vectors     ....     2
   Converg. threshold I  (grad. norm)   ....   1.000e-05
   Converg. threshold II (energy diff.) ....   1.000e-08
   Grad. Scal. Fac. for Micro threshold ....   0.100
   Minimum threshold for Micro iter.    ....   0.010
   NR start threshold (gradient norm)   ....   0.001
   Initial trust radius                 ....   0.400
   Minimum AH scaling param. (alpha)    ....   1.000
   Maximum AH scaling param. (alpha)    .... 1000.000
   Orbital update algorithm             .... Taylor
   White noise on init. David. guess    .... on
   Maximum white noise                  ....   0.010
   Quad. conv. algorithm                .... NR
 SOSCF                  CNVSOSCF        .... on
   Start iteration      SOSCFMaxIt      ....   150
   Startup grad/error   SOSCFStart      ....  0.003300
 Level Shifting         CNVShift        .... on
   Level shift para.    LevelShift      ....    0.2500
   Turn off err/grad.   ShiftErr        ....    0.0010
 Zerner damping         CNVZerner       .... off
 Static damping         CNVDamp         .... on
   Fraction old density DampFac         ....    0.7000
   Max. Damping (<1)    DampMax         ....    0.9800
   Min. Damping (>=0)   DampMin         ....    0.0000
   Turn off err/grad.   DampErr         ....    0.1000
 Fernandez-Rico         CNVRico         .... off

SCF Procedure:
 Maximum # iterations   MaxIter         ....   125
 SCF integral mode      SCFMode         .... Direct
   Integral package                     .... SHARK and LIBINT hybrid scheme
 Reset frequency        DirectResetFreq ....    20
 Integral Threshold     Thresh          ....  2.500e-11 Eh
 Primitive CutOff       TCut            ....  2.500e-12 Eh

Convergence Tolerance:
 Convergence Check Mode ConvCheckMode   .... Total+1el-Energy
 Convergence forced     ConvForced      .... 1
 Energy Change          TolE            ....  1.000e-08 Eh
 1-El. energy change                    ....  1.000e-05 Eh
 Orbital Gradient       TolG            ....  1.000e-05
 Orbital Rotation angle TolX            ....  1.000e-05
 DIIS Error             TolErr          ....  5.000e-07


Diagonalization of the overlap matrix:
Smallest eigenvalue                        ... 2.245e-04
Time for diagonalization                   ...    0.402 sec
Threshold for overlap eigenvalues          ... 1.000e-08
Number of eigenvalues below threshold      ... 0
Time for construction of square roots      ...    0.247 sec
Total time needed                          ...    0.655 sec

Time for model grid setup =    1.050 sec

------------------------------
INITIAL GUESS: MODEL POTENTIAL
------------------------------
Loading Hartree-Fock densities                     ... done
Calculating cut-offs                               ... done
Initializing the effective Hamiltonian             ... done
Setting up the integral package (SHARK)            ... done
Starting the Coulomb interaction                   ... done (   1.2 sec)
Reading the grid                                   ... done
Mapping shells                                     ... done
Starting the XC term evaluation                    ... done (   0.2 sec)
Transforming the Hamiltonian                       ... done (   0.2 sec)
Diagonalizing the Hamiltonian                      ... done (   0.3 sec)
Back transforming the eigenvectors                 ... done (   0.1 sec)
Now organizing SCF variables                       ... done
                      ------------------
                      INITIAL GUESS DONE (   3.1 sec)
                      ------------------
--------------
SCF ITERATIONS
--------------
ITER       Energy         Delta-E        Max-DP      RMS-DP      [F,P]     Damp
               ***  Starting incremental Fock matrix formation  ***
  0  -2121.6898054520   0.000000000000 0.06878953  0.00120709  0.2326384 0.7000
  1  -2122.3508035140  -0.660998062058 0.05215760  0.00098006  0.1440078 0.7000
                               ***Turning on DIIS***
  2  -2122.7613665439  -0.410563029827 0.11737247  0.00222288  0.0802394 0.0000
  3  -2117.8230796032   4.938286940622 0.03015734  0.00067405  0.0441301 0.0000
  4  -2123.4288889147  -5.605809311512 0.00886353  0.00022632  0.0072423 0.0000
  5  -2123.5994371610  -0.170548246249 0.00512354  0.00013342  0.0049872 0.0000
  6  -2123.5821784320   0.017258728996 0.00345574  0.00008614  0.0019437 0.0000
  7  -2123.6841952025  -0.102016770476 0.00292770  0.00006771  0.0015288 0.0000
  8  -2123.6987110286  -0.014515826173 0.00304023  0.00006338  0.0014202 0.0000
  9  -2123.6653682370   0.033342791694 0.00244300  0.00004352  0.0011246 0.0000
 10  -2123.6769287713  -0.011560534365 0.00500095  0.00008707  0.0008612 0.0000
                      *** Initiating the SOSCF procedure ***
                           *** Shutting down DIIS ***
                      *** Re-Reading the Fockian *** 
                      *** Removing any level shift *** 
ITER      Energy       Delta-E        Grad      Rot      Max-DP    RMS-DP
 11  -2123.56493430   0.1119944722  0.000248  0.000248  0.000266  0.000006
               *** Restarting incremental Fock matrix formation ***
 12  -2123.62943567  -0.0645013677  0.000855  0.005758  0.001194  0.000029
 13  -2123.62951197  -0.0000763039  0.000970  0.026343  0.005656  0.000109
 14  -2123.62962988  -0.0001179070  0.000428  0.001952  0.000530  0.000012
 15  -2123.62964455  -0.0000146711  0.000182  0.003771  0.000932  0.000017
 16  -2123.62965384  -0.0000092929  0.000152  0.004386  0.000737  0.000015
 17  -2123.62965812  -0.0000042733  0.000132  0.003079  0.000384  0.000010
 18  -2123.62966030  -0.0000021862  0.000074  0.001393  0.000285  0.000005
 19  -2123.62966134  -0.0000010397  0.000057  0.000485  0.000166  0.000003
 20  -2123.62966165  -0.0000003071  0.000026  0.000486  0.000119  0.000002
 21  -2123.62966180  -0.0000001569  0.000023  0.000220  0.000071  0.000001
 22  -2123.62966189  -0.0000000823  0.000015  0.000358  0.000099  0.000002
 23  -2123.62966194  -0.0000000570  0.000009  0.000114  0.000043  0.000001
 24  -2123.62966196  -0.0000000184  0.000005  0.000075  0.000024  0.000000
 25  -2123.62966197  -0.0000000099  0.000004  0.000044  0.000015  0.000000
                  ***Gradient check signals convergence***
              ***Rediagonalizing the Fockian in SOSCF/NRSCF***

               *****************************************************
               *                     SUCCESS                       *
               *           SCF CONVERGED AFTER  26 CYCLES          *
               *****************************************************


----------------
TOTAL SCF ENERGY
----------------

Total Energy       :        -2123.62966198 Eh          -57786.90093 eV

Components:
Nuclear Repulsion  :         6227.03289975 Eh          169446.17968 eV
Electronic Energy  :        -8350.66256173 Eh         -227233.08061 eV
One Electron Energy:       -15295.06980683 Eh         -416200.00864 eV
Two Electron Energy:         6944.40724510 Eh          188966.92803 eV

Virial components:
Potential Energy   :        -4245.65589285 Eh         -115530.17028 eV
Kinetic Energy     :         2122.02623087 Eh           57743.26935 eV
Virial Ratio       :            2.00075561


---------------
SCF CONVERGENCE
---------------

  Last Energy change         ...   -4.5748e-09  Tolerance :   1.0000e-08
  Last MAX-Density change    ...    1.0868e-05  Tolerance :   1.0000e-07
  Last RMS-Density change    ...    2.0025e-07  Tolerance :   5.0000e-09
  Last Orbital Gradient      ...    1.8010e-06  Tolerance :   1.0000e-05
  Last Orbital Rotation      ...    4.8414e-05  Tolerance :   1.0000e-05

             **** THE GBW FILE WAS UPDATED (/scratch/allen/tmpyp4_amber_gaff2/conf1/conf1/Conf133.orca.gbw) ****
             **** DENSITY /scratch/allen/tmpyp4_amber_gaff2/conf1/conf1/Conf133.orca.scfp WAS UPDATED ****
             **** ENERGY FILE WAS UPDATED (/scratch/allen/tmpyp4_amber_gaff2/conf1/conf1/Conf133.orca.en.tmp) ****
             **** THE GBW FILE WAS UPDATED (/scratch/allen/tmpyp4_amber_gaff2/conf1/conf1/Conf133.orca.gbw) ****
             **** DENSITY /scratch/allen/tmpyp4_amber_gaff2/conf1/conf1/Conf133.orca.scfp WAS UPDATED ****
----------------
ORBITAL ENERGIES
----------------

  NO   OCC          E(Eh)            E(eV) 
   0   2.0000     -15.657316      -426.0572 
   1   2.0000     -15.639098      -425.5615 
   2   2.0000     -15.628481      -425.2726 
   3   2.0000     -15.603962      -424.6054 
   4   2.0000     -15.522548      -422.3900 
   5   2.0000     -15.515726      -422.2044 
   6   2.0000     -15.448191      -420.3666 
   7   2.0000     -15.443669      -420.2436 
   8   2.0000     -11.314010      -307.8699 
   9   2.0000     -11.311220      -307.7940 
  10   2.0000     -11.308756      -307.7269 
  11   2.0000     -11.302452      -307.5554 
  12   2.0000     -11.296037      -307.3808 
  13   2.0000     -11.295904      -307.3772 
  14   2.0000     -11.292450      -307.2832 
  15   2.0000     -11.286947      -307.1335 
  16   2.0000     -11.284511      -307.0672 
  17   2.0000     -11.281583      -306.9875 
  18   2.0000     -11.266865      -306.5870 
  19   2.0000     -11.266828      -306.5860 
  20   2.0000     -11.260847      -306.4232 
  21   2.0000     -11.247469      -306.0592 
  22   2.0000     -11.246565      -306.0346 
  23   2.0000     -11.242579      -305.9261 
  24   2.0000     -11.234718      -305.7122 
  25   2.0000     -11.234131      -305.6963 
  26   2.0000     -11.233077      -305.6676 
  27   2.0000     -11.226862      -305.4985 
  28   2.0000     -11.226655      -305.4928 
  29   2.0000     -11.213477      -305.1342 
  30   2.0000     -11.208686      -305.0039 
  31   2.0000     -11.207989      -304.9849 
  32   2.0000     -11.206258      -304.9378 
  33   2.0000     -11.205256      -304.9105 
  34   2.0000     -11.191301      -304.5308 
  35   2.0000     -11.190903      -304.5199 
  36   2.0000     -11.181063      -304.2522 
  37   2.0000     -11.178211      -304.1746 
  38   2.0000     -11.177747      -304.1620 
  39   2.0000     -11.173882      -304.0568 
  40   2.0000     -11.167556      -303.8847 
  41   2.0000     -11.167099      -303.8722 
  42   2.0000     -11.165755      -303.8356 
  43   2.0000     -11.164970      -303.8143 
  44   2.0000     -11.164632      -303.8051 
  45   2.0000     -11.162374      -303.7436 
  46   2.0000     -11.150854      -303.4302 
  47   2.0000     -11.149870      -303.4034 
  48   2.0000     -11.147300      -303.3335 
  49   2.0000     -11.146188      -303.3032 
  50   2.0000     -11.137942      -303.0788 
  51   2.0000     -11.133210      -302.9500 
  52   2.0000      -1.341221       -36.4965 
  53   2.0000      -1.325599       -36.0714 
  54   2.0000      -1.316549       -35.8251 
  55   2.0000      -1.296322       -35.2747 
  56   2.0000      -1.222317       -33.2609 
  57   2.0000      -1.211172       -32.9577 
  58   2.0000      -1.165623       -31.7182 
  59   2.0000      -1.155619       -31.4460 
  60   2.0000      -1.127395       -30.6780 
  61   2.0000      -1.113733       -30.3062 
  62   2.0000      -1.106033       -30.0967 
  63   2.0000      -1.090039       -29.6615 
  64   2.0000      -1.064250       -28.9597 
  65   2.0000      -1.049514       -28.5587 
  66   2.0000      -1.041245       -28.3337 
  67   2.0000      -1.031314       -28.0635 
  68   2.0000      -1.023473       -27.8501 
  69   2.0000      -1.013106       -27.5680 
  70   2.0000      -1.009333       -27.4654 
  71   2.0000      -0.993747       -27.0412 
  72   2.0000      -0.986597       -26.8467 
  73   2.0000      -0.974857       -26.5272 
  74   2.0000      -0.973143       -26.4806 
  75   2.0000      -0.958752       -26.0890 
  76   2.0000      -0.950957       -25.8769 
  77   2.0000      -0.946906       -25.7666 
  78   2.0000      -0.937517       -25.5111 
  79   2.0000      -0.922147       -25.0929 
  80   2.0000      -0.897018       -24.4091 
  81   2.0000      -0.887873       -24.1602 
  82   2.0000      -0.876373       -23.8473 
  83   2.0000      -0.869228       -23.6529 
  84   2.0000      -0.863430       -23.4951 
  85   2.0000      -0.854665       -23.2566 
  86   2.0000      -0.846887       -23.0450 
  87   2.0000      -0.839826       -22.8528 
  88   2.0000      -0.821946       -22.3663 
  89   2.0000      -0.798780       -21.7359 
  90   2.0000      -0.795873       -21.6568 
  91   2.0000      -0.742310       -20.1993 
  92   2.0000      -0.735549       -20.0153 
  93   2.0000      -0.731160       -19.8959 
  94   2.0000      -0.722768       -19.6675 
  95   2.0000      -0.719465       -19.5776 
  96   2.0000      -0.713110       -19.4047 
  97   2.0000      -0.705259       -19.1911 
  98   2.0000      -0.700940       -19.0736 
  99   2.0000      -0.695669       -18.9301 
 100   2.0000      -0.691639       -18.8204 
 101   2.0000      -0.681499       -18.5445 
 102   2.0000      -0.678739       -18.4694 
 103   2.0000      -0.673959       -18.3394 
 104   2.0000      -0.670587       -18.2476 
 105   2.0000      -0.669507       -18.2182 
 106   2.0000      -0.664050       -18.0697 
 107   2.0000      -0.661588       -18.0027 
 108   2.0000      -0.657142       -17.8818 
 109   2.0000      -0.655143       -17.8274 
 110   2.0000      -0.650758       -17.7080 
 111   2.0000      -0.648077       -17.6351 
 112   2.0000      -0.643850       -17.5201 
 113   2.0000      -0.636825       -17.3289 
 114   2.0000      -0.632917       -17.2226 
 115   2.0000      -0.629731       -17.1358 
 116   2.0000      -0.622962       -16.9517 
 117   2.0000      -0.616281       -16.7699 
 118   2.0000      -0.613051       -16.6820 
 119   2.0000      -0.611354       -16.6358 
 120   2.0000      -0.608534       -16.5591 
 121   2.0000      -0.602128       -16.3847 
 122   2.0000      -0.596945       -16.2437 
 123   2.0000      -0.591641       -16.0994 
 124   2.0000      -0.589884       -16.0516 
 125   2.0000      -0.584794       -15.9130 
 126   2.0000      -0.578308       -15.7366 
 127   2.0000      -0.576058       -15.6753 
 128   2.0000      -0.564062       -15.3489 
 129   2.0000      -0.558692       -15.2028 
 130   2.0000      -0.553994       -15.0749 
 131   2.0000      -0.549512       -14.9530 
 132   2.0000      -0.542120       -14.7518 
 133   2.0000      -0.537881       -14.6365 
 134   2.0000      -0.534151       -14.5350 
 135   2.0000      -0.531251       -14.4561 
 136   2.0000      -0.525318       -14.2946 
 137   2.0000      -0.523332       -14.2406 
 138   2.0000      -0.517609       -14.0849 
 139   2.0000      -0.517434       -14.0801 
 140   2.0000      -0.509710       -13.8699 
 141   2.0000      -0.508403       -13.8344 
 142   2.0000      -0.507834       -13.8189 
 143   2.0000      -0.501659       -13.6508 
 144   2.0000      -0.500357       -13.6154 
 145   2.0000      -0.497624       -13.5410 
 146   2.0000      -0.493918       -13.4402 
 147   2.0000      -0.488437       -13.2911 
 148   2.0000      -0.487680       -13.2704 
 149   2.0000      -0.469321       -12.7709 
 150   2.0000      -0.462668       -12.5898 
 151   2.0000      -0.454567       -12.3694 
 152   2.0000      -0.448180       -12.1956 
 153   2.0000      -0.446880       -12.1602 
 154   2.0000      -0.446108       -12.1392 
 155   2.0000      -0.439786       -11.9672 
 156   2.0000      -0.434210       -11.8155 
 157   2.0000      -0.429655       -11.6915 
 158   2.0000      -0.397199       -10.8083 
 159   2.0000      -0.384570       -10.4647 
 160   2.0000      -0.379213       -10.3189 
 161   2.0000      -0.372601       -10.1390 
 162   2.0000      -0.370869       -10.0919 
 163   2.0000      -0.359952        -9.7948 
 164   2.0000      -0.353085        -9.6079 
 165   2.0000      -0.337480        -9.1833 
 166   2.0000      -0.336601        -9.1594 
 167   2.0000      -0.335640        -9.1332 
 168   2.0000      -0.328761        -8.9460 
 169   2.0000      -0.300716        -8.1829 
 170   2.0000      -0.299824        -8.1586 
 171   2.0000      -0.287589        -7.8257 
 172   2.0000      -0.285556        -7.7704 
 173   2.0000      -0.257943        -7.0190 
 174   2.0000      -0.246597        -6.7102 
 175   2.0000      -0.189049        -5.1443 
 176   2.0000      -0.179145        -4.8748 
 177   2.0000      -0.070118        -1.9080 
 178   2.0000      -0.056410        -1.5350 
 179   0.0000       0.029595         0.8053 
 180   0.0000       0.068922         1.8755 
 181   0.0000       0.092609         2.5200 
 182   0.0000       0.102409         2.7867 
 183   0.0000       0.121367         3.3026 
 184   0.0000       0.133904         3.6437 
 185   0.0000       0.141711         3.8562 
 186   0.0000       0.152682         4.1547 
 187   0.0000       0.158779         4.3206 
 188   0.0000       0.162287         4.4160 
 189   0.0000       0.162969         4.4346 
 190   0.0000       0.167755         4.5648 
 191   0.0000       0.179678         4.8893 
 192   0.0000       0.192298         5.2327 
 193   0.0000       0.195710         5.3255 
 194   0.0000       0.202103         5.4995 
 195   0.0000       0.205630         5.5955 
 196   0.0000       0.207855         5.6560 
 197   0.0000       0.210873         5.7381 
 198   0.0000       0.219483         5.9724 
 199   0.0000       0.224233         6.1017 
 200   0.0000       0.227508         6.1908 
 201   0.0000       0.237034         6.4500 
 202   0.0000       0.241774         6.5790 
 203   0.0000       0.245131         6.6704 
 204   0.0000       0.252952         6.8832 
 205   0.0000       0.253111         6.8875 
 206   0.0000       0.255060         6.9405 
 207   0.0000       0.259876         7.0716 
 208   0.0000       0.262542         7.1441 
 209   0.0000       0.263473         7.1695 
 210   0.0000       0.266694         7.2571 
 211   0.0000       0.270003         7.3472 
 212   0.0000       0.271220         7.3803 
 213   0.0000       0.274207         7.4616 
 214   0.0000       0.276376         7.5206 
 215   0.0000       0.278829         7.5873 
 216   0.0000       0.281592         7.6625 
 217   0.0000       0.282058         7.6752 
 218   0.0000       0.282763         7.6944 
 219   0.0000       0.288943         7.8625 
 220   0.0000       0.289906         7.8887 
 221   0.0000       0.292824         7.9682 
 222   0.0000       0.293714         7.9924 
 223   0.0000       0.296428         8.0662 
 224   0.0000       0.298184         8.1140 
 225   0.0000       0.300178         8.1682 
 226   0.0000       0.306217         8.3326 
 227   0.0000       0.307796         8.3756 
 228   0.0000       0.309950         8.4342 
 229   0.0000       0.314907         8.5691 
 230   0.0000       0.316553         8.6138 
 231   0.0000       0.322925         8.7872 
 232   0.0000       0.325012         8.8440 
 233   0.0000       0.330266         8.9870 
 234   0.0000       0.334414         9.0999 
 235   0.0000       0.341691         9.2979 
 236   0.0000       0.355187         9.6651 
 237   0.0000       0.383306        10.4303 
 238   0.0000       0.395009        10.7487 
 239   0.0000       0.398766        10.8510 
 240   0.0000       0.403706        10.9854 
 241   0.0000       0.415688        11.3114 
 242   0.0000       0.417987        11.3740 
 243   0.0000       0.424920        11.5627 
 244   0.0000       0.426279        11.5996 
 245   0.0000       0.431497        11.7416 
 246   0.0000       0.434253        11.8166 
 247   0.0000       0.438275        11.9261 
 248   0.0000       0.441294        12.0082 
 249   0.0000       0.443968        12.0810 
 250   0.0000       0.450645        12.2627 
 251   0.0000       0.457357        12.4453 
 252   0.0000       0.460610        12.5338 
 253   0.0000       0.461979        12.5711 
 254   0.0000       0.469824        12.7845 
 255   0.0000       0.474588        12.9142 
 256   0.0000       0.482889        13.1401 
 257   0.0000       0.484305        13.1786 
 258   0.0000       0.491329        13.3697 
 259   0.0000       0.497413        13.5353 
 260   0.0000       0.501282        13.6406 
 261   0.0000       0.503297        13.6954 
 262   0.0000       0.507551        13.8112 
 263   0.0000       0.509239        13.8571 
 264   0.0000       0.512053        13.9337 
 265   0.0000       0.515625        14.0309 
 266   0.0000       0.519223        14.1288 
 267   0.0000       0.523541        14.2463 
 268   0.0000       0.535626        14.5751 
 269   0.0000       0.537574        14.6281 
 270   0.0000       0.541184        14.7264 
 271   0.0000       0.545305        14.8385 
 272   0.0000       0.546577        14.8731 
 273   0.0000       0.554283        15.0828 
 274   0.0000       0.559576        15.2268 
 275   0.0000       0.564102        15.3500 
 276   0.0000       0.572619        15.5818 
 277   0.0000       0.576866        15.6973 
 278   0.0000       0.580283        15.7903 
 279   0.0000       0.583879        15.8881 
 280   0.0000       0.586410        15.9570 
 281   0.0000       0.590638        16.0721 
 282   0.0000       0.592861        16.1326 
 283   0.0000       0.597003        16.2453 
 284   0.0000       0.598767        16.2933 
 285   0.0000       0.599622        16.3165 
 286   0.0000       0.607953        16.5432 
 287   0.0000       0.611364        16.6361 
 288   0.0000       0.615039        16.7361 
 289   0.0000       0.615915        16.7599 
 290   0.0000       0.625190        17.0123 
 291   0.0000       0.627659        17.0795 
 292   0.0000       0.635372        17.2894 
 293   0.0000       0.636585        17.3224 
 294   0.0000       0.645791        17.5729 
 295   0.0000       0.650316        17.6960 
 296   0.0000       0.654944        17.8219 
 297   0.0000       0.658206        17.9107 
 298   0.0000       0.663846        18.0642 
 299   0.0000       0.666414        18.1341 
 300   0.0000       0.669115        18.2075 
 301   0.0000       0.671931        18.2842 
 302   0.0000       0.679059        18.4781 
 303   0.0000       0.682102        18.5610 
 304   0.0000       0.683805        18.6073 
 305   0.0000       0.687316        18.7028 
 306   0.0000       0.690509        18.7897 
 307   0.0000       0.692026        18.8310 
 308   0.0000       0.696234        18.9455 
 309   0.0000       0.697017        18.9668 
 310   0.0000       0.701250        19.0820 
 311   0.0000       0.704440        19.1688 
 312   0.0000       0.705912        19.2089 
 313   0.0000       0.709705        19.3120 
 314   0.0000       0.711511        19.3612 
 315   0.0000       0.713570        19.4172 
 316   0.0000       0.716643        19.5009 
 317   0.0000       0.717706        19.5298 
 318   0.0000       0.720544        19.6070 
 319   0.0000       0.724990        19.7280 
 320   0.0000       0.726905        19.7801 
 321   0.0000       0.729639        19.8545 
 322   0.0000       0.734408        19.9843 
 323   0.0000       0.736221        20.0336 
 324   0.0000       0.738930        20.1073 
 325   0.0000       0.740955        20.1624 
 326   0.0000       0.741353        20.1732 
 327   0.0000       0.743931        20.2434 
 328   0.0000       0.746941        20.3253 
 329   0.0000       0.750466        20.4212 
 330   0.0000       0.752612        20.4796 
 331   0.0000       0.754347        20.5268 
 332   0.0000       0.758139        20.6300 
 333   0.0000       0.763037        20.7633 
 334   0.0000       0.769082        20.9278 
 335   0.0000       0.774442        21.0736 
 336   0.0000       0.777729        21.1631 
 337   0.0000       0.779477        21.2107 
 338   0.0000       0.786561        21.4034 
 339   0.0000       0.788422        21.4541 
 340   0.0000       0.791312        21.5327 
 341   0.0000       0.791628        21.5413 
 342   0.0000       0.795232        21.6394 
 343   0.0000       0.800299        21.7772 
 344   0.0000       0.804749        21.8983 
 345   0.0000       0.806562        21.9477 
 346   0.0000       0.807600        21.9759 
 347   0.0000       0.809512        22.0279 
 348   0.0000       0.815470        22.1901 
 349   0.0000       0.816421        22.2159 
 350   0.0000       0.821249        22.3473 
 351   0.0000       0.824135        22.4259 
 352   0.0000       0.825980        22.4760 
 353   0.0000       0.828177        22.5358 
 354   0.0000       0.830038        22.5865 
 355   0.0000       0.831293        22.6206 
 356   0.0000       0.833975        22.6936 
 357   0.0000       0.834294        22.7023 
 358   0.0000       0.836760        22.7694 
 359   0.0000       0.839139        22.8341 
 360   0.0000       0.841356        22.8945 
 361   0.0000       0.842007        22.9122 
 362   0.0000       0.843584        22.9551 
 363   0.0000       0.844191        22.9716 
 364   0.0000       0.848745        23.0955 
 365   0.0000       0.850707        23.1489 
 366   0.0000       0.853293        23.2193 
 367   0.0000       0.855317        23.2744 
 368   0.0000       0.861882        23.4530 
 369   0.0000       0.862668        23.4744 
 370   0.0000       0.864722        23.5303 
 371   0.0000       0.871587        23.7171 
 372   0.0000       0.874903        23.8073 
 373   0.0000       0.876295        23.8452 
 374   0.0000       0.878857        23.9149 
 375   0.0000       0.883151        24.0317 
 376   0.0000       0.885264        24.0893 
 377   0.0000       0.890662        24.2361 
 378   0.0000       0.892215        24.2784 
 379   0.0000       0.892743        24.2928 
 380   0.0000       0.898028        24.4366 
 381   0.0000       0.898771        24.4568 
 382   0.0000       0.902047        24.5460 
 383   0.0000       0.903715        24.5913 
 384   0.0000       0.903928        24.5971 
 385   0.0000       0.905471        24.6391 
 386   0.0000       0.908655        24.7258 
 387   0.0000       0.910212        24.7681 
 388   0.0000       0.911004        24.7897 
 389   0.0000       0.913661        24.8620 
 390   0.0000       0.918457        24.9925 
 391   0.0000       0.921869        25.0853 
 392   0.0000       0.923340        25.1254 
 393   0.0000       0.924705        25.1625 
 394   0.0000       0.926998        25.2249 
 395   0.0000       0.930089        25.3090 
 396   0.0000       0.933270        25.3956 
 397   0.0000       0.934813        25.4375 
 398   0.0000       0.938823        25.5467 
 399   0.0000       0.941803        25.6278 
 400   0.0000       0.943202        25.6658 
 401   0.0000       0.948504        25.8101 
 402   0.0000       0.949330        25.8326 
 403   0.0000       0.955875        26.0107 
 404   0.0000       0.956459        26.0266 
 405   0.0000       0.958718        26.0880 
 406   0.0000       0.959589        26.1117 
 407   0.0000       0.963882        26.2286 
 408   0.0000       0.967554        26.3285 
 409   0.0000       0.972313        26.4580 
 410   0.0000       0.976506        26.5721 
 411   0.0000       0.980375        26.6774 
 412   0.0000       0.981752        26.7148 
 413   0.0000       0.985458        26.8157 
 414   0.0000       0.988089        26.8873 
 415   0.0000       0.993135        27.0246 
 416   0.0000       1.001291        27.2465 
 417   0.0000       1.002003        27.2659 
 418   0.0000       1.005767        27.3683 
 419   0.0000       1.015617        27.6363 
 420   0.0000       1.022000        27.8100 
 421   0.0000       1.027492        27.9595 
 422   0.0000       1.031696        28.0739 
 423   0.0000       1.040737        28.3199 
 424   0.0000       1.044898        28.4331 
 425   0.0000       1.050387        28.5825 
 426   0.0000       1.056484        28.7484 
 427   0.0000       1.062106        28.9014 
 428   0.0000       1.064022        28.9535 
 429   0.0000       1.070268        29.1235 
 430   0.0000       1.076838        29.3022 
 431   0.0000       1.082175        29.4475 
 432   0.0000       1.084416        29.5085 
 433   0.0000       1.088980        29.6327 
 434   0.0000       1.099976        29.9319 
 435   0.0000       1.103304        30.0224 
 436   0.0000       1.107020        30.1235 
 437   0.0000       1.109082        30.1797 
 438   0.0000       1.115336        30.3498 
 439   0.0000       1.116241        30.3745 
 440   0.0000       1.121859        30.5273 
 441   0.0000       1.123968        30.5847 
 442   0.0000       1.127697        30.6862 
 443   0.0000       1.129514        30.7356 
 444   0.0000       1.132778        30.8244 
 445   0.0000       1.133365        30.8404 
 446   0.0000       1.135925        30.9101 
 447   0.0000       1.141868        31.0718 
 448   0.0000       1.144939        31.1554 
 449   0.0000       1.147386        31.2220 
 450   0.0000       1.151034        31.3212 
 451   0.0000       1.152652        31.3653 
 452   0.0000       1.156231        31.4626 
 453   0.0000       1.157375        31.4938 
 454   0.0000       1.160558        31.5804 
 455   0.0000       1.169422        31.8216 
 456   0.0000       1.172708        31.9110 
 457   0.0000       1.177143        32.0317 
 458   0.0000       1.180182        32.1144 
 459   0.0000       1.186137        32.2764 
 460   0.0000       1.187676        32.3183 
 461   0.0000       1.192756        32.4565 
 462   0.0000       1.200937        32.6792 
 463   0.0000       1.202880        32.7320 
 464   0.0000       1.206705        32.8361 
 465   0.0000       1.208512        32.8853 
 466   0.0000       1.213556        33.0225 
 467   0.0000       1.214898        33.0591 
 468   0.0000       1.221668        33.2433 
 469   0.0000       1.229019        33.4433 
 470   0.0000       1.229458        33.4552 
 471   0.0000       1.232587        33.5404 
 472   0.0000       1.235030        33.6069 
 473   0.0000       1.236757        33.6539 
 474   0.0000       1.242055        33.7980 
 475   0.0000       1.247203        33.9381 
 476   0.0000       1.252097        34.0713 
 477   0.0000       1.252730        34.0885 
 478   0.0000       1.253091        34.0983 
 479   0.0000       1.255547        34.1652 
 480   0.0000       1.260062        34.2880 
 481   0.0000       1.264974        34.4217 
 482   0.0000       1.269779        34.5525 
 483   0.0000       1.271485        34.5989 
 484   0.0000       1.273563        34.6554 
 485   0.0000       1.276338        34.7309 
 486   0.0000       1.279721        34.8230 
 487   0.0000       1.283448        34.9244 
 488   0.0000       1.288159        35.0526 
 489   0.0000       1.291027        35.1306 
 490   0.0000       1.294137        35.2152 
 491   0.0000       1.298865        35.3439 
 492   0.0000       1.300592        35.3909 
 493   0.0000       1.306850        35.5612 
 494   0.0000       1.310911        35.6717 
 495   0.0000       1.314915        35.7806 
 496   0.0000       1.315888        35.8071 
 497   0.0000       1.323563        36.0160 
 498   0.0000       1.324919        36.0529 
 499   0.0000       1.329321        36.1727 
 500   0.0000       1.333574        36.2884 
 501   0.0000       1.336434        36.3662 
 502   0.0000       1.341138        36.4942 
 503   0.0000       1.348130        36.6845 
 504   0.0000       1.350615        36.7521 
 505   0.0000       1.351187        36.7677 
 506   0.0000       1.353120        36.8203 
 507   0.0000       1.359149        36.9843 
 508   0.0000       1.362024        37.0625 
 509   0.0000       1.363663        37.1072 
 510   0.0000       1.365693        37.1624 
 511   0.0000       1.366704        37.1899 
 512   0.0000       1.370456        37.2920 
[...]
      pz      :     0.022035  p :     0.079667
      px      :     0.043445
      py      :     0.014187
 77 H s       :     0.887076  s :     0.887076
      pz      :     0.047787  p :     0.079068
      px      :     0.015017
      py      :     0.016264
 78 H s       :     0.887499  s :     0.887499
      pz      :     0.025782  p :     0.079012
      px      :     0.020510
      py      :     0.032720
 79 H s       :     0.909568  s :     0.909568
      pz      :     0.021969  p :     0.086552
      px      :     0.021721
      py      :     0.042863
 80 H s       :     0.868054  s :     0.868054
      pz      :     0.039099  p :     0.084436
      px      :     0.030090
      py      :     0.015247
 81 H s       :     0.887189  s :     0.887189
      pz      :     0.037778  p :     0.083993
      px      :     0.016173
      py      :     0.030042
 82 H s       :     0.915739  s :     0.915739
      pz      :     0.022062  p :     0.086790
      px      :     0.031480
      py      :     0.033248
 83 H s       :     0.873344  s :     0.873344
      pz      :     0.039232  p :     0.084011
      px      :     0.015271
      py      :     0.029507
 84 H s       :     0.887209  s :     0.887209
      pz      :     0.035760  p :     0.083586
      px      :     0.031700
      py      :     0.016126
 85 H s       :     0.893560  s :     0.893560
      pz      :     0.022488  p :     0.079747
      px      :     0.014089
      py      :     0.043170
 86 H s       :     0.891054  s :     0.891054
      pz      :     0.024721  p :     0.078830
      px      :     0.032975
      py      :     0.021134
 87 H s       :     0.890149  s :     0.890149
      pz      :     0.047981  p :     0.078710
      px      :     0.015597
      py      :     0.015132
 88 H s       :     0.912364  s :     0.912364
      pz      :     0.021894  p :     0.087001
      px      :     0.042696
      py      :     0.022412
 89 H s       :     0.871763  s :     0.871763
      pz      :     0.037930  p :     0.083859
      px      :     0.030478
      py      :     0.015452


                      *****************************
                      * MAYER POPULATION ANALYSIS *
                      *****************************

  NA   - Mulliken gross atomic population
  ZA   - Total nuclear charge
  QA   - Mulliken gross atomic charge
  VA   - Mayer's total valence
  BVA  - Mayer's bonded valence
  FA   - Mayer's free valence

  ATOM       NA         ZA         QA         VA         BVA        FA
  0 C      5.7950     6.0000     0.2050     3.8364     3.8364    -0.0000
  1 N      7.4510     7.0000    -0.4510     3.3397     3.3397     0.0000
  2 C      6.0641     6.0000    -0.0641     3.9203     3.9203    -0.0000
  3 N      7.3362     7.0000    -0.3362     3.4540     3.4540    -0.0000
  4 C      6.0595     6.0000    -0.0595     3.9860     3.9860    -0.0000
  5 N      7.5609     7.0000    -0.5609     3.0916     3.0916    -0.0000
  6 C      6.0934     6.0000    -0.0934     4.0066     4.0066    -0.0000
  7 N      7.3393     7.0000    -0.3393     3.4371     3.4371    -0.0000
  8 C      5.7963     6.0000     0.2037     3.8370     3.8370    -0.0000
  9 N      7.5628     7.0000    -0.5628     3.0812     3.0812    -0.0000
 10 C      5.8821     6.0000     0.1179     3.9038     3.9038    -0.0000
 11 N      7.4374     7.0000    -0.4374     3.3841     3.3841    -0.0000
 12 C      6.0769     6.0000    -0.0769     3.9169     3.9169    -0.0000
 13 N      7.4347     7.0000    -0.4347     3.4036     3.4036    -0.0000
 14 C      5.7663     6.0000     0.2337     3.7828     3.7828     0.0000
 15 N      7.4412     7.0000    -0.4412     3.3701     3.3701     0.0000
 16 C      5.7692     6.0000     0.2308     3.7838     3.7838    -0.0000
 17 C      6.0922     6.0000    -0.0922     4.0066     4.0066    -0.0000
 18 C      6.1888     6.0000    -0.1888     3.7672     3.7672    -0.0000
 19 C      5.7791     6.0000     0.2209     3.8671     3.8671    -0.0000
 20 C      5.7878     6.0000     0.2122     3.8268     3.8268    -0.0000
 21 C      6.0851     6.0000    -0.0851     3.9091     3.9091    -0.0000
 22 C      6.0873     6.0000    -0.0873     3.9824     3.9824    -0.0000
 23 C      6.0441     6.0000    -0.0441     3.9912     3.9912    -0.0000
 24 C      5.7992     6.0000     0.2008     3.8221     3.8221    -0.0000
 25 C      5.8861     6.0000     0.1139     3.8896     3.8896     0.0000
 26 C      6.0737     6.0000    -0.0737     3.9053     3.9053     0.0000
 27 C      5.7843     6.0000     0.2157     3.8725     3.8725    -0.0000
 28 C      6.0567     6.0000    -0.0567     3.9883     3.9883    -0.0000
 29 C      6.1819     6.0000    -0.1819     3.7404     3.7404    -0.0000
 30 C      5.7593     6.0000     0.2407     3.7956     3.7956     0.0000
 31 C      5.7786     6.0000     0.2214     3.8227     3.8227    -0.0000
 32 C      6.0630     6.0000    -0.0630     3.9209     3.9209     0.0000
 33 C      6.0711     6.0000    -0.0711     3.9790     3.9790    -0.0000
 34 C      6.0496     6.0000    -0.0496     3.9881     3.9881    -0.0000
 35 C      5.7848     6.0000     0.2152     3.8209     3.8209    -0.0000
 36 C      5.8888     6.0000     0.1112     3.8832     3.8832    -0.0000
 37 C      6.0654     6.0000    -0.0654     3.9176     3.9176    -0.0000
 38 C      5.7650     6.0000     0.2350     3.8010     3.8010    -0.0000
 39 C      6.0604     6.0000    -0.0604     3.9871     3.9871     0.0000
 40 C      6.1845     6.0000    -0.1845     3.7341     3.7341    -0.0000
 41 C      5.7778     6.0000     0.2222     3.8835     3.8835    -0.0000
 42 C      5.8005     6.0000     0.1995     3.8269     3.8269     0.0000
 43 C      6.0733     6.0000    -0.0733     3.9014     3.9014    -0.0000
 44 C      6.0904     6.0000    -0.0904     3.9856     3.9856    -0.0000
 45 C      6.0575     6.0000    -0.0575     3.9924     3.9924    -0.0000
 46 C      5.7932     6.0000     0.2068     3.8275     3.8275     0.0000
 47 C      5.8843     6.0000     0.1157     3.8939     3.8939     0.0000
 48 C      6.0712     6.0000    -0.0712     3.9067     3.9067    -0.0000
 49 C      5.7678     6.0000     0.2322     3.8897     3.8897    -0.0000
 50 C      6.0494     6.0000    -0.0494     3.9906     3.9906    -0.0000
 51 C      6.1917     6.0000    -0.1917     3.7369     3.7369    -0.0000
 52 H      0.9547     1.0000     0.0453     0.9858     0.9858    -0.0000
 53 H      1.0154     1.0000    -0.0154     0.9986     0.9986    -0.0000
 54 H      0.9522     1.0000     0.0478     1.0087     1.0087     0.0000
 55 H      0.9557     1.0000     0.0443     0.9864     0.9864     0.0000
 56 H      0.9473     1.0000     0.0527     0.9704     0.9704    -0.0000
 57 H      0.9488     1.0000     0.0512     0.9826     0.9826    -0.0000
 58 H      0.9497     1.0000     0.0503     0.9857     0.9857     0.0000
 59 H      1.0043     1.0000    -0.0043     1.0018     1.0018     0.0000
 60 H      0.9536     1.0000     0.0464     1.0116     1.0116    -0.0000
 61 H      0.8283     1.0000     0.1717     1.0421     1.0421     0.0000
 62 H      0.8256     1.0000     0.1744     1.0436     1.0436    -0.0000
 63 H      0.9430     1.0000     0.0570     0.9853     0.9853    -0.0000
 64 H      1.0116     1.0000    -0.0116     0.9967     0.9967     0.0000
 65 H      0.9530     1.0000     0.0470     1.0096     1.0096    -0.0000
 66 H      0.9426     1.0000     0.0574     0.9852     0.9852     0.0000
 67 H      0.9364     1.0000     0.0636     0.9720     0.9720     0.0000
 68 H      0.9418     1.0000     0.0582     0.9868     0.9868     0.0000
 69 H      0.9418     1.0000     0.0582     0.9829     0.9829     0.0000
 70 H      1.0267     1.0000    -0.0267     0.9931     0.9931     0.0000
 71 H      0.9526     1.0000     0.0474     1.0062     1.0062     0.0000
 72 H      0.9361     1.0000     0.0639     0.9843     0.9843     0.0000
 73 H      1.0109     1.0000    -0.0109     0.9997     0.9997    -0.0000
 74 H      0.9464     1.0000     0.0536     1.0101     1.0101    -0.0000
 75 H      0.9370     1.0000     0.0630     0.9848     0.9848    -0.0000
 76 H      0.9315     1.0000     0.0685     0.9719     0.9719    -0.0000
 77 H      0.9369     1.0000     0.0631     0.9853     0.9853     0.0000
 78 H      0.9378     1.0000     0.0622     0.9850     0.9850    -0.0000
 79 H      1.0147     1.0000    -0.0147     0.9986     0.9986    -0.0000
 80 H      0.9460     1.0000     0.0540     1.0071     1.0071    -0.0000
 81 H      0.9464     1.0000     0.0536     0.9856     0.9856    -0.0000
 82 H      1.0246     1.0000    -0.0246     0.9937     0.9937    -0.0000
 83 H      0.9583     1.0000     0.0417     1.0088     1.0088     0.0000
 84 H      0.9470     1.0000     0.0530     0.9854     0.9854     0.0000
 85 H      0.9406     1.0000     0.0594     0.9715     0.9715     0.0000
 86 H      0.9445     1.0000     0.0555     0.9839     0.9839     0.0000
 87 H      0.9433     1.0000     0.0567     0.9856     0.9856    -0.0000
 88 H      1.0182     1.0000    -0.0182     0.9957     0.9957    -0.0000
 89 H      0.9542     1.0000     0.0458     1.0069     1.0069     0.0000

  Mayer bond orders larger than 0.100000
B(  0-C ,  1-N ) :   1.0965 B(  0-C , 17-C ) :   1.6793 B(  0-C , 52-H ) :   0.9687 
B(  1-N ,  8-C ) :   1.0948 B(  1-N , 10-C ) :   0.9723 B(  2-C , 12-C ) :   1.5237 
B(  2-C , 16-C ) :   1.3391 B(  2-C , 53-H ) :   0.9771 B(  3-N , 14-C ) :   1.2125 
B(  3-N , 16-C ) :   1.1935 B(  3-N , 61-H ) :   0.8992 B(  4-C ,  6-C ) :   1.2285 
B(  4-C , 17-C ) :   1.2297 B(  4-C , 18-C ) :   1.3646 B(  5-N , 19-C ) :   1.4395 
B(  5-N , 27-C ) :   1.3903 B(  6-C ,  8-C ) :   1.6797 B(  6-C , 54-H ) :   0.9683 
B(  7-N , 30-C ) :   1.1934 B(  7-N , 38-C ) :   1.1967 B(  7-N , 62-H ) :   0.8974 
B(  8-C , 55-H ) :   0.9697 B(  9-N , 41-C ) :   1.3985 B(  9-N , 49-C ) :   1.4238 
B( 10-C , 56-H ) :   0.9765 B( 10-C , 57-H ) :   0.9829 B( 10-C , 58-H ) :   0.9833 
B( 11-N , 20-C ) :   1.1300 B( 11-N , 24-C ) :   1.1169 B( 11-N , 25-C ) :   0.9581 
B( 12-C , 14-C ) :   1.3418 B( 12-C , 59-H ) :   0.9753 B( 13-N , 31-C ) :   1.1433 
B( 13-N , 35-C ) :   1.1367 B( 13-N , 36-C ) :   0.9506 B( 14-C , 18-C ) :   1.1612 
B( 15-N , 42-C ) :   1.1101 B( 15-N , 46-C ) :   1.1182 B( 15-N , 47-C ) :   0.9625 
B( 16-C , 51-C ) :   1.1852 B( 17-C , 60-H ) :   0.9680 B( 18-C , 19-C ) :   1.1699 
B( 19-C , 21-C ) :   1.2292 B( 20-C , 28-C ) :   1.6234 B( 20-C , 63-H ) :   0.9701 
B( 21-C , 26-C ) :   1.6294 B( 21-C , 64-H ) :   0.9717 B( 22-C , 23-C ) :   1.2890 
B( 22-C , 28-C ) :   1.2714 B( 22-C , 29-C ) :   1.2215 B( 23-C , 24-C ) :   1.6163 
B( 23-C , 65-H ) :   0.9706 B( 24-C , 66-H ) :   0.9693 B( 25-C , 67-H ) :   0.9761 
B( 25-C , 68-H ) :   0.9828 B( 25-C , 69-H ) :   0.9822 B( 26-C , 27-C ) :   1.2237 
B( 26-C , 70-H ) :   0.9721 B( 27-C , 29-C ) :   1.2220 B( 28-C , 71-H ) :   0.9716 
B( 29-C , 30-C ) :   1.2295 B( 30-C , 32-C ) :   1.2943 B( 31-C , 39-C ) :   1.6096 
B( 31-C , 72-H ) :   0.9689 B( 32-C , 37-C ) :   1.5646 B( 32-C , 73-H ) :   0.9781 
B( 33-C , 34-C ) :   1.2923 B( 33-C , 39-C ) :   1.2850 B( 33-C , 40-C ) :   1.2109 
B( 34-C , 35-C ) :   1.6061 B( 34-C , 74-H ) :   0.9700 B( 35-C , 75-H ) :   0.9689 
B( 36-C , 76-H ) :   0.9765 B( 36-C , 77-H ) :   0.9818 B( 36-C , 78-H ) :   0.9827 
B( 37-C , 38-C ) :   1.2972 B( 37-C , 79-H ) :   0.9772 B( 38-C , 40-C ) :   1.2223 
B( 39-C , 80-H ) :   0.9711 B( 40-C , 41-C ) :   1.2343 B( 41-C , 43-C ) :   1.2013 
B( 42-C , 50-C ) :   1.6351 B( 42-C , 81-H ) :   0.9696 B( 43-C , 48-C ) :   1.6503 
B( 43-C , 82-H ) :   0.9728 B( 44-C , 45-C ) :   1.2653 B( 44-C , 50-C ) :   1.2683 
B( 44-C , 51-C ) :   1.2618 B( 45-C , 46-C ) :   1.6355 B( 45-C , 83-H ) :   0.9715 
B( 46-C , 84-H ) :   0.9702 B( 47-C , 85-H ) :   0.9762 B( 47-C , 86-H ) :   0.9829 
B( 47-C , 87-H ) :   0.9825 B( 48-C , 49-C ) :   1.2033 B( 48-C , 88-H ) :   0.9744 
B( 49-C , 51-C ) :   1.2269 B( 50-C , 89-H ) :   0.9711 

-------
TIMINGS
-------

Total SCF time: 0 days 0 hours 28 min 36 sec 

Total time                  ....    1716.279 sec
Sum of individual times     ....    1711.735 sec  ( 99.7%)

Fock matrix formation       ....    1689.545 sec  ( 98.4%)
Diagonalization             ....       6.883 sec  (  0.4%)
Density matrix formation    ....       0.668 sec  (  0.0%)
Population analysis         ....       0.529 sec  (  0.0%)
Initial guess               ....       2.065 sec  (  0.1%)
Orbital Transformation      ....       0.000 sec  (  0.0%)
Orbital Orthonormalization  ....       0.000 sec  (  0.0%)
DIIS solution               ....       3.530 sec  (  0.2%)
SOSCF solution              ....       7.464 sec  (  0.4%)

Maximum memory used throughout the entire SCF-calculation: 302.6 MB


           ************************************************************
           *        Program running with 16 parallel MPI-processes    *
           *              working on a common directory               *
           ************************************************************

------------------------------------------------------------------------------
                                ORCA  MP2 
------------------------------------------------------------------------------

Freezing NCore=104 chemical core electrons

----------
MP2 ENERGY (disk based algorithm)
----------

Dimension of the basis                    ...  918
Memory devoted to MP2                     ... 2000 MB   
Data format for buffers                   ... DOUBLE
Compression type for matrix containers    ... UNCOMPRESSED

-------------------------------
PARTIAL EXCHANGE TRANSFORMATION
-------------------------------

Transformation type                        ... one-operator
Generation of integrals (i,mue|j,nue)      ... ON
Generation of integrals (mue,kappa|nue,tau)... OFF
Generation of integrals (i,mue|a,nue)      ... OFF
Dimension of the basis                     ...  918
Number of internal MOs                     ...  127 (  52- 178)
Pair cutoff                                ... 2.500e-12 Eh
Number of AO pairs in the trafo            ... 421821
Total Number of distinct AO pairs          ... 421821
Memory devoted for trafo                   ... 2000.0 MB 
Max. Number of MO pairs treated together   ...  311      
Number Format for Storage                  ... Double (8 Byte)
Integral package used                      ... LIBINT

Starting integral evaluation:
    ... done with AO integral generation
Closing buffer AOK     (38.24 GB; CompressionRatio= 1.33)
Collecting buffer AOK 
Number of MO pairs included in the trafo   ... 8128
------------------------
SORTING OF (i,mue|j,nue)
------------------------

IBATCH = 1 of  2
IBATCH = 2 of  2
Closing buffer KAO     (51.03 GB; CompressionRatio= 1.00)
Collecting buffer KAO 
N(AO-Batches) Done                         ...  85612489 
N(AO-Batches) Skipped                      ...  82276242 
N(IJ)-pairs Skipped                        ...         0 
TOTAL TIME for half transformation         ...  3176.111 sec
AO-integral generation                     ...   209.126 sec
Half transformation                        ...   372.811 sec
K-integral sorting                         ...  2413.322 sec

Finished integral transformation - now doing MP2 part

OPERATOR COMBINATION   0   0: ij=( 52..178, 52..178)
Process 13:   Internal MO 156
Process 10:   Internal MO 132
Process  7:   Internal MO 108
Process  1:   Internal MO  60
Process  4:   Internal MO  84
Process  0:   Internal MO  54
Process  0:   Internal MO  57
Process  2:   Internal MO  69
Process  8:   Internal MO 117
Process  3:   Internal MO  78
Process  2:   Internal MO  72
Process  6:   Internal MO 102
Process 11:   Internal MO 141
Process  1:   Internal MO  63
Process 14:   Internal MO 165
Process  2:   Internal MO  75
Process  5:   Internal MO  93
Process  1:   Internal MO  66
Process  9:   Internal MO 126
Process  3:   Internal MO  81
Process  4:   Internal MO  87
Process 12:   Internal MO 150
Process  5:   Internal MO  96
Process 10:   Internal MO 135
Process 15:   Internal MO 174
Process  6:   Internal MO 105
Process  8:   Internal MO 120
Process  4:   Internal MO  90
Process 13:   Internal MO 159
Process  5:   Internal MO  99
Process  9:   Internal MO 129
Process  7:   Internal MO 111
Process 11:   Internal MO 144
Process 12:   Internal MO 153
Process 14:   Internal MO 168
Process  8:   Internal MO 123
Process 10:   Internal MO 138
Process  7:   Internal MO 114
Process 15:   Internal MO 177
Process 11:   Internal MO 147
Process 13:   Internal MO 162
Process 14:   Internal MO 171
-----------------------------------------------
 MP2 CORRELATION ENERGY   :     -7.285465258 Eh
-----------------------------------------------


-------
TIMINGS
-------
Total time                : 3736.767 sec
Integral trafo            : 3178.486 sec ( 85.1%)
K(i,j)                    :    5.874 sec (  0.2%)
T(i,j)                    :    0.133 sec (  0.0%)

---------------------------------------
MP2 TOTAL ENERGY:    -2130.915127235 Eh
---------------------------------------

Maximum memory used throughout the entire MP2-calculation: 2275.2 MB

-------------------------   --------------------
FINAL SINGLE POINT ENERGY     -2130.915127234632
-------------------------   --------------------


                            ***************************************
                            *     ORCA property calculations      *
                            ***************************************


  WARNING: The energy has been calculated at the MP2 level but the densities
           used in the property calculations are still SCF densities
           MP2 response densities have not been calculated 
           use %mp2 Density relaxed end
           or  %mp2 Density unrelaxed end

                                    ---------------------
                                    Active property flags
                                    ---------------------
   (+) Dipole Moment


------------------------------------------------------------------------------
                       ORCA ELECTRIC PROPERTIES CALCULATION
------------------------------------------------------------------------------

Dipole Moment Calculation                       ... on
Quadrupole Moment Calculation                   ... off
Polarizability Calculation                      ... off
GBWName                                         ... /scratch/allen/tmpyp4_amber_gaff2/conf1/conf1/Conf133.orca.gbw
Electron density                                ... /scratch/allen/tmpyp4_amber_gaff2/conf1/conf1/Conf133.orca.scfp
The origin for moment calculation is the CENTER OF MASS  = ( 0.003102, -0.001991  0.002706)

-------------
DIPOLE MOMENT
-------------
                                X             Y             Z
Electronic contribution:      1.11391      -2.73921      -0.21781
Nuclear contribution   :      0.01756       0.19511       0.22756
                        -----------------------------------------
Total Dipole Moment    :      1.13147      -2.54410       0.00975
                        -----------------------------------------
Magnitude (a.u.)       :      2.78438
Magnitude (Debye)      :      7.07733



--------------------
Rotational spectrum 
--------------------
 
Rotational constants in cm-1:     0.001499     0.001476     0.000762 
Rotational constants in MHz :    44.935069    44.247598    22.830259 

 Dipole components along the rotational axes: 
x,y,z [a.u.] :     1.853804    -2.077497     0.013909 
x,y,z [Debye]:     4.711995    -5.280577     0.035354 

 

Timings for individual modules:

Sum of individual times         ...     5471.450 sec (=  91.191 min)
GTO integral calculation        ...        3.198 sec (=   0.053 min)   0.1 %
SCF iterations                  ...     1717.364 sec (=  28.623 min)  31.4 %
MP2 module                      ...     3750.888 sec (=  62.515 min)  68.6 %
                             ****ORCA TERMINATED NORMALLY****
TOTAL RUN TIME: 0 days 1 hours 31 minutes 14 seconds 963 msec
# of primitive gaussian functions

