
                                 *****************
                                 * O   R   C   A *
                                 *****************

                                            #,                                       
                                            ###                                      
                                            ####                                     
                                            #####                                    
                                            ######                                   
                                           ########,                                 
                                     ,,################,,,,,                         
                               ,,#################################,,                 
                          ,,##########################################,,             
                       ,#########################################, ''#####,          
                    ,#############################################,,   '####,        
                  ,##################################################,,,,####,       
                ,###########''''           ''''###############################       
              ,#####''   ,,,,##########,,,,          '''####'''          '####       
            ,##' ,,,,###########################,,,                        '##       
           ' ,,###''''                  '''############,,,                           
         ,,##''                                '''############,,,,        ,,,,,,###''
      ,#''                                            '''#######################'''  
     '                                                          ''''####''''         
             ,#######,   #######,   ,#######,      ##                                
            ,#'     '#,  ##    ##  ,#'     '#,    #''#        ######   ,####,        
            ##       ##  ##   ,#'  ##            #'  '#       #        #'  '#        
            ##       ##  #######   ##           ,######,      #####,   #    #        
            '#,     ,#'  ##    ##  '#,     ,#' ,#      #,         ##   #,  ,#        
             '#######'   ##     ##  '#######'  #'      '#     #####' # '####'        



                  #######################################################
                  #                        -***-                        #
                  #          Department of theory and spectroscopy      #
                  #    Directorship and core code : Frank Neese         #
                  #        Max Planck Institute fuer Kohlenforschung    #
                  #                Kaiser Wilhelm Platz 1               #
                  #                 D-45470 Muelheim/Ruhr               #
                  #                      Germany                        #
                  #                                                     #
                  #                  All rights reserved                #
                  #                        -***-                        #
                  #######################################################


                         Program Version 5.0.4 -  RELEASE  -


 With contributions from (in alphabetic order):
   Daniel Aravena         : Magnetic Suceptibility
   Michael Atanasov       : Ab Initio Ligand Field Theory (pilot matlab implementation)
   Alexander A. Auer      : GIAO ZORA, VPT2 properties, NMR spectrum
   Ute Becker             : Parallelization
   Giovanni Bistoni       : ED, misc. LED, open-shell LED, HFLD
   Martin Brehm           : Molecular dynamics
   Dmytro Bykov           : SCF Hessian
   Vijay G. Chilkuri      : MRCI spin determinant printing, contributions to CSF-ICE
   Dipayan Datta          : RHF DLPNO-CCSD density
   Achintya Kumar Dutta   : EOM-CC, STEOM-CC
   Dmitry Ganyushin       : Spin-Orbit,Spin-Spin,Magnetic field MRCI
   Miquel Garcia          : C-PCM and meta-GGA Hessian, CC/C-PCM, Gaussian charge scheme
   Yang Guo               : DLPNO-NEVPT2, F12-NEVPT2, CIM, IAO-localization
   Andreas Hansen         : Spin unrestricted coupled pair/coupled cluster methods
   Benjamin Helmich-Paris : MC-RPA, TRAH-SCF, COSX integrals
   Lee Huntington         : MR-EOM, pCC
   Robert Izsak           : Overlap fitted RIJCOSX, COSX-SCS-MP3, EOM
   Marcus Kettner         : VPT2
   Christian Kollmar      : KDIIS, OOCD, Brueckner-CCSD(T), CCSD density, CASPT2, CASPT2-K
   Simone Kossmann        : Meta GGA functionals, TD-DFT gradient, OOMP2, MP2 Hessian
   Martin Krupicka        : Initial AUTO-CI
   Lucas Lang             : DCDCAS
   Marvin Lechner         : AUTO-CI (C++ implementation), FIC-MRCC
   Dagmar Lenk            : GEPOL surface, SMD
   Dimitrios Liakos       : Extrapolation schemes; Compound Job, initial MDCI parallelization
   Dimitrios Manganas     : Further ROCIS development; embedding schemes
   Dimitrios Pantazis     : SARC Basis sets
   Anastasios Papadopoulos: AUTO-CI, single reference methods and gradients
   Taras Petrenko         : DFT Hessian,TD-DFT gradient, ASA, ECA, R-Raman, ABS, FL, XAS/XES, NRVS
   Peter Pinski           : DLPNO-MP2, DLPNO-MP2 Gradient
   Christoph Reimann      : Effective Core Potentials
   Marius Retegan         : Local ZFS, SOC
   Christoph Riplinger    : Optimizer, TS searches, QM/MM, DLPNO-CCSD(T), (RO)-DLPNO pert. Triples
   Tobias Risthaus        : Range-separated hybrids, TD-DFT gradient, RPA, STAB
   Michael Roemelt        : Original ROCIS implementation
   Masaaki Saitow         : Open-shell DLPNO-CCSD energy and density
   Barbara Sandhoefer     : DKH picture change effects
   Avijit Sen             : IP-ROCIS
   Kantharuban Sivalingam : CASSCF convergence, NEVPT2, FIC-MRCI
   Bernardo de Souza      : ESD, SOC TD-DFT
   Georgi Stoychev        : AutoAux, RI-MP2 NMR, DLPNO-MP2 response
   Willem Van den Heuvel  : Paramagnetic NMR
   Boris Wezisla          : Elementary symmetry handling
   Frank Wennmohs         : Technical directorship


 We gratefully acknowledge several colleagues who have allowed us to
 interface, adapt or use parts of their codes:
   Stefan Grimme, W. Hujo, H. Kruse, P. Pracht,  : VdW corrections, initial TS optimization,
                  C. Bannwarth, S. Ehlert          DFT functionals, gCP, sTDA/sTD-DF
   Ed Valeev, F. Pavosevic, A. Kumar             : LibInt (2-el integral package), F12 methods
   Garnet Chan, S. Sharma, J. Yang, R. Olivares  : DMRG
   Ulf Ekstrom                                   : XCFun DFT Library
   Mihaly Kallay                                 : mrcc  (arbitrary order and MRCC methods)
   Jiri Pittner, Ondrej Demel                    : Mk-CCSD
   Frank Weinhold                                : gennbo (NPA and NBO analysis)
   Christopher J. Cramer and Donald G. Truhlar   : smd solvation model
   Lars Goerigk                                  : TD-DFT with DH, B97 family of functionals
   V. Asgeirsson, H. Jonsson                     : NEB implementation
   FAccTs GmbH                                   : IRC, NEB, NEB-TS, DLPNO-Multilevel, CI-OPT
                                                   MM, QMMM, 2- and 3-layer-ONIOM, Crystal-QMMM,
                                                   LR-CPCM, SF, NACMEs, symmetry and pop. for TD-DFT,
                                                   nearIR, NL-DFT gradient (VV10), updates on ESD,
                                                   ML-optimized integration grids
   S Lehtola, MJT Oliveira, MAL Marques          : LibXC Library
   Liviu Ungur et al                             : ANISO software


 Your calculation uses the libint2 library for the computation of 2-el integrals
 For citations please refer to: http://libint.valeyev.net

 Your ORCA version has been built with support for libXC version: 5.1.0
 For citations please refer to: https://tddft.org/programs/libxc/

 This ORCA versions uses:
   CBLAS   interface :  Fast vector & matrix operations
   LAPACKE interface :  Fast linear algebra routines
   SCALAPACK package :  Parallel linear algebra routines
   Shared memory     :  Shared parallel matrices
   BLAS/LAPACK       :  OpenBLAS 0.3.15  USE64BITINT DYNAMIC_ARCH NO_AFFINITY Sandybridge SINGLE_THREADED
        Core in use  :  Sandybridge
   Copyright (c) 2011-2014, The OpenBLAS Project


================================================================================

----- Orbital basis set information -----
Your calculation utilizes the basis: cc-pVDZ 
       H, B-Ne : Obtained from the ccRepo (grant-hill.group.shef.ac.uk/ccrepo) Feb. 2017
                 T. H. Dunning, Jr., J. Chem. Phys. 90, 1007 (1989)
            He : Obtained from the ccRepo (grant-hill.group.shef.ac.uk/ccrepo) Feb. 2017
                 D. E. Woon, T. H. Dunning, Jr., J. Chem. Phys. 100, 2975 (1994)
  Li-Be, Na-Mg : Obtained from the ccRepo (grant-hill.group.shef.ac.uk/ccrepo) Feb. 2017
                 B. P. Prascher, D. E. Woon, K. A. Peterson, T. H. Dunning, Jr., A. K. Wilson, Theor. Chem. Acc. 128, 69 (2011)
         Al-Ar : Obtained from the ccRepo (grant-hill.group.shef.ac.uk/ccrepo) Feb. 2017
                 D. E. Woon, T. H. Dunning, Jr., J. Chem. Phys. 98, 1358 (1993)
            Ca : Obtained from the Peterson Research Group Website (tyr0.chem.wsu.edu/~kipeters) Feb. 2017
                 J. Koput, K. A. Peterson, J. Phys. Chem. 106, 9595 (2002)
         Sc-Zn : Obtained from the ccRepo (grant-hill.group.shef.ac.uk/ccrepo) Feb. 2017
                 N. B. Balabanov, K. A. Peterson, J. Chem. Phys. 123, 064107 (2005)
                 N. B. Balabanov, K. A. Peterson, J. Chem. Phys. 125, 074110 (2006)
         Ga-Kr : Obtained from the ccRepo (grant-hill.group.shef.ac.uk/ccrepo) Feb. 2017
                 A. K. Wilson, D. E. Woon, K. A. Peterson, T. H. Dunning, Jr., J. Chem. Phys. 110, 7667 (1999)

================================================================================
                                        WARNINGS
                       Please study these warnings very carefully!
================================================================================


WARNING: No MP2 level density has been requested!
         To caclulate MP2 level properties use
         %mp2 Density relaxed end
         or
         %mp2 Density unrelaxed end

WARNING: Post HF methods need fully converged wavefunctions
  ===> : Setting SCFConvForced true
         You can overwrite this default with %scf ConvForced false 


INFO   : the flag for use of the SHARK integral package has been found!

================================================================================
                                       INPUT FILE
================================================================================
NAME = /scratch/allen/tmpyp4_amber_gaff2/2.Mdgx/conf11/conf11/Conf324.orca
|  1> ! PAL2
|  2> ! mp2 cc-pvdz TightSCF  NoKeepInts
|  3> 
|  4> %scf
|  5>   MaxCore 2000
|  6> end
|  7> %mp2
|  8>   MaxCore 2000
|  9> end
| 10> * xyz 0 1
| 11>    C       -3.24100         6.33900         0.81700
| 12>    C        1.47400         4.04100         0.05700
| 13>    C       -2.80200         4.09300         0.04900
| 14>    C       -3.99700         4.16500        -0.68300
| 15>    C       -4.76700         5.31000        -0.64500
| 16>    C       -5.21400         7.60200         0.09000
| 17>    C        0.13200         4.30700         0.06100
| 18>    C       -0.56900         3.05600         0.04700
| 19>    C        1.64900         2.61800         0.02300
| 20>    C       -2.43500         5.21700         0.80500
| 21>    N       -4.38700         6.37500         0.10000
| 22>    N        0.38800         2.06700         0.02500
| 23>    N       -2.01000         0.39500        -0.07500
| 24>    N       -0.38800        -2.07400        -0.02700
| 25>    N        2.01000        -0.40100         0.06500
| 26>    C       -1.96000         2.86100         0.02400
| 27>    C       -2.62300         1.61500        -0.01800
| 28>    C       -5.57300        -4.32900         1.06600
| 29>    C       -4.07300         1.47100         0.05600
| 30>    C       -4.10600        -2.75600        -0.02600
| 31>    C       -4.99500        -2.75700        -1.11100
| 32>    C       -6.13200        -3.54200        -1.07600
| 33>    C       -7.65100        -5.11300         0.04000
| 34>    C       -4.32400         0.14100         0.03700
| 35>    C       -3.02500        -0.52000        -0.04800
| 36>    C       -4.42200        -3.56600         1.07500
| 37>    N       -6.40700        -4.31300         0.00100
| 38>    C       -2.86700        -1.92200        -0.04000
| 39>    C       -1.65000        -2.62400        -0.02700
| 40>    C        3.56800        -6.14200        -1.04000
| 41>    C       -1.47600        -4.04900        -0.03400
| 42>    C        2.80300        -4.09900        -0.00800
| 43>    C        3.65700        -4.38400         1.06900
| 44>    C        4.42700        -5.53000         1.05900
| 45>    C        5.24500        -7.58800         0.01400
| 46>    C       -0.13400        -4.31500        -0.02200
| 47>    C        0.56800        -3.06400        -0.02700
| 48>    C        2.77500        -5.01200        -1.07400
| 49>    N        4.37600        -6.39100         0.01700
| 50>    C        1.95900        -2.86900        -0.00900
| 51>    C        2.62100        -1.62200         0.00900
| 52>    C        5.54300         4.33900        -1.13000
| 53>    C        4.07000        -1.47900        -0.09400
| 54>    C        4.10400         2.75100        -0.02100
| 55>    C        5.02700         2.72900         1.03600
| 56>    C        6.16600         3.50900         0.97800
| 57>    C        7.61900         5.15300        -0.11500
| 58>    C        4.32100        -0.14800        -0.09200
| 59>    C        3.02500         0.51400         0.01500
| 60>    C        4.38700         3.58200        -1.11500
| 61>    C        2.86600         1.91600         0.01300
| 62>    N        6.41300         4.29600        -0.09500
| 63>    H       -3.00300         7.22300         1.39500
| 64>    H        2.27400         4.76600         0.08100
| 65>    H       -4.32900         3.33300        -1.29300
| 66>    H       -5.69000         5.41500        -1.19900
| 67>    H       -4.91900         8.22300        -0.75900
| 68>    H       -6.26300         7.31700         0.00100
| 69>    H       -5.05200         8.14100         1.02300
| 70>    H       -0.33200         5.28200         0.06900
| 71>    H       -1.53000         5.21800         1.40300
| 72>    H        0.18200         1.07200         0.00500
| 73>    H       -0.18300        -1.08000        -0.02100
| 74>    H       -5.86400        -4.96200         1.89500
| 75>    H       -4.79400         2.27200         0.13900
| 76>    H       -4.80000        -2.16000        -1.99400
| 77>    H       -6.84100        -3.58200        -1.89300
| 78>    H       -8.42800        -4.53600         0.54600
| 79>    H       -7.95600        -5.33700        -0.98100
| 80>    H       -7.45600        -6.03700         0.58400
| 81>    H       -5.28700        -0.34400         0.10000
| 82>    H       -3.78000        -3.60100         1.94700
| 83>    H        3.58700        -6.86800        -1.84300
| 84>    H       -2.27600        -4.77400        -0.05000
| 85>    H        3.71400        -3.72400         1.92600
| 86>    H        5.09200        -5.79500         1.87100
| 87>    H        6.20500        -7.32900        -0.43900
| 88>    H        5.39300        -7.91700         1.04200
| 89>    H        4.75900        -8.37300        -0.56400
| 90>    H        0.32900        -5.29000        -0.00800
| 91>    H        2.14600        -4.84200        -1.94000
| 92>    H        5.80800         4.98600        -1.95600
| 93>    H        4.78800        -2.28100        -0.18500
| 94>    H        4.86000         2.11400         1.91200
| 95>    H        6.90100         3.53100         1.77200
| 96>    H        7.38300         6.10900         0.35600
| 97>    H        8.41400         4.65200         0.43500
| 98>    H        7.92100         5.31000        -1.15000
| 99>    H        5.28300         0.33600        -0.17900
|100>    H        3.72000         3.63200        -1.96700
|101> *
|102> 
|103>                          ****END OF INPUT****
================================================================================

                       ****************************
                       * Single Point Calculation *
                       ****************************

---------------------------------
CARTESIAN COORDINATES (ANGSTROEM)
---------------------------------
  C     -3.241000    6.339000    0.817000
  C      1.474000    4.041000    0.057000
  C     -2.802000    4.093000    0.049000
  C     -3.997000    4.165000   -0.683000
  C     -4.767000    5.310000   -0.645000
  C     -5.214000    7.602000    0.090000
  C      0.132000    4.307000    0.061000
  C     -0.569000    3.056000    0.047000
  C      1.649000    2.618000    0.023000
  C     -2.435000    5.217000    0.805000
  N     -4.387000    6.375000    0.100000
  N      0.388000    2.067000    0.025000
  N     -2.010000    0.395000   -0.075000
  N     -0.388000   -2.074000   -0.027000
  N      2.010000   -0.401000    0.065000
  C     -1.960000    2.861000    0.024000
  C     -2.623000    1.615000   -0.018000
  C     -5.573000   -4.329000    1.066000
  C     -4.073000    1.471000    0.056000
  C     -4.106000   -2.756000   -0.026000
  C     -4.995000   -2.757000   -1.111000
  C     -6.132000   -3.542000   -1.076000
  C     -7.651000   -5.113000    0.040000
  C     -4.324000    0.141000    0.037000
  C     -3.025000   -0.520000   -0.048000
  C     -4.422000   -3.566000    1.075000
  N     -6.407000   -4.313000    0.001000
  C     -2.867000   -1.922000   -0.040000
  C     -1.650000   -2.624000   -0.027000
  C      3.568000   -6.142000   -1.040000
  C     -1.476000   -4.049000   -0.034000
  C      2.803000   -4.099000   -0.008000
  C      3.657000   -4.384000    1.069000
  C      4.427000   -5.530000    1.059000
  C      5.245000   -7.588000    0.014000
  C     -0.134000   -4.315000   -0.022000
  C      0.568000   -3.064000   -0.027000
  C      2.775000   -5.012000   -1.074000
  N      4.376000   -6.391000    0.017000
  C      1.959000   -2.869000   -0.009000
  C      2.621000   -1.622000    0.009000
  C      5.543000    4.339000   -1.130000
  C      4.070000   -1.479000   -0.094000
  C      4.104000    2.751000   -0.021000
  C      5.027000    2.729000    1.036000
  C      6.166000    3.509000    0.978000
  C      7.619000    5.153000   -0.115000
  C      4.321000   -0.148000   -0.092000
  C      3.025000    0.514000    0.015000
  C      4.387000    3.582000   -1.115000
  C      2.866000    1.916000    0.013000
  N      6.413000    4.296000   -0.095000
  H     -3.003000    7.223000    1.395000
  H      2.274000    4.766000    0.081000
  H     -4.329000    3.333000   -1.293000
  H     -5.690000    5.415000   -1.199000
  H     -4.919000    8.223000   -0.759000
  H     -6.263000    7.317000    0.001000
  H     -5.052000    8.141000    1.023000
  H     -0.332000    5.282000    0.069000
  H     -1.530000    5.218000    1.403000
  H      0.182000    1.072000    0.005000
  H     -0.183000   -1.080000   -0.021000
  H     -5.864000   -4.962000    1.895000
  H     -4.794000    2.272000    0.139000
  H     -4.800000   -2.160000   -1.994000
  H     -6.841000   -3.582000   -1.893000
  H     -8.428000   -4.536000    0.546000
  H     -7.956000   -5.337000   -0.981000
  H     -7.456000   -6.037000    0.584000
  H     -5.287000   -0.344000    0.100000
  H     -3.780000   -3.601000    1.947000
  H      3.587000   -6.868000   -1.843000
  H     -2.276000   -4.774000   -0.050000
  H      3.714000   -3.724000    1.926000
  H      5.092000   -5.795000    1.871000
  H      6.205000   -7.329000   -0.439000
  H      5.393000   -7.917000    1.042000
  H      4.759000   -8.373000   -0.564000
  H      0.329000   -5.290000   -0.008000
  H      2.146000   -4.842000   -1.940000
  H      5.808000    4.986000   -1.956000
  H      4.788000   -2.281000   -0.185000
  H      4.860000    2.114000    1.912000
  H      6.901000    3.531000    1.772000
  H      7.383000    6.109000    0.356000
  H      8.414000    4.652000    0.435000
  H      7.921000    5.310000   -1.150000
  H      5.283000    0.336000   -0.179000
  H      3.720000    3.632000   -1.967000

----------------------------
CARTESIAN COORDINATES (A.U.)
----------------------------
  NO LB      ZA    FRAG     MASS         X           Y           Z
   0 C     6.0000    0    12.011   -6.124602   11.978974    1.543906
   1 C     6.0000    0    12.011    2.785456    7.636383    0.107714
   2 C     6.0000    0    12.011   -5.295013    7.734649    0.092597
   3 C     6.0000    0    12.011   -7.553235    7.870709   -1.290683
   4 C     6.0000    0    12.011   -9.008324   10.034446   -1.218873
   5 C     6.0000    0    12.011   -9.853032   14.365698    0.170075
   6 C     6.0000    0    12.011    0.249444    8.139050    0.115273
   7 C     6.0000    0    12.011   -1.075254    5.775003    0.088817
   8 C     6.0000    0    12.011    3.116158    4.947303    0.043464
   9 C     6.0000    0    12.011   -4.601483    9.858701    1.521230
  10 N     7.0000    0    14.007   -8.290229   12.047004    0.188973
  11 N     7.0000    0    14.007    0.733214    3.906064    0.047243
  12 N     7.0000    0    14.007   -3.798350    0.746442   -0.141729
  13 N     7.0000    0    14.007   -0.733214   -3.919292   -0.051023
  14 N     7.0000    0    14.007    3.798350   -0.757780    0.122832
  15 C     6.0000    0    12.011   -3.703863    5.406506    0.045353
  16 C     6.0000    0    12.011   -4.956752    3.051908   -0.034015
  17 C     6.0000    0    12.011  -10.531444   -8.180624    2.014448
  18 C     6.0000    0    12.011   -7.696855    2.779787    0.105825
  19 C     6.0000    0    12.011   -7.759216   -5.208085   -0.049133
  20 C     6.0000    0    12.011   -9.439182   -5.209975   -2.099486
  21 C     6.0000    0    12.011  -11.587801   -6.693410   -2.033345
  22 C     6.0000    0    12.011  -14.458295   -9.662170    0.075589
  23 C     6.0000    0    12.011   -8.171176    0.266451    0.069920
  24 C     6.0000    0    12.011   -5.716422   -0.982658   -0.090707
  25 C     6.0000    0    12.011   -8.356369   -6.738763    2.031456
  26 N     7.0000    0    14.007  -12.107475   -8.150389    0.001890
  27 C     6.0000    0    12.011   -5.417845   -3.632054   -0.075589
  28 C     6.0000    0    12.011   -3.118048   -4.958641   -0.051023
  29 C     6.0000    0    12.011    6.742543  -11.606698   -1.965315
  30 C     6.0000    0    12.011   -2.789236   -7.651501   -0.064251
  31 C     6.0000    0    12.011    5.296902   -7.745987   -0.015118
  32 C     6.0000    0    12.011    6.910728   -8.284559    2.020117
  33 C     6.0000    0    12.011    8.365818  -10.450186    2.001220
  34 C     6.0000    0    12.011    9.911614  -14.339242    0.026456
  35 C     6.0000    0    12.011   -0.253223   -8.154168   -0.041574
  36 C     6.0000    0    12.011    1.073364   -5.790121   -0.051023
  37 C     6.0000    0    12.011    5.243990   -9.471307   -2.029566
  38 N     7.0000    0    14.007    8.269442  -12.077240    0.032125
  39 C     6.0000    0    12.011    3.701973   -5.421624   -0.017008
  40 C     6.0000    0    12.011    4.952972   -3.065136    0.017008
  41 C     6.0000    0    12.011   10.474752    8.199522   -2.135391
  42 C     6.0000    0    12.011    7.691185   -2.794905   -0.177634
  43 C     6.0000    0    12.011    7.755436    5.198637   -0.039684
  44 C     6.0000    0    12.011    9.499653    5.157063    1.957756
  45 C     6.0000    0    12.011   11.652051    6.631049    1.848152
  46 C     6.0000    0    12.011   14.397823    9.737759   -0.217319
  47 C     6.0000    0    12.011    8.165507   -0.279679   -0.173855
  48 C     6.0000    0    12.011    5.716422    0.971319    0.028346
  49 C     6.0000    0    12.011    8.290229    6.768999   -2.107045
  50 C     6.0000    0    12.011    5.415955    3.620715    0.024566
  51 N     7.0000    0    14.007   12.118814    8.118263   -0.179524
  52 H     1.0000    0     1.008   -5.674848   13.649492    2.636168
  53 H     1.0000    0     1.008    4.297237    9.006435    0.153068
  54 H     1.0000    0     1.008   -8.180624    6.298457   -2.443416
  55 H     1.0000    0     1.008  -10.752542   10.232867   -2.265782
  56 H     1.0000    0     1.008   -9.295563   15.539218   -1.434302
  57 H     1.0000    0     1.008  -11.835355   13.827126    0.001890
  58 H     1.0000    0     1.008   -9.546896   15.384260    1.933190
  59 H     1.0000    0     1.008   -0.627389    9.981533    0.130391
  60 H     1.0000    0     1.008   -2.891281    9.860591    2.651286
  61 H     1.0000    0     1.008    0.343930    2.025786    0.009449
  62 H     1.0000    0     1.008   -0.345820   -2.040904   -0.039684
  63 H     1.0000    0     1.008  -11.081354   -9.376821    3.581031
  64 H     1.0000    0     1.008   -9.059347    4.293458    0.262672
  65 H     1.0000    0     1.008   -9.070685   -4.081808   -3.768114
  66 H     1.0000    0     1.008  -12.927616   -6.768999   -3.577252
  67 H     1.0000    0     1.008  -15.926612   -8.571798    1.031790
  68 H     1.0000    0     1.008  -15.034661  -10.085468   -1.853821
  69 H     1.0000    0     1.008  -14.089798  -11.408277    1.103600
  70 H     1.0000    0     1.008   -9.990982   -0.650066    0.188973
  71 H     1.0000    0     1.008   -7.143165   -6.804904    3.679297
  72 H     1.0000    0     1.008    6.778448  -12.978639   -3.482765
  73 H     1.0000    0     1.008   -4.301017   -9.021553   -0.094486
  74 H     1.0000    0     1.008    7.018443   -7.037340    3.639613
  75 H     1.0000    0     1.008    9.622485  -10.950963    3.535678
  76 H     1.0000    0     1.008   11.725751  -13.849803   -0.829590
  77 H     1.0000    0     1.008   10.191293  -14.960962    1.969095
  78 H     1.0000    0     1.008    8.993207  -15.822677   -1.065806
  79 H     1.0000    0     1.008    0.621720   -9.996651   -0.015118
  80 H     1.0000    0     1.008    4.055352   -9.150054   -3.666069
  81 H     1.0000    0     1.008   10.975529    9.422175   -3.696304
  82 H     1.0000    0     1.008    9.048009   -4.310465   -0.349599
  83 H     1.0000    0     1.008    9.184069    3.994881    3.613156
  84 H     1.0000    0     1.008   13.041000    6.672623    3.348595
  85 H     1.0000    0     1.008   13.951848   11.544337    0.672743
  86 H     1.0000    0     1.008   15.900156    8.791006    0.822031
  87 H     1.0000    0     1.008   14.968521   10.034446   -2.173185
  88 H     1.0000    0     1.008    9.983423    0.634948   -0.338261
  89 H     1.0000    0     1.008    7.029781    6.863485   -3.717091

--------------------------------
INTERNAL COORDINATES (ANGSTROEM)
--------------------------------
 C      0   0   0     0.000000000000     0.00000000     0.00000000
 C      1   0   0     5.299964999884     0.00000000     0.00000000
 C      1   2   0     2.413930612093    52.35007345     0.00000000
 C      3   1   2     1.403222362992    87.89968777   210.36684430
 C      4   3   1     1.380351042308   120.21556787     0.13446061
 C      5   4   3     2.448121320523   152.46380664     1.66788138
 C      2   1   3     1.368114030335    16.79026489    10.92099684
 C      7   2   1     1.434084376876   108.05010202   208.48239122
 C      2   1   3     1.434123425651   122.83230009   339.16191252
 C      1   2   3     1.381544063720    29.26229213    31.03660624
 N      1   2   3     1.352294716399   133.58471990   315.76680366
 N      9   2   1     1.376127174356   106.58526707     8.44863075
 N     12   9   2     2.925062050624   168.53581413   171.12065651
 N     13  12   9     2.954513327098    91.55032014    11.12112580
 N     14  13  12     2.925371258490    88.43092389   359.84326247
 C      8   7   2     1.404790019896   127.24786865   181.11170171
 C     13  12   9     1.366535034311    81.72106996   188.00453233
 C     14  13  12     5.758810554272    80.56209567   166.76250791
 C     17  13  12     1.459010623676   111.08861209   183.82872609
 C     18  14  13     2.412235892279    27.27532823    36.33507194
 C     20  18  14     1.402692767501    87.95206320   148.94598259
 C     21  20  18     1.382106725257   120.14573887   359.70382047
 C     18  14  13     2.446510985056   144.15733107    82.80075377
 C     19  17  13     1.353610726908   106.29293361   359.75308708
 C     13  12   9     1.366813447402   172.21332906    33.46711076
 C     18  14  13     1.380960173213    15.08449437   309.23336894
 N     22  21  20     1.352773077792   120.73759875     0.27865223
 C     25  13  17     1.410897586645   125.60330303   182.37774668
 C     14  13  12     1.376642291955    80.24689249   177.85461986
 C     14  13  12     5.764089607215   164.51507311   312.20821879
 C     29  14  13     1.435600919476   106.58649366   178.76395472
 C     30  14  13     2.413316804732    27.10625047    82.12560436
 C     32  30  14     1.403734305344    87.90059683   149.76154742
 C     33  32  30     1.380694028378   120.14881443   359.74174632
 C     34  33  32     2.448777858443   152.49203239     2.45173620
 C     31  29  14     1.368160809262   108.16950133     0.70383075
 C     14  13  12     1.376239804685   169.26375223   353.09862627
 C     30  14  13     1.380907310430    14.68948582   353.70041132
 N     34  33  32     1.352658863128   120.85575621     0.19603406
 C     37  14  29     1.404717053360   126.01551127   180.90772073
 C     15  14  13     1.366491126938    81.61824056   183.09049352
 C      2   1   3     4.249062720177   149.49429840   144.82016404
 C     41  15  14     1.459677704153   111.05201287   175.08990246
 C     42   2   1     2.412953791518    41.78584867   168.38664653
 C     44  42   2     1.403446472082    87.95153797   233.97558675
 C     45  44  42     1.381696421071   120.11137308     0.19721020
 C     42   2   1     2.450019795838   135.97209175    78.70149563
 C     43  41  15     1.354461516618   106.26758155     0.30894352
 C     15  14  13     1.367461151185   171.87382904   332.35056460
 C     42   2   1     1.381886391857    32.59078432   217.24192572
 C      9   2   1     1.404988612053   126.98745415   189.45296828
 N     42   2   1     1.352765315936   113.57249190   106.43808482
 H      1   2   3     1.082674466310   103.59244313   165.78333008
 H      2   1   3     1.079907866440   111.39298183   167.52707572
 H      4   3   1     1.083765657326   121.00459462   179.58431406
 H      5   4   3     1.081605288449   122.85093669   179.42990997
 H      6   5   4     1.092459152554   104.45171201   100.06029151
 H      6   5   4     1.090663559490    84.63328764   209.53954163
 H      6   5   4     1.089611857498   133.87252872   322.26870510
 H      7   2   1     1.079807853278   126.66122480    28.72080501
 H     10   1   2     1.084725771797   118.76412749    55.45547628
 H     12   9   2     1.016297692608   125.29023241   180.00180175
 H     14  13  12     1.014936943854    44.97226959   359.42596618
 H     18  14  13     1.082871645210   128.03556573   234.20482432
 H     19  17  13     1.080893611786   126.41830519   178.11313280
 H     21  20  18     1.083569563987   121.05669627   180.67006309
 H     22  21  20     1.082483256222   122.73097286   180.59748951
 H     23  18  14     1.092105306278   103.92715769   234.93429879
 H     23  18  14     1.088871893291   134.19244188    12.25587044
 H     23  18  14     1.089833473518    84.85857450   125.45241208
 H     24  19  17     1.080075460327   127.28078426   178.44613241
 H     26  18  14     1.083408048706   118.76995697   244.94906660
 H     30  14  13     1.082703098730   127.99711412   279.66882698
 H     31  29  14     1.079759695488   125.22293469   180.92530585
 H     33  32  30     1.083188810873   121.01964473   180.74284758
 H     34  33  32     1.082494341787   122.70821597   180.59516895
 H     35  34  33     1.092652735319   105.73575241    97.19771933
 H     35  34  33     1.089462711615    84.05943581   206.43036958
 H     35  34  33     1.089268102902   133.08365142   318.50306270
 H     36  31  29     1.079439669458   126.61599965   178.98859863
 H     38  30  73     1.083742127999   118.77264435   359.90091293
 H     42   2   1     1.082178358682   119.31790784   323.06961528
 H     43  41  15     1.080281907652   126.36969097   182.06329380
 H     45  44  42     1.083277434455   121.10105945   179.58025624
 H     46  45  44     1.082194529648   122.72144639   179.46906377
 H     47  42   2     1.091546151109   106.65128841   315.16475048
 H     47  42   2     1.088818625851   132.46019523    94.52397119
 H     47  42   2     1.089531091801    83.63838232   206.04504406
 H     48  43  41     1.080402239909   127.23657387   181.62955349
 H     50  42   2     1.083186502870   118.77001737    94.71359229

---------------------------
INTERNAL COORDINATES (A.U.)
---------------------------
 C      0   0   0     0.000000000000     0.00000000     0.00000000
 C      1   0   0    10.015482369150     0.00000000     0.00000000
 C      1   2   0     4.561667763145    52.35007345     0.00000000
 C      3   1   2     2.651705971048    87.89968777   210.36684430
 C      4   3   1     2.608485438634   120.21556787     0.13446061
 C      5   4   3     4.626278838402   152.46380664     1.66788138
 C      2   1   3     2.585360837309    16.79026489    10.92099684
 C      7   2   1     2.710026725231   108.05010202   208.48239122
 C      2   1   3     2.710100516721   122.83230009   339.16191252
 C      1   2   3     2.610739922375    29.26229213    31.03660624
 N      1   2   3     2.555466666342   133.58471990   315.76680366
 N      9   2   1     2.600503484979   106.58526707     8.44863075
 N     12   9   2     5.527566200405   168.53581413   171.12065651
 N     13  12   9     5.583221047236    91.55032014    11.12112580
 N     14  13  12     5.528150518591    88.43092389   359.84326247
 C      8   7   2     2.654668413270   127.24786865   181.11170171
 C     13  12   9     2.582376967257    81.72106996   188.00453233
 C     14  13  12    10.882574804710    80.56209567   166.76250791
 C     17  13  12     2.757130505230   111.08861209   183.82872609
 C     18  14  13     4.558465206823    27.27532823    36.33507194
 C     20  18  14     2.650705180609    87.95206320   148.94598259
 C     21  20  18     2.611803198586   120.14573887   359.70382047
 C     18  14  13     4.623235745386   144.15733107    82.80075377
 C     19  17  13     2.557953565794   106.29293361   359.75308708
 C     13  12   9     2.582903091751   172.21332906    33.46711076
 C     18  14  13     2.609636529225    15.08449437   309.23336894
 N     22  21  20     2.556370638369   120.73759875     0.27865223
 C     25  13  17     2.666210041769   125.60330303   182.37774668
 C     14  13  12     2.601476916169    80.24689249   177.85461986
 C     14  13  12    10.892550769017   164.51507311   312.20821879
 C     29  14  13     2.712892575415   106.58649366   178.76395472
 C     30  14  13     4.560507835333    27.10625047    82.12560436
 C     32  30  14     2.652673401891    87.90059683   149.76154742
 C     33  32  30     2.609133588376   120.14881443   359.74174632
 C     34  33  32     4.627519515267   152.49203239     2.45173620
 C     31  29  14     2.585449236669   108.16950133     0.70383075
 C     14  13  12     2.600716325456   169.26375223   353.09862627
 C     30  14  13     2.609536633043    14.68948582   353.70041132
 N     34  33  32     2.556154803934   120.85575621     0.19603406
 C     37  14  29     2.654530526499   126.01551127   180.90772073
 C     15  14  13     2.582293994346    81.61824056   183.09049352
 C      2   1   3     8.029564866989   149.49429840   144.82016404
 C     41  15  14     2.758391104639   111.05201287   175.08990246
 C     42   2   1     4.559821839776    41.78584867   168.38664653
 C     44  42   2     2.652129475853    87.95153797   233.97558675
 C     45  44  42     2.611027836043   120.11137308     0.19721020
 C     42   2   1     4.629866436820   135.97209175    78.70149563
 C     43  41  15     2.559561325344   106.26758155     0.30894352
 C     15  14  13     2.584127074516   171.87382904   332.35056460
 C     42   2   1     2.611386828803    32.59078432   217.24192572
 C      9   2   1     2.655043698059   126.98745415   189.45296828
 N     42   2   1     2.556355970587   113.57249190   106.43808482
 H      1   2   3     2.045958233516   103.59244313   165.78333008
 H      2   1   3     2.040730117440   111.39298183   167.52707572
 H      4   3   1     2.048020285696   121.00459462   179.58431406
 H      5   4   3     2.043937780169   122.85093669   179.42990997
 H      6   5   4     2.064448610824   104.45171201   100.06029151
 H      6   5   4     2.061055431684    84.63328764   209.53954163
 H      6   5   4     2.059068002944   133.87252872   322.26870510
 H      7   2   1     2.040541119952   126.66122480    28.72080501
 H     10   1   2     2.049834639102   118.76412749    55.45547628
 H     12   9   2     1.920524309565   125.29023241   180.00180175
 H     14  13  12     1.917952867083    44.97226959   359.42596618
 H     18  14  13     2.046330847636   128.03556573   234.20482432
 H     19  17  13     2.042592906181   126.41830519   178.11313280
 H     21  20  18     2.047649722989   121.05669627   180.67006309
 H     22  21  20     2.045596898814   122.73097286   180.59748951
 H     23  18  14     2.063779938267   103.92715769   234.93429879
 H     23  18  14     2.057669673245   134.19244188    12.25587044
 H     23  18  14     2.059486796529    84.85857450   125.45241208
 H     24  19  17     2.041046823986   127.28078426   178.44613241
 H     26  18  14     2.047344503340   118.76995697   244.94906660
 H     30  14  13     2.046012340948   127.99711412   279.66882698
 H     31  29  14     2.040450114918   125.22293469   180.92530585
 H     33  32  30     2.046930203877   121.01964473   180.74284758
 H     34  33  32     2.045617847496   122.70821597   180.59516895
 H     35  34  33     2.064814429233   105.73575241    97.19771933
 H     35  34  33     2.058786158072    84.05943581   206.43036958
 H     35  34  33     2.058418400901   133.08365142   318.50306270
 H     36  31  29     2.039845353366   126.61599965   178.98859863
 H     38  30  73     2.047975821711   118.77264435   359.90091293
 H     42   2   1     2.045020725966   119.31790784   323.06961528
 H     43  41  15     2.041436952892   126.36969097   182.06329380
 H     45  44  42     2.047097678177   121.10105945   179.58025624
 H     46  45  44     2.045051284662   122.72144639   179.46906377
 H     47  42   2     2.062723288131   106.65128841   315.16475048
 H     47  42   2     2.057569012371   132.46019523    94.52397119
 H     47  42   2     2.058915377895    83.63838232   206.04504406
 H     48  43  41     2.041664347903   127.23657387   181.62955349
 H     50  42   2     2.046925842384   118.77001737    94.71359229

---------------------
BASIS SET INFORMATION
---------------------
There are 3 groups of distinct atoms

 Group   1 Type C   : 17s4p1d contracted to 3s2p1d pattern {881/31/1}
 Group   2 Type N   : 17s4p1d contracted to 3s2p1d pattern {881/31/1}
 Group   3 Type H   : 4s1p contracted to 2s1p pattern {31/1}

Atom   0C    basis set group =>   1
Atom   1N    basis set group =>   2
Atom   2C    basis set group =>   1
Atom   3N    basis set group =>   2
Atom   4C    basis set group =>   1
Atom   5N    basis set group =>   2
Atom   6C    basis set group =>   1
Atom   7N    basis set group =>   2
Atom   8C    basis set group =>   1
Atom   9N    basis set group =>   2
Atom  10C    basis set group =>   1
Atom  11N    basis set group =>   2
Atom  12C    basis set group =>   1
Atom  13N    basis set group =>   2
Atom  14C    basis set group =>   1
Atom  15N    basis set group =>   2
Atom  16C    basis set group =>   1
Atom  17C    basis set group =>   1
Atom  18C    basis set group =>   1
Atom  19C    basis set group =>   1
Atom  20C    basis set group =>   1
Atom  21C    basis set group =>   1
Atom  22C    basis set group =>   1
Atom  23C    basis set group =>   1
Atom  24C    basis set group =>   1
Atom  25C    basis set group =>   1
Atom  26C    basis set group =>   1
Atom  27C    basis set group =>   1
Atom  28C    basis set group =>   1
Atom  29C    basis set group =>   1
Atom  30C    basis set group =>   1
Atom  31C    basis set group =>   1
Atom  32C    basis set group =>   1
Atom  33C    basis set group =>   1
Atom  34C    basis set group =>   1
Atom  35C    basis set group =>   1
Atom  36C    basis set group =>   1
Atom  37C    basis set group =>   1
Atom  38C    basis set group =>   1
Atom  39C    basis set group =>   1
Atom  40C    basis set group =>   1
Atom  41C    basis set group =>   1
Atom  42C    basis set group =>   1
Atom  43C    basis set group =>   1
Atom  44C    basis set group =>   1
Atom  45C    basis set group =>   1
Atom  46C    basis set group =>   1
Atom  47C    basis set group =>   1
Atom  48C    basis set group =>   1
Atom  49C    basis set group =>   1
Atom  50C    basis set group =>   1
Atom  51C    basis set group =>   1
Atom  52H    basis set group =>   3
Atom  53H    basis set group =>   3
Atom  54H    basis set group =>   3
Atom  55H    basis set group =>   3
Atom  56H    basis set group =>   3
Atom  57H    basis set group =>   3
Atom  58H    basis set group =>   3
Atom  59H    basis set group =>   3
Atom  60H    basis set group =>   3
Atom  61H    basis set group =>   3
Atom  62H    basis set group =>   3
Atom  63H    basis set group =>   3
Atom  64H    basis set group =>   3
Atom  65H    basis set group =>   3
Atom  66H    basis set group =>   3
Atom  67H    basis set group =>   3
Atom  68H    basis set group =>   3
Atom  69H    basis set group =>   3
Atom  70H    basis set group =>   3
Atom  71H    basis set group =>   3
Atom  72H    basis set group =>   3
Atom  73H    basis set group =>   3
Atom  74H    basis set group =>   3
Atom  75H    basis set group =>   3
Atom  76H    basis set group =>   3
Atom  77H    basis set group =>   3
Atom  78H    basis set group =>   3
Atom  79H    basis set group =>   3
Atom  80H    basis set group =>   3
Atom  81H    basis set group =>   3
Atom  82H    basis set group =>   3
Atom  83H    basis set group =>   3
Atom  84H    basis set group =>   3
Atom  85H    basis set group =>   3
Atom  86H    basis set group =>   3
Atom  87H    basis set group =>   3
Atom  88H    basis set group =>   3
Atom  89H    basis set group =>   3


           ************************************************************
           *        Program running with 8 parallel MPI-processes     *
           *              working on a common directory               *
           ************************************************************
------------------------------------------------------------------------------
                           ORCA GTO INTEGRAL CALCULATION
------------------------------------------------------------------------------
------------------------------------------------------------------------------
                   ___                                                        
                  /   \      - P O W E R E D   B Y -                         
                 /     \                                                     
                 |  |  |   _    _      __       _____    __    __             
                 |  |  |  | |  | |    /  \     |  _  \  |  |  /  |          
                  \  \/   | |  | |   /    \    | | | |  |  | /  /          
                 / \  \   | |__| |  /  /\  \   | |_| |  |  |/  /          
                |  |  |   |  __  | /  /__\  \  |    /   |      \           
                |  |  |   | |  | | |   __   |  |    \   |  |\   \          
                \     /   | |  | | |  |  |  |  | |\  \  |  | \   \       
                 \___/    |_|  |_| |__|  |__|  |_| \__\ |__|  \__/        
                                                                              
                      - O R C A' S   B I G   F R I E N D -                    
                                      &                                       
                       - I N T E G R A L  F E E D E R -                       
                                                                              
 v1 FN, 2020, v2 2021                                                         
------------------------------------------------------------------------------


Reading SHARK input file /scratch/chu_02/allen/tmpyp4_amber_gaff2/conf1/conf1/Conf324.orca.SHARKINP.tmp ... ok
----------------------
SHARK INTEGRAL PACKAGE
----------------------

Number of atoms                             ...     90
Number of basis functions                   ...   1230
Number of shells                            ...    738
Maximum angular momentum                    ...      2
Integral batch strategy                     ... SHARK/LIBINT Hybrid
RI-J (if used) integral strategy            ... SPLIT-RIJ (Revised 2003 algorithm where possible)
Printlevel                                  ...      1
Contraction scheme used                     ... PARTIAL GENERAL contraction
Coulomb Range Separation                    ... NOT USED
Exchange Range Separation                   ... NOT USED
Finite Nucleus Model                        ... NOT USED
Auxiliary Coulomb fitting basis             ... NOT available
Auxiliary J/K fitting basis                 ... NOT available
Auxiliary Correlation fitting basis         ... NOT available
Auxiliary 'external' fitting basis          ... NOT available
Integral threshold                          ...     2.500000e-11
Primitive cut-off                           ...     2.500000e-12
Primitive pair pre-selection threshold      ...     2.500000e-12

Calculating pre-screening integrals         ... done (  0.1 sec) Dimension = 738
Calculating pre-screening integrals (ORCA)  ... done (  0.3 sec) Dimension = 426
Organizing shell pair data                  ... done (  0.5 sec)
Shell pair information
Total number of shell pairs                 ...    272691
Shell pairs after pre-screening             ...     71631
Total number of primitive shell pairs       ...    422091
Primitive shell pairs kept                  ...     92440
          la=0 lb=0:  29408 shell pairs
          la=1 lb=0:  25986 shell pairs
          la=1 lb=1:   4707 shell pairs
          la=2 lb=0:   7878 shell pairs
          la=2 lb=1:   3122 shell pairs
          la=2 lb=2:    530 shell pairs

Calculating one electron integrals          ... done (  0.2 sec)
Calculating Nuclear repulsion               ... done (  0.0 sec) ENN=   6229.473287008293 Eh

SHARK setup successfully completed in   1.6 seconds

Maximum memory used throughout the entire GTOINT-calculation: 99.0 MB


           ************************************************************
           *        Program running with 8 parallel MPI-processes     *
           *              working on a common directory               *
           ************************************************************
-------------------------------------------------------------------------------
                                 ORCA SCF
-------------------------------------------------------------------------------

------------
SCF SETTINGS
------------
Hamiltonian:
 Ab initio Hamiltonian  Method          .... Hartree-Fock(GTOs)


General Settings:
 Integral files         IntName         .... /scratch/chu_02/allen/tmpyp4_amber_gaff2/conf1/conf1/Conf324.orca
 Hartree-Fock type      HFTyp           .... RHF
 Total Charge           Charge          ....    0
 Multiplicity           Mult            ....    1
 Number of Electrons    NEL             ....  358
 Basis Dimension        Dim             ....  918
 Nuclear Repulsion      ENuc            ....   6229.4732870083 Eh

Convergence Acceleration:
 DIIS                   CNVDIIS         .... on
   Start iteration      DIISMaxIt       ....    12
   Startup error        DIISStart       ....  0.200000
   # of expansion vecs  DIISMaxEq       ....     5
   Bias factor          DIISBfac        ....   1.050
   Max. coefficient     DIISMaxC        ....  10.000
 Trust-Rad. Augm. Hess. CNVTRAH         .... auto
   Auto Start mean grad. ratio tolernc. ....  1.125000
   Auto Start start iteration           ....    20
   Auto Start num. interpolation iter.  ....    10
   Max. Number of Micro iterations      ....    16
   Max. Number of Macro iterations      .... Maxiter - #DIIS iter
   Number of Davidson start vectors     ....     2
   Converg. threshold I  (grad. norm)   ....   1.000e-05
   Converg. threshold II (energy diff.) ....   1.000e-08
   Grad. Scal. Fac. for Micro threshold ....   0.100
   Minimum threshold for Micro iter.    ....   0.010
   NR start threshold (gradient norm)   ....   0.001
   Initial trust radius                 ....   0.400
   Minimum AH scaling param. (alpha)    ....   1.000
   Maximum AH scaling param. (alpha)    .... 1000.000
   Orbital update algorithm             .... Taylor
   White noise on init. David. guess    .... on
   Maximum white noise                  ....   0.010
   Quad. conv. algorithm                .... NR
 SOSCF                  CNVSOSCF        .... on
   Start iteration      SOSCFMaxIt      ....   150
   Startup grad/error   SOSCFStart      ....  0.003300
 Level Shifting         CNVShift        .... on
   Level shift para.    LevelShift      ....    0.2500
   Turn off err/grad.   ShiftErr        ....    0.0010
 Zerner damping         CNVZerner       .... off
 Static damping         CNVDamp         .... on
   Fraction old density DampFac         ....    0.7000
   Max. Damping (<1)    DampMax         ....    0.9800
   Min. Damping (>=0)   DampMin         ....    0.0000
   Turn off err/grad.   DampErr         ....    0.1000
 Fernandez-Rico         CNVRico         .... off

SCF Procedure:
 Maximum # iterations   MaxIter         ....   125
 SCF integral mode      SCFMode         .... Direct
   Integral package                     .... SHARK and LIBINT hybrid scheme
 Reset frequency        DirectResetFreq ....    20
 Integral Threshold     Thresh          ....  2.500e-11 Eh
 Primitive CutOff       TCut            ....  2.500e-12 Eh

Convergence Tolerance:
 Convergence Check Mode ConvCheckMode   .... Total+1el-Energy
 Convergence forced     ConvForced      .... 1
 Energy Change          TolE            ....  1.000e-08 Eh
 1-El. energy change                    ....  1.000e-05 Eh
 Orbital Gradient       TolG            ....  1.000e-05
 Orbital Rotation angle TolX            ....  1.000e-05
 DIIS Error             TolErr          ....  5.000e-07


Diagonalization of the overlap matrix:
Smallest eigenvalue                        ... 2.224e-04
Time for diagonalization                   ...    0.212 sec
Threshold for overlap eigenvalues          ... 1.000e-08
Number of eigenvalues below threshold      ... 0
Time for construction of square roots      ...    0.124 sec
Total time needed                          ...    0.340 sec

Time for model grid setup =    1.341 sec

------------------------------
INITIAL GUESS: MODEL POTENTIAL
------------------------------
Loading Hartree-Fock densities                     ... done
Calculating cut-offs                               ... done
Initializing the effective Hamiltonian             ... done
Setting up the integral package (SHARK)            ... done
Starting the Coulomb interaction                   ... done (   1.6 sec)
Reading the grid                                   ... done
Mapping shells                                     ... done
Starting the XC term evaluation                    ... done (   0.3 sec)
Transforming the Hamiltonian                       ... done (   0.1 sec)
Diagonalizing the Hamiltonian                      ... done (   0.2 sec)
Back transforming the eigenvectors                 ... done (   0.0 sec)
Now organizing SCF variables                       ... done
                      ------------------
                      INITIAL GUESS DONE (   3.6 sec)
                      ------------------
--------------
SCF ITERATIONS
--------------
ITER       Energy         Delta-E        Max-DP      RMS-DP      [F,P]     Damp
               ***  Starting incremental Fock matrix formation  ***
  0  -2121.6964331877   0.000000000000 0.07219243  0.00120965  0.2322600 0.7000
  1  -2122.3527246155  -0.656291427793 0.05431179  0.00098306  0.1438599 0.7000
                               ***Turning on DIIS***
  2  -2122.7606904734  -0.407965857914 0.12647696  0.00223230  0.0802450 0.0000
  3  -2117.9098905193   4.850799954114 0.03020563  0.00066862  0.0439570 0.0000
  4  -2123.4348489596  -5.524958440308 0.00946815  0.00022487  0.0074884 0.0000
  5  -2123.5956459839  -0.160797024302 0.00519853  0.00013233  0.0049971 0.0000
  6  -2123.5789028738   0.016743110100 0.00356319  0.00008514  0.0019655 0.0000
  7  -2123.6778988105  -0.098995936711 0.00303337  0.00006690  0.0015630 0.0000
  8  -2123.6896839468  -0.011785136347 0.00319712  0.00006287  0.0014524 0.0000
  9  -2123.6584297462   0.031254200596 0.00255420  0.00004370  0.0011582 0.0000
 10  -2123.6683901167  -0.009960370453 0.00516052  0.00009003  0.0008929 0.0000
                      *** Initiating the SOSCF procedure ***
                           *** Shutting down DIIS ***
                      *** Re-Reading the Fockian *** 
                      *** Removing any level shift *** 
ITER      Energy       Delta-E        Grad      Rot      Max-DP    RMS-DP
 11  -2123.55852247   0.1098676425  0.000199  0.000199  0.000246  0.000005
               *** Restarting incremental Fock matrix formation ***
 12  -2123.62427726  -0.0657547884  0.000843  0.005660  0.001324  0.000033
 13  -2123.62437210  -0.0000948422  0.001027  0.028837  0.006323  0.000129
 14  -2123.62453566  -0.0001635511  0.000343  0.002087  0.000595  0.000012
 15  -2123.62455148  -0.0000158210  0.000166  0.003484  0.000836  0.000019
 16  -2123.62456153  -0.0000100518  0.000165  0.003289  0.000521  0.000011
 17  -2123.62456484  -0.0000033094  0.000136  0.002147  0.000337  0.000007
 18  -2123.62456664  -0.0000017975  0.000075  0.000884  0.000310  0.000004
 19  -2123.62456743  -0.0000007979  0.000044  0.000558  0.000139  0.000003
 20  -2123.62456769  -0.0000002518  0.000023  0.000426  0.000094  0.000002
 21  -2123.62456782  -0.0000001299  0.000024  0.000341  0.000100  0.000002
 22  -2123.62456790  -0.0000000817  0.000015  0.000328  0.000085  0.000001
 23  -2123.62456795  -0.0000000486  0.000008  0.000219  0.000048  0.000001
 24  -2123.62456797  -0.0000000267  0.000005  0.000160  0.000033  0.000001
 25  -2123.62456798  -0.0000000126  0.000005  0.000123  0.000019  0.000000
 26  -2123.62456799  -0.0000000079  0.000004  0.000147  0.000022  0.000001
 27  -2123.62456800  -0.0000000059  0.000003  0.000144  0.000020  0.000000
                  ***Gradient check signals convergence***
              ***Rediagonalizing the Fockian in SOSCF/NRSCF***

               *****************************************************
               *                     SUCCESS                       *
               *           SCF CONVERGED AFTER  28 CYCLES          *
               *****************************************************


----------------
TOTAL SCF ENERGY
----------------

Total Energy       :        -2123.62456800 Eh          -57786.76232 eV

Components:
Nuclear Repulsion  :         6229.47328701 Eh          169512.58599 eV
Electronic Energy  :        -8353.09785501 Eh         -227299.34831 eV
One Electron Energy:       -15299.80974045 Eh         -416328.98879 eV
Two Electron Energy:         6946.71188544 Eh          189029.64048 eV

Virial components:
Potential Energy   :        -4245.71615339 Eh         -115531.81006 eV
Kinetic Energy     :         2122.09158539 Eh           57745.04774 eV
Virial Ratio       :            2.00072239


---------------
SCF CONVERGENCE
---------------

  Last Energy change         ...   -2.3647e-09  Tolerance :   1.0000e-08
  Last MAX-Density change    ...    1.3758e-05  Tolerance :   1.0000e-07
  Last RMS-Density change    ...    3.5335e-07  Tolerance :   5.0000e-09
  Last Orbital Gradient      ...    2.2660e-06  Tolerance :   1.0000e-05
  Last Orbital Rotation      ...    1.1419e-04  Tolerance :   1.0000e-05

             **** THE GBW FILE WAS UPDATED (/scratch/chu_02/allen/tmpyp4_amber_gaff2/conf1/conf1/Conf324.orca.gbw) ****
             **** DENSITY /scratch/chu_02/allen/tmpyp4_amber_gaff2/conf1/conf1/Conf324.orca.scfp WAS UPDATED ****
             **** ENERGY FILE WAS UPDATED (/scratch/chu_02/allen/tmpyp4_amber_gaff2/conf1/conf1/Conf324.orca.en.tmp) ****
             **** THE GBW FILE WAS UPDATED (/scratch/chu_02/allen/tmpyp4_amber_gaff2/conf1/conf1/Conf324.orca.gbw) ****
             **** DENSITY /scratch/chu_02/allen/tmpyp4_amber_gaff2/conf1/conf1/Conf324.orca.scfp WAS UPDATED ****
----------------
ORBITAL ENERGIES
----------------

  NO   OCC          E(Eh)            E(eV) 
   0   2.0000     -15.668077      -426.3500 
   1   2.0000     -15.637901      -425.5289 
   2   2.0000     -15.628669      -425.2777 
   3   2.0000     -15.593826      -424.3296 
   4   2.0000     -15.524493      -422.4429 
   5   2.0000     -15.515841      -422.2075 
   6   2.0000     -15.450743      -420.4361 
   7   2.0000     -15.443312      -420.2339 
   8   2.0000     -11.320695      -308.0518 
   9   2.0000     -11.320174      -308.0376 
  10   2.0000     -11.317954      -307.9772 
  11   2.0000     -11.301769      -307.5368 
  12   2.0000     -11.296273      -307.3872 
  13   2.0000     -11.295624      -307.3695 
  14   2.0000     -11.290773      -307.2375 
  15   2.0000     -11.287812      -307.1570 
  16   2.0000     -11.284309      -307.0617 
  17   2.0000     -11.275372      -306.8185 
  18   2.0000     -11.271053      -306.7009 
  19   2.0000     -11.259760      -306.3936 
  20   2.0000     -11.257096      -306.3211 
  21   2.0000     -11.255161      -306.2685 
  22   2.0000     -11.254230      -306.2432 
  23   2.0000     -11.241516      -305.8972 
  24   2.0000     -11.234086      -305.6950 
  25   2.0000     -11.233523      -305.6797 
  26   2.0000     -11.233421      -305.6769 
  27   2.0000     -11.227259      -305.5092 
  28   2.0000     -11.226980      -305.5017 
  29   2.0000     -11.209418      -305.0238 
  30   2.0000     -11.208086      -304.9875 
  31   2.0000     -11.203995      -304.8762 
  32   2.0000     -11.198551      -304.7281 
  33   2.0000     -11.198263      -304.7202 
  34   2.0000     -11.189806      -304.4901 
  35   2.0000     -11.189491      -304.4815 
  36   2.0000     -11.186307      -304.3949 
  37   2.0000     -11.182628      -304.2948 
  38   2.0000     -11.181773      -304.2715 
  39   2.0000     -11.174484      -304.0732 
  40   2.0000     -11.171337      -303.9875 
  41   2.0000     -11.168311      -303.9052 
  42   2.0000     -11.167463      -303.8821 
  43   2.0000     -11.163105      -303.7635 
  44   2.0000     -11.161816      -303.7285 
  45   2.0000     -11.159914      -303.6767 
  46   2.0000     -11.155744      -303.5632 
  47   2.0000     -11.151182      -303.4391 
  48   2.0000     -11.148221      -303.3585 
  49   2.0000     -11.142449      -303.2015 
  50   2.0000     -11.135297      -303.0068 
  51   2.0000     -11.128391      -302.8189 
  52   2.0000      -1.350412       -36.7466 
  53   2.0000      -1.324618       -36.0447 
  54   2.0000      -1.316819       -35.8325 
  55   2.0000      -1.287662       -35.0391 
  56   2.0000      -1.224889       -33.3309 
  57   2.0000      -1.210456       -32.9382 
  58   2.0000      -1.169032       -31.8110 
  59   2.0000      -1.154102       -31.4047 
  60   2.0000      -1.135232       -30.8912 
  61   2.0000      -1.113050       -30.2876 
  62   2.0000      -1.106523       -30.1100 
  63   2.0000      -1.083351       -29.4795 
  64   2.0000      -1.072824       -29.1930 
  65   2.0000      -1.048657       -28.5354 
  66   2.0000      -1.041575       -28.3427 
  67   2.0000      -1.035751       -28.1842 
  68   2.0000      -1.015863       -27.6430 
  69   2.0000      -1.014483       -27.6055 
  70   2.0000      -1.009463       -27.4689 
  71   2.0000      -0.992709       -27.0130 
  72   2.0000      -0.987431       -26.8694 
  73   2.0000      -0.978324       -26.6216 
  74   2.0000      -0.972259       -26.4565 
  75   2.0000      -0.959517       -26.1098 
  76   2.0000      -0.951568       -25.8935 
  77   2.0000      -0.947082       -25.7714 
  78   2.0000      -0.935879       -25.4666 
  79   2.0000      -0.920357       -25.0442 
  80   2.0000      -0.902599       -24.5610 
  81   2.0000      -0.892076       -24.2746 
  82   2.0000      -0.875813       -23.8321 
  83   2.0000      -0.870910       -23.6987 
  84   2.0000      -0.866484       -23.5782 
  85   2.0000      -0.855344       -23.2751 
  86   2.0000      -0.841410       -22.8959 
  87   2.0000      -0.837664       -22.7940 
  88   2.0000      -0.822741       -22.3879 
  89   2.0000      -0.798480       -21.7278 
  90   2.0000      -0.793319       -21.5873 
  91   2.0000      -0.747132       -20.3305 
  92   2.0000      -0.738639       -20.0994 
  93   2.0000      -0.732625       -19.9357 
  94   2.0000      -0.723832       -19.6965 
  95   2.0000      -0.720053       -19.5936 
  96   2.0000      -0.714417       -19.4403 
  97   2.0000      -0.707402       -19.2494 
  98   2.0000      -0.703444       -19.1417 
  99   2.0000      -0.696354       -18.9488 
 100   2.0000      -0.695272       -18.9193 
 101   2.0000      -0.682491       -18.5715 
 102   2.0000      -0.679624       -18.4935 
 103   2.0000      -0.676584       -18.4108 
 104   2.0000      -0.675037       -18.3687 
 105   2.0000      -0.671006       -18.2590 
 106   2.0000      -0.666384       -18.1332 
 107   2.0000      -0.662410       -18.0251 
 108   2.0000      -0.656010       -17.8509 
 109   2.0000      -0.653537       -17.7837 
 110   2.0000      -0.649181       -17.6651 
 111   2.0000      -0.644081       -17.5263 
 112   2.0000      -0.642130       -17.4732 
 113   2.0000      -0.637602       -17.3500 
 114   2.0000      -0.636694       -17.3253 
 115   2.0000      -0.627226       -17.0677 
 116   2.0000      -0.624424       -16.9915 
 117   2.0000      -0.615915       -16.7599 
 118   2.0000      -0.615168       -16.7396 
 119   2.0000      -0.612754       -16.6739 
 120   2.0000      -0.608941       -16.5701 
 121   2.0000      -0.604027       -16.4364 
 122   2.0000      -0.600025       -16.3275 
 123   2.0000      -0.587150       -15.9772 
 124   2.0000      -0.584390       -15.9021 
 125   2.0000      -0.583027       -15.8650 
 126   2.0000      -0.578737       -15.7482 
 127   2.0000      -0.577817       -15.7232 
 128   2.0000      -0.564394       -15.3579 
 129   2.0000      -0.558449       -15.1962 
 130   2.0000      -0.552356       -15.0304 
 131   2.0000      -0.548263       -14.9190 
 132   2.0000      -0.542978       -14.7752 
 133   2.0000      -0.539360       -14.6767 
 134   2.0000      -0.537719       -14.6321 
 135   2.0000      -0.534171       -14.5355 
 136   2.0000      -0.525353       -14.2956 
 137   2.0000      -0.524112       -14.2618 
 138   2.0000      -0.518036       -14.0965 
 139   2.0000      -0.513386       -13.9699 
 140   2.0000      -0.511787       -13.9264 
 141   2.0000      -0.510121       -13.8811 
 142   2.0000      -0.509698       -13.8696 
 143   2.0000      -0.503010       -13.6876 
 144   2.0000      -0.500671       -13.6240 
 145   2.0000      -0.496768       -13.5177 
 146   2.0000      -0.494206       -13.4480 
 147   2.0000      -0.485111       -13.2006 
 148   2.0000      -0.481616       -13.1054 
 149   2.0000      -0.467849       -12.7308 
 150   2.0000      -0.464870       -12.6498 
 151   2.0000      -0.456857       -12.4317 
 152   2.0000      -0.449168       -12.2225 
 153   2.0000      -0.446526       -12.1506 
 154   2.0000      -0.443858       -12.0780 
 155   2.0000      -0.439818       -11.9681 
 156   2.0000      -0.430929       -11.7262 
 157   2.0000      -0.426407       -11.6031 
 158   2.0000      -0.402641       -10.9564 
 159   2.0000      -0.386148       -10.5076 
 160   2.0000      -0.380073       -10.3423 
 161   2.0000      -0.378513       -10.2999 
 162   2.0000      -0.370843       -10.0912 
 163   2.0000      -0.359336        -9.7780 
 164   2.0000      -0.353499        -9.6192 
 165   2.0000      -0.338498        -9.2110 
 166   2.0000      -0.337519        -9.1844 
 167   2.0000      -0.328571        -8.9409 
 168   2.0000      -0.327770        -8.9191 
 169   2.0000      -0.303628        -8.2621 
 170   2.0000      -0.299631        -8.1534 
 171   2.0000      -0.286505        -7.7962 
 172   2.0000      -0.283389        -7.7114 
 173   2.0000      -0.260660        -7.0929 
 174   2.0000      -0.244775        -6.6607 
 175   2.0000      -0.189710        -5.1623 
 176   2.0000      -0.179986        -4.8977 
 177   2.0000      -0.073687        -2.0051 
 178   2.0000      -0.057722        -1.5707 
 179   0.0000       0.028737         0.7820 
 180   0.0000       0.067126         1.8266 
 181   0.0000       0.091901         2.5007 
 182   0.0000       0.107141         2.9154 
 183   0.0000       0.113952         3.1008 
 184   0.0000       0.134532         3.6608 
 185   0.0000       0.141409         3.8479 
 186   0.0000       0.147030         4.0009 
 187   0.0000       0.162888         4.4324 
 188   0.0000       0.163818         4.4577 
 189   0.0000       0.166869         4.5407 
 190   0.0000       0.167505         4.5580 
 191   0.0000       0.184891         5.0311 
 192   0.0000       0.186534         5.0759 
 193   0.0000       0.189956         5.1690 
 194   0.0000       0.202675         5.5151 
 195   0.0000       0.206059         5.6072 
 196   0.0000       0.207529         5.6472 
 197   0.0000       0.210570         5.7299 
 198   0.0000       0.222215         6.0468 
 199   0.0000       0.224297         6.1034 
 200   0.0000       0.230295         6.2666 
 201   0.0000       0.237175         6.4539 
 202   0.0000       0.239874         6.5273 
 203   0.0000       0.241394         6.5687 
 204   0.0000       0.249734         6.7956 
 205   0.0000       0.255016         6.9393 
 206   0.0000       0.258665         7.0386 
 207   0.0000       0.259453         7.0601 
 208   0.0000       0.259994         7.0748 
 209   0.0000       0.261319         7.1109 
 210   0.0000       0.263640         7.1740 
 211   0.0000       0.270116         7.3502 
 212   0.0000       0.270556         7.3622 
 213   0.0000       0.271882         7.3983 
 214   0.0000       0.275291         7.4910 
 215   0.0000       0.277373         7.5477 
 216   0.0000       0.279023         7.5926 
 217   0.0000       0.280920         7.6442 
 218   0.0000       0.284923         7.7531 
 219   0.0000       0.288201         7.8424 
 220   0.0000       0.289589         7.8801 
 221   0.0000       0.293264         7.9801 
 222   0.0000       0.294267         8.0074 
 223   0.0000       0.295982         8.0541 
 224   0.0000       0.297862         8.1052 
 225   0.0000       0.299722         8.1558 
 226   0.0000       0.306901         8.3512 
 227   0.0000       0.308429         8.3928 
 228   0.0000       0.309529         8.4227 
 229   0.0000       0.321667         8.7530 
 230   0.0000       0.324708         8.8357 
 231   0.0000       0.326767         8.8918 
 232   0.0000       0.330666         8.9979 
 233   0.0000       0.331954         9.0329 
 234   0.0000       0.345817         9.4102 
 235   0.0000       0.349667         9.5149 
 236   0.0000       0.356415         9.6985 
 237   0.0000       0.379486        10.3263 
 238   0.0000       0.394462        10.7339 
 239   0.0000       0.397042        10.8041 
 240   0.0000       0.401279        10.9194 
 241   0.0000       0.412706        11.2303 
 242   0.0000       0.418061        11.3760 
 243   0.0000       0.419526        11.4159 
 244   0.0000       0.427187        11.6243 
 245   0.0000       0.434519        11.8239 
 246   0.0000       0.436673        11.8825 
 247   0.0000       0.438512        11.9325 
 248   0.0000       0.443506        12.0684 
 249   0.0000       0.446841        12.1592 
 250   0.0000       0.451287        12.2801 
 251   0.0000       0.458985        12.4896 
 252   0.0000       0.462881        12.5956 
 253   0.0000       0.468728        12.7547 
 254   0.0000       0.469643        12.7796 
 255   0.0000       0.473906        12.8956 
 256   0.0000       0.480358        13.0712 
 257   0.0000       0.482399        13.1267 
 258   0.0000       0.487059        13.2536 
 259   0.0000       0.499237        13.5849 
 260   0.0000       0.502190        13.6653 
 261   0.0000       0.504471        13.7274 
 262   0.0000       0.506206        13.7746 
 263   0.0000       0.509287        13.8584 
 264   0.0000       0.514124        13.9900 
 265   0.0000       0.517805        14.0902 
 266   0.0000       0.523022        14.2322 
 267   0.0000       0.524954        14.2847 
 268   0.0000       0.533183        14.5087 
 269   0.0000       0.537991        14.6395 
 270   0.0000       0.540489        14.7075 
 271   0.0000       0.547263        14.8918 
 272   0.0000       0.549470        14.9518 
 273   0.0000       0.556840        15.1524 
 274   0.0000       0.560911        15.2632 
 275   0.0000       0.566098        15.4043 
 276   0.0000       0.568477        15.4690 
 277   0.0000       0.573274        15.5996 
 278   0.0000       0.578168        15.7328 
 279   0.0000       0.586498        15.9594 
 280   0.0000       0.588617        16.0171 
 281   0.0000       0.590256        16.0617 
 282   0.0000       0.593229        16.1426 
 283   0.0000       0.597262        16.2523 
 284   0.0000       0.598028        16.2732 
 285   0.0000       0.599164        16.3041 
 286   0.0000       0.607823        16.5397 
 287   0.0000       0.612423        16.6649 
 288   0.0000       0.613321        16.6893 
 289   0.0000       0.623703        16.9718 
 290   0.0000       0.627328        17.0705 
 291   0.0000       0.629147        17.1199 
 292   0.0000       0.633538        17.2394 
 293   0.0000       0.635280        17.2868 
 294   0.0000       0.646338        17.5878 
 295   0.0000       0.649832        17.6828 
 296   0.0000       0.653733        17.7890 
 297   0.0000       0.657040        17.8790 
 298   0.0000       0.664883        18.0924 
 299   0.0000       0.666511        18.1367 
 300   0.0000       0.669771        18.2254 
 301   0.0000       0.671722        18.2785 
 302   0.0000       0.678121        18.4526 
 303   0.0000       0.679564        18.4919 
 304   0.0000       0.682733        18.5781 
 305   0.0000       0.687344        18.7036 
 306   0.0000       0.689832        18.7713 
 307   0.0000       0.691627        18.8201 
 308   0.0000       0.695372        18.9220 
 309   0.0000       0.698123        18.9969 
 310   0.0000       0.701378        19.0855 
 311   0.0000       0.703458        19.1421 
 312   0.0000       0.706634        19.2285 
 313   0.0000       0.709106        19.2958 
 314   0.0000       0.711596        19.3635 
 315   0.0000       0.713272        19.4091 
 316   0.0000       0.717020        19.5111 
 317   0.0000       0.718803        19.5596 
 318   0.0000       0.722589        19.6626 
 319   0.0000       0.724319        19.7097 
 320   0.0000       0.726302        19.7637 
 321   0.0000       0.729315        19.8457 
 322   0.0000       0.732769        19.9397 
 323   0.0000       0.736186        20.0326 
 324   0.0000       0.737520        20.0689 
 325   0.0000       0.741135        20.1673 
 326   0.0000       0.742995        20.2179 
 327   0.0000       0.745862        20.2959 
 328   0.0000       0.749182        20.3863 
 329   0.0000       0.750687        20.4272 
 330   0.0000       0.752348        20.4724 
 331   0.0000       0.755315        20.5532 
 332   0.0000       0.760476        20.6936 
 333   0.0000       0.762041        20.7362 
 334   0.0000       0.769741        20.9457 
 335   0.0000       0.772447        21.0193 
 336   0.0000       0.774570        21.0771 
 337   0.0000       0.783833        21.3292 
 338   0.0000       0.785069        21.3628 
 339   0.0000       0.786216        21.3940 
 340   0.0000       0.790416        21.5083 
 341   0.0000       0.796019        21.6608 
 342   0.0000       0.796744        21.6805 
 343   0.0000       0.801162        21.8007 
 344   0.0000       0.804294        21.8860 
 345   0.0000       0.806710        21.9517 
 346   0.0000       0.807926        21.9848 
 347   0.0000       0.812250        22.1025 
 348   0.0000       0.815507        22.1911 
 349   0.0000       0.818490        22.2722 
 350   0.0000       0.819457        22.2986 
 351   0.0000       0.821049        22.3419 
 352   0.0000       0.824136        22.4259 
 353   0.0000       0.825233        22.4557 
 354   0.0000       0.828433        22.5428 
 355   0.0000       0.831703        22.6318 
 356   0.0000       0.832120        22.6431 
 357   0.0000       0.835968        22.7478 
 358   0.0000       0.836590        22.7648 
 359   0.0000       0.839025        22.8310 
 360   0.0000       0.842095        22.9146 
 361   0.0000       0.843208        22.9449 
 362   0.0000       0.844252        22.9733 
 363   0.0000       0.845870        23.0173 
 364   0.0000       0.849231        23.1087 
 365   0.0000       0.853512        23.2252 
 366   0.0000       0.856667        23.3111 
 367   0.0000       0.859502        23.3882 
 368   0.0000       0.863544        23.4982 
 369   0.0000       0.864251        23.5175 
 370   0.0000       0.867816        23.6145 
 371   0.0000       0.871213        23.7069 
 372   0.0000       0.874081        23.7850 
 373   0.0000       0.877892        23.8887 
 374   0.0000       0.881413        23.9845 
 375   0.0000       0.882606        24.0169 
 376   0.0000       0.886067        24.1111 
 377   0.0000       0.888292        24.1717 
 378   0.0000       0.890136        24.2218 
 379   0.0000       0.894449        24.3392 
 380   0.0000       0.897330        24.4176 
 381   0.0000       0.899688        24.4817 
 382   0.0000       0.902453        24.5570 
 383   0.0000       0.903058        24.5734 
 384   0.0000       0.903588        24.5879 
 385   0.0000       0.905654        24.6441 
 386   0.0000       0.906095        24.6561 
 387   0.0000       0.908657        24.7258 
 388   0.0000       0.911102        24.7923 
 389   0.0000       0.915567        24.9138 
 390   0.0000       0.919829        25.0298 
 391   0.0000       0.922627        25.1060 
 392   0.0000       0.924086        25.1457 
 393   0.0000       0.925760        25.1912 
 394   0.0000       0.928267        25.2594 
 395   0.0000       0.930429        25.3183 
 396   0.0000       0.930857        25.3299 
 397   0.0000       0.936966        25.4961 
 398   0.0000       0.940141        25.5825 
 399   0.0000       0.941883        25.6300 
 400   0.0000       0.943227        25.6665 
 401   0.0000       0.949034        25.8245 
 402   0.0000       0.953504        25.9462 
 403   0.0000       0.954819        25.9819 
 404   0.0000       0.959686        26.1144 
 405   0.0000       0.961168        26.1547 
 406   0.0000       0.962856        26.2006 
 407   0.0000       0.966477        26.2992 
 408   0.0000       0.967490        26.3267 
 409   0.0000       0.976151        26.5624 
 410   0.0000       0.978763        26.6335 
 411   0.0000       0.982618        26.7384 
 412   0.0000       0.989070        26.9140 
 413   0.0000       0.989377        26.9223 
 414   0.0000       0.993142        27.0248 
 415   0.0000       1.002263        27.2730 
 416   0.0000       1.004270        27.3276 
 417   0.0000       1.007928        27.4271 
 418   0.0000       1.008050        27.4304 
 419   0.0000       1.019504        27.7421 
 420   0.0000       1.022892        27.8343 
 421   0.0000       1.028814        27.9955 
 422   0.0000       1.038080        28.2476 
 423   0.0000       1.043341        28.3908 
 424   0.0000       1.043463        28.3941 
 425   0.0000       1.054361        28.6906 
 426   0.0000       1.058307        28.7980 
 427   0.0000       1.059831        28.8395 
 428   0.0000       1.068169        29.0664 
 429   0.0000       1.073041        29.1989 
 430   0.0000       1.078394        29.3446 
 431   0.0000       1.083184        29.4749 
 432   0.0000       1.086775        29.5727 
 433   0.0000       1.088075        29.6080 
 434   0.0000       1.097774        29.8719 
 435   0.0000       1.104384        30.0518 
 436   0.0000       1.107194        30.1283 
 437   0.0000       1.112401        30.2700 
 438   0.0000       1.114006        30.3136 
 439   0.0000       1.116872        30.3916 
 440   0.0000       1.120850        30.4999 
 441   0.0000       1.123889        30.5826 
 442   0.0000       1.126691        30.6588 
 443   0.0000       1.127729        30.6871 
 444   0.0000       1.131566        30.7915 
 445   0.0000       1.133994        30.8575 
 446   0.0000       1.142043        31.0766 
 447   0.0000       1.143187        31.1077 
 448   0.0000       1.146455        31.1966 
 449   0.0000       1.150688        31.3118 
 450   0.0000       1.151080        31.3225 
 451   0.0000       1.153007        31.3749 
 452   0.0000       1.156782        31.4776 
 453   0.0000       1.159556        31.5531 
 454   0.0000       1.164207        31.6797 
 455   0.0000       1.170214        31.8431 
 456   0.0000       1.172877        31.9156 
 457   0.0000       1.177349        32.0373 
 458   0.0000       1.178753        32.0755 
 459   0.0000       1.185868        32.2691 
 460   0.0000       1.186917        32.2977 
 461   0.0000       1.196139        32.5486 
 462   0.0000       1.201945        32.7066 
 463   0.0000       1.203035        32.7362 
 464   0.0000       1.205250        32.7965 
 465   0.0000       1.208939        32.8969 
 466   0.0000       1.211323        32.9618 
 467   0.0000       1.214935        33.0601 
 468   0.0000       1.221286        33.2329 
 469   0.0000       1.226156        33.3654 
 470   0.0000       1.229321        33.4515 
 471   0.0000       1.233553        33.5667 
 472   0.0000       1.233655        33.5695 
 473   0.0000       1.235563        33.6214 
 474   0.0000       1.242182        33.8015 
 475   0.0000       1.245131        33.8817 
 476   0.0000       1.249758        34.0076 
 477   0.0000       1.252059        34.0703 
 478   0.0000       1.253581        34.1117 
 479   0.0000       1.254679        34.1416 
 480   0.0000       1.258241        34.2385 
 481   0.0000       1.262701        34.3598 
 482   0.0000       1.268695        34.5229 
 483   0.0000       1.272430        34.6246 
 484   0.0000       1.275152        34.6986 
 485   0.0000       1.276078        34.7238 
 486   0.0000       1.279152        34.8075 
 487   0.0000       1.283274        34.9197 
 488   0.0000       1.287899        35.0455 
 489   0.0000       1.290207        35.1083 
 490   0.0000       1.294161        35.2159 
 491   0.0000       1.296650        35.2837 
 492   0.0000       1.299787        35.3690 
 493   0.0000       1.303415        35.4677 
 494   0.0000       1.310558        35.6621 
 495   0.0000       1.314059        35.7574 
 496   0.0000       1.317863        35.8609 
 497   0.0000       1.322554        35.9885 
 498   0.0000       1.324893        36.0522 
 499   0.0000       1.328501        36.1504 
 500   0.0000       1.333574        36.2884 
 501   0.0000       1.335494        36.3406 
 502   0.0000       1.339180        36.4409 
 503   0.0000       1.346754        36.6470 
 504   0.0000       1.348681        36.6995 
 505   0.0000       1.350830        36.7580 
 506   0.0000       1.351607        36.7791 
 507   0.0000       1.356989        36.9255 
 508   0.0000       1.361553        37.0497 
[...]
 76 H s       :     0.887171  s :     0.887171
      pz      :     0.022075  p :     0.079727
      px      :     0.043532
      py      :     0.014120
 77 H s       :     0.885826  s :     0.885826
      pz      :     0.047884  p :     0.079179
      px      :     0.015020
      py      :     0.016275
 78 H s       :     0.886244  s :     0.886244
      pz      :     0.025831  p :     0.079130
      px      :     0.020482
      py      :     0.032816
 79 H s       :     0.909977  s :     0.909977
      pz      :     0.021889  p :     0.086452
      px      :     0.021691
      py      :     0.042871
 80 H s       :     0.866338  s :     0.866338
      pz      :     0.039241  p :     0.084635
      px      :     0.030191
      py      :     0.015203
 81 H s       :     0.887152  s :     0.887152
      pz      :     0.037791  p :     0.084057
      px      :     0.016188
      py      :     0.030078
 82 H s       :     0.915998  s :     0.915998
      pz      :     0.022018  p :     0.086751
      px      :     0.031559
      py      :     0.033174
 83 H s       :     0.873657  s :     0.873657
      pz      :     0.039229  p :     0.084026
      px      :     0.015279
      py      :     0.029518
 84 H s       :     0.887193  s :     0.887193
      pz      :     0.035748  p :     0.083512
      px      :     0.031689
      py      :     0.016075
 85 H s       :     0.893411  s :     0.893411
      pz      :     0.022484  p :     0.079758
      px      :     0.014088
      py      :     0.043187
 86 H s       :     0.891194  s :     0.891194
      pz      :     0.024720  p :     0.078815
      px      :     0.032966
      py      :     0.021129
 87 H s       :     0.890131  s :     0.890131
      pz      :     0.047988  p :     0.078713
      px      :     0.015591
      py      :     0.015134
 88 H s       :     0.911431  s :     0.911431
      pz      :     0.021779  p :     0.087025
      px      :     0.042809
      py      :     0.022437
 89 H s       :     0.871557  s :     0.871557
      pz      :     0.037935  p :     0.083836
      px      :     0.030468
      py      :     0.015433


                      *****************************
                      * MAYER POPULATION ANALYSIS *
                      *****************************

  NA   - Mulliken gross atomic population
  ZA   - Total nuclear charge
  QA   - Mulliken gross atomic charge
  VA   - Mayer's total valence
  BVA  - Mayer's bonded valence
  FA   - Mayer's free valence

  ATOM       NA         ZA         QA         VA         BVA        FA
  0 C      5.7905     6.0000     0.2095     3.8426     3.8426    -0.0000
  1 N      7.4543     7.0000    -0.4543     3.3304     3.3304     0.0000
  2 C      6.0649     6.0000    -0.0649     3.9212     3.9212    -0.0000
  3 N      7.3363     7.0000    -0.3363     3.4584     3.4584    -0.0000
  4 C      6.0539     6.0000    -0.0539     4.0051     4.0051    -0.0000
  5 N      7.5608     7.0000    -0.5608     3.0950     3.0950     0.0000
  6 C      6.1078     6.0000    -0.1078     4.0068     4.0068     0.0000
  7 N      7.3400     7.0000    -0.3400     3.4351     3.4351     0.0000
  8 C      5.7961     6.0000     0.2039     3.8378     3.8378     0.0000
  9 N      7.5627     7.0000    -0.5627     3.0794     3.0794     0.0000
 10 C      5.8818     6.0000     0.1182     3.9077     3.9077    -0.0000
 11 N      7.4377     7.0000    -0.4377     3.3823     3.3823     0.0000
 12 C      6.0806     6.0000    -0.0806     3.9080     3.9080    -0.0000
 13 N      7.4322     7.0000    -0.4322     3.4155     3.4155     0.0000
 14 C      5.7730     6.0000     0.2270     3.7821     3.7821     0.0000
 15 N      7.4414     7.0000    -0.4414     3.3696     3.3696    -0.0000
 16 C      5.7701     6.0000     0.2299     3.7808     3.7808    -0.0000
 17 C      6.1169     6.0000    -0.1169     4.0068     4.0068    -0.0000
 18 C      6.1730     6.0000    -0.1730     3.7636     3.7636    -0.0000
 19 C      5.7871     6.0000     0.2129     3.8622     3.8622    -0.0000
 20 C      5.7865     6.0000     0.2135     3.8278     3.8278     0.0000
 21 C      6.0926     6.0000    -0.0926     3.9024     3.9024     0.0000
 22 C      6.0886     6.0000    -0.0886     3.9820     3.9820    -0.0000
 23 C      6.0419     6.0000    -0.0419     3.9919     3.9919     0.0000
 24 C      5.8023     6.0000     0.1977     3.8217     3.8217     0.0000
 25 C      5.8859     6.0000     0.1141     3.8901     3.8901    -0.0000
 26 C      6.0748     6.0000    -0.0748     3.9064     3.9064     0.0000
 27 C      5.7873     6.0000     0.2127     3.8669     3.8669     0.0000
 28 C      6.0591     6.0000    -0.0591     3.9886     3.9886    -0.0000
 29 C      6.1808     6.0000    -0.1808     3.7437     3.7437    -0.0000
 30 C      5.7568     6.0000     0.2432     3.7971     3.7971     0.0000
 31 C      5.7737     6.0000     0.2263     3.8203     3.8203     0.0000
 32 C      6.0620     6.0000    -0.0620     3.9225     3.9225    -0.0000
 33 C      6.0661     6.0000    -0.0661     3.9756     3.9756     0.0000
 34 C      6.0496     6.0000    -0.0496     3.9861     3.9861    -0.0000
 35 C      5.7791     6.0000     0.2209     3.8188     3.8188    -0.0000
 36 C      5.8902     6.0000     0.1098     3.8792     3.8792     0.0000
 37 C      6.0649     6.0000    -0.0649     3.9175     3.9175    -0.0000
 38 C      5.7662     6.0000     0.2338     3.8016     3.8016    -0.0000
 39 C      6.0596     6.0000    -0.0596     3.9852     3.9852     0.0000
 40 C      6.1825     6.0000    -0.1825     3.7306     3.7306    -0.0000
 41 C      5.7767     6.0000     0.2233     3.8849     3.8849     0.0000
 42 C      5.8020     6.0000     0.1980     3.8266     3.8266     0.0000
 43 C      6.0729     6.0000    -0.0729     3.9005     3.9005     0.0000
 44 C      6.0910     6.0000    -0.0910     3.9857     3.9857    -0.0000
 45 C      6.0596     6.0000    -0.0596     3.9923     3.9923    -0.0000
 46 C      5.7916     6.0000     0.2084     3.8283     3.8283    -0.0000
 47 C      5.8843     6.0000     0.1157     3.8939     3.8939    -0.0000
 48 C      6.0693     6.0000    -0.0693     3.9081     3.9081    -0.0000
 49 C      5.7647     6.0000     0.2353     3.8925     3.8925     0.0000
 50 C      6.0480     6.0000    -0.0480     3.9906     3.9906     0.0000
 51 C      6.1929     6.0000    -0.1929     3.7366     3.7366    -0.0000
 52 H      0.9580     1.0000     0.0420     0.9858     0.9858     0.0000
 53 H      1.0162     1.0000    -0.0162     0.9985     0.9985     0.0000
 54 H      0.9485     1.0000     0.0515     1.0138     1.0138     0.0000
 55 H      0.9602     1.0000     0.0398     0.9868     0.9868     0.0000
 56 H      0.9502     1.0000     0.0498     0.9698     0.9698    -0.0000
 57 H      0.9505     1.0000     0.0495     0.9824     0.9824    -0.0000
 58 H      0.9519     1.0000     0.0481     0.9853     0.9853    -0.0000
 59 H      0.9998     1.0000     0.0002     1.0041     1.0041    -0.0000
 60 H      0.9500     1.0000     0.0500     1.0108     1.0108    -0.0000
 61 H      0.8288     1.0000     0.1712     1.0419     1.0419     0.0000
 62 H      0.8249     1.0000     0.1751     1.0436     1.0436    -0.0000
 63 H      0.9433     1.0000     0.0567     0.9852     0.9852     0.0000
 64 H      1.0053     1.0000    -0.0053     0.9969     0.9969     0.0000
 65 H      0.9531     1.0000     0.0469     1.0097     1.0097     0.0000
 66 H      0.9432     1.0000     0.0568     0.9853     0.9853     0.0000
 67 H      0.9366     1.0000     0.0634     0.9720     0.9720    -0.0000
 68 H      0.9421     1.0000     0.0579     0.9868     0.9868     0.0000
 69 H      0.9424     1.0000     0.0576     0.9829     0.9829     0.0000
 70 H      1.0277     1.0000    -0.0277     0.9930     0.9930     0.0000
 71 H      0.9534     1.0000     0.0466     1.0060     1.0060    -0.0000
 72 H      0.9324     1.0000     0.0676     0.9839     0.9839     0.0000
 73 H      1.0093     1.0000    -0.0093     1.0003     1.0003    -0.0000
 74 H      0.9430     1.0000     0.0570     1.0102     1.0102    -0.0000
 75 H      0.9332     1.0000     0.0668     0.9844     0.9844     0.0000
 76 H      0.9283     1.0000     0.0717     0.9720     0.9720     0.0000
 77 H      0.9345     1.0000     0.0655     0.9854     0.9854     0.0000
 78 H      0.9354     1.0000     0.0646     0.9852     0.9852     0.0000
 79 H      1.0153     1.0000    -0.0153     0.9982     0.9982    -0.0000
 80 H      0.9425     1.0000     0.0575     1.0071     1.0071     0.0000
 81 H      0.9464     1.0000     0.0536     0.9856     0.9856    -0.0000
 82 H      1.0250     1.0000    -0.0250     0.9934     0.9934    -0.0000
 83 H      0.9588     1.0000     0.0412     1.0085     1.0085     0.0000
 84 H      0.9469     1.0000     0.0531     0.9854     0.9854    -0.0000
 85 H      0.9403     1.0000     0.0597     0.9715     0.9715     0.0000
 86 H      0.9448     1.0000     0.0552     0.9839     0.9839    -0.0000
 87 H      0.9433     1.0000     0.0567     0.9856     0.9856     0.0000
 88 H      1.0163     1.0000    -0.0163     0.9962     0.9962     0.0000
 89 H      0.9538     1.0000     0.0462     1.0070     1.0070     0.0000

  Mayer bond orders larger than 0.100000
B(  0-C ,  1-N ) :   1.0955 B(  0-C , 17-C ) :   1.6968 B(  0-C , 52-H ) :   0.9673 
B(  1-N ,  8-C ) :   1.0848 B(  1-N , 10-C ) :   0.9764 B(  2-C , 12-C ) :   1.5147 
B(  2-C , 16-C ) :   1.3490 B(  2-C , 53-H ) :   0.9764 B(  3-N , 14-C ) :   1.2162 
B(  3-N , 16-C ) :   1.1926 B(  3-N , 61-H ) :   0.8994 B(  4-C ,  6-C ) :   1.2161 
B(  4-C , 17-C ) :   1.2151 B(  4-C , 18-C ) :   1.4099 B(  5-N , 19-C ) :   1.4485 
B(  5-N , 27-C ) :   1.3833 B(  6-C ,  8-C ) :   1.7005 B(  6-C , 54-H ) :   0.9628 
B(  7-N , 30-C ) :   1.1938 B(  7-N , 38-C ) :   1.1940 B(  7-N , 62-H ) :   0.8970 
B(  8-C , 55-H ) :   0.9689 B(  9-N , 41-C ) :   1.3947 B(  9-N , 49-C ) :   1.4265 
B( 10-C , 56-H ) :   0.9766 B( 10-C , 57-H ) :   0.9830 B( 10-C , 58-H ) :   0.9834 
B( 11-N , 20-C ) :   1.1313 B( 11-N , 24-C ) :   1.1127 B( 11-N , 25-C ) :   0.9586 
B( 12-C , 14-C ) :   1.3511 B( 12-C , 59-H ) :   0.9747 B( 13-N , 31-C ) :   1.1527 
B( 13-N , 35-C ) :   1.1470 B( 13-N , 36-C ) :   0.9462 B( 14-C , 18-C ) :   1.1417 
B( 15-N , 42-C ) :   1.1079 B( 15-N , 46-C ) :   1.1200 B( 15-N , 47-C ) :   0.9624 
B( 16-C , 51-C ) :   1.1767 B( 17-C , 60-H ) :   0.9632 B( 18-C , 19-C ) :   1.1461 
B( 19-C , 21-C ) :   1.2377 B( 20-C , 28-C ) :   1.6250 B( 20-C , 63-H ) :   0.9702 
B( 21-C , 26-C ) :   1.6203 B( 21-C , 64-H ) :   0.9715 B( 22-C , 23-C ) :   1.2903 
B( 22-C , 28-C ) :   1.2687 B( 22-C , 29-C ) :   1.2205 B( 23-C , 24-C ) :   1.6170 
B( 23-C , 65-H ) :   0.9705 B( 24-C , 66-H ) :   0.9694 B( 25-C , 67-H ) :   0.9760 
B( 25-C , 68-H ) :   0.9828 B( 25-C , 69-H ) :   0.9822 B( 26-C , 27-C ) :   1.2324 
B( 26-C , 70-H ) :   0.9711 B( 27-C , 29-C ) :   1.2173 B( 28-C , 71-H ) :   0.9718 
B( 29-C , 30-C ) :   1.2377 B( 30-C , 32-C ) :   1.2863 B( 31-C , 39-C ) :   1.5993 
B( 31-C , 72-H ) :   0.9685 B( 32-C , 37-C ) :   1.5729 B( 32-C , 73-H ) :   0.9783 
B( 33-C , 34-C ) :   1.3003 B( 33-C , 39-C ) :   1.2936 B( 33-C , 40-C ) :   1.1931 
B( 34-C , 35-C ) :   1.5958 B( 34-C , 74-H ) :   0.9698 B( 35-C , 75-H ) :   0.9686 
B( 36-C , 76-H ) :   0.9766 B( 36-C , 77-H ) :   0.9817 B( 36-C , 78-H ) :   0.9825 
B( 37-C , 38-C ) :   1.2900 B( 37-C , 79-H ) :   0.9769 B( 38-C , 40-C ) :   1.2286 
B( 39-C , 80-H ) :   0.9708 B( 40-C , 41-C ) :   1.2424 B( 41-C , 43-C ) :   1.1940 
B( 42-C , 50-C ) :   1.6357 B( 42-C , 81-H ) :   0.9697 B( 43-C , 48-C ) :   1.6577 
B( 43-C , 82-H ) :   0.9724 B( 44-C , 45-C ) :   1.2632 B( 44-C , 50-C ) :   1.2689 
B( 44-C , 51-C ) :   1.2641 B( 45-C , 46-C ) :   1.6366 B( 45-C , 83-H ) :   0.9717 
B( 46-C , 84-H ) :   0.9701 B( 47-C , 85-H ) :   0.9762 B( 47-C , 86-H ) :   0.9829 
B( 47-C , 87-H ) :   0.9825 B( 48-C , 49-C ) :   1.1971 B( 48-C , 88-H ) :   0.9747 
B( 49-C , 51-C ) :   1.2330 B( 50-C , 89-H ) :   0.9710 

-------
TIMINGS
-------

Total SCF time: 0 days 0 hours 42 min 38 sec 

Total time                  ....    2558.056 sec
Sum of individual times     ....    2555.101 sec  ( 99.9%)

Fock matrix formation       ....    2537.458 sec  ( 99.2%)
Diagonalization             ....       4.714 sec  (  0.2%)
Density matrix formation    ....       0.494 sec  (  0.0%)
Population analysis         ....       0.311 sec  (  0.0%)
Initial guess               ....       2.305 sec  (  0.1%)
Orbital Transformation      ....       0.000 sec  (  0.0%)
Orbital Orthonormalization  ....       0.000 sec  (  0.0%)
DIIS solution               ....       2.570 sec  (  0.1%)
SOSCF solution              ....       5.907 sec  (  0.2%)

Maximum memory used throughout the entire SCF-calculation: 304.2 MB


           ************************************************************
           *        Program running with 8 parallel MPI-processes     *
           *              working on a common directory               *
           ************************************************************

------------------------------------------------------------------------------
                                ORCA  MP2 
------------------------------------------------------------------------------

Freezing NCore=104 chemical core electrons

----------
MP2 ENERGY (disk based algorithm)
----------

Dimension of the basis                    ...  918
Memory devoted to MP2                     ... 7000 MB   
Data format for buffers                   ... DOUBLE
Compression type for matrix containers    ... UNCOMPRESSED

-------------------------------
PARTIAL EXCHANGE TRANSFORMATION
-------------------------------

Transformation type                        ... one-operator
Generation of integrals (i,mue|j,nue)      ... ON
Generation of integrals (mue,kappa|nue,tau)... OFF
Generation of integrals (i,mue|a,nue)      ... OFF
Dimension of the basis                     ...  918
Number of internal MOs                     ...  127 (  52- 178)
Pair cutoff                                ... 2.500e-12 Eh
Number of AO pairs in the trafo            ... 421821
Total Number of distinct AO pairs          ... 421821
Memory devoted for trafo                   ... 7000.0 MB 
Max. Number of MO pairs treated together   ... 1088      
Number Format for Storage                  ... Double (8 Byte)
Integral package used                      ... LIBINT

Starting integral evaluation:
    ... done with AO integral generation
Closing buffer AOK     (38.26 GB; CompressionRatio= 1.32)
Collecting buffer AOK 
Number of MO pairs included in the trafo   ... 8128
------------------------
SORTING OF (i,mue|j,nue)
------------------------

IBATCH = 1 of  1
Closing buffer KAO     (51.03 GB; CompressionRatio= 1.00)
Collecting buffer KAO 
N(AO-Batches) Done                         ... 174408943 
N(AO-Batches) Skipped                      ... 167283953 
N(IJ)-pairs Skipped                        ...         0 
TOTAL TIME for half transformation         ...  1398.939 sec
AO-integral generation                     ...   250.185 sec
Half transformation                        ...   466.522 sec
K-integral sorting                         ...   352.611 sec

Finished integral transformation - now doing MP2 part

OPERATOR COMBINATION   0   0: ij=( 52..178, 52..178)
Process 5:   Internal MO 132
Process 2:   Internal MO  84
Process 0:   Internal MO  54
Process 0:   Internal MO  57
Process 1:   Internal MO  69
Process 0:   Internal MO  60
Process 4:   Internal MO 117
Process 0:   Internal MO  63
Process 1:   Internal MO  72
Process 2:   Internal MO  87
Process 3:   Internal MO 102
Process 0:   Internal MO  66
Process 7:   Internal MO 165
Process 1:   Internal MO  75
Process 6:   Internal MO 150
Process 2:   Internal MO  90
Process 1:   Internal MO  78
Process 5:   Internal MO 135
Process 3:   Internal MO 105
Process 4:   Internal MO 120
Process 1:   Internal MO  81
Process 2:   Internal MO  93
Process 3:   Internal MO 108
Process 2:   Internal MO  96
Process 7:   Internal MO 168
Process 4:   Internal MO 123
Process 6:   Internal MO 153
Process 5:   Internal MO 138
Process 2:   Internal MO  99
Process 3:   Internal MO 111
Process 4:   Internal MO 126
Process 5:   Internal MO 141
Process 3:   Internal MO 114
Process 6:   Internal MO 156
Process 7:   Internal MO 171
Process 4:   Internal MO 129
Process 5:   Internal MO 144
Process 6:   Internal MO 159
Process 7:   Internal MO 174
Process 5:   Internal MO 147
Process 6:   Internal MO 162
Process 7:   Internal MO 177
-----------------------------------------------
 MP2 CORRELATION ENERGY   :     -7.282474392 Eh
-----------------------------------------------


-------
TIMINGS
-------
Total time                : 1555.164 sec
Integral trafo            : 1406.164 sec ( 90.4%)
K(i,j)                    :    9.274 sec (  0.6%)
T(i,j)                    :    0.117 sec (  0.0%)

---------------------------------------
MP2 TOTAL ENERGY:    -2130.907042393 Eh
---------------------------------------

Maximum memory used throughout the entire MP2-calculation: 6735.8 MB

-------------------------   --------------------
FINAL SINGLE POINT ENERGY     -2130.907042393353
-------------------------   --------------------


                            ***************************************
                            *     ORCA property calculations      *
                            ***************************************


  WARNING: The energy has been calculated at the MP2 level but the densities
           used in the property calculations are still SCF densities
           MP2 response densities have not been calculated 
           use %mp2 Density relaxed end
           or  %mp2 Density unrelaxed end

                                    ---------------------
                                    Active property flags
                                    ---------------------
   (+) Dipole Moment


------------------------------------------------------------------------------
                       ORCA ELECTRIC PROPERTIES CALCULATION
------------------------------------------------------------------------------

Dipole Moment Calculation                       ... on
Quadrupole Moment Calculation                   ... off
Polarizability Calculation                      ... off
GBWName                                         ... /scratch/chu_02/allen/tmpyp4_amber_gaff2/conf1/conf1/Conf324.orca.gbw
Electron density                                ... /scratch/chu_02/allen/tmpyp4_amber_gaff2/conf1/conf1/Conf324.orca.scfp
The origin for moment calculation is the CENTER OF MASS  = (-0.001265, -0.004890  0.000155)

-------------
DIPOLE MOMENT
-------------
                                X             Y             Z
Electronic contribution:      1.82494      -3.62316      -0.06357
Nuclear contribution   :      0.00136       0.18593       0.07313
                        -----------------------------------------
Total Dipole Moment    :      1.82630      -3.43723       0.00956
                        -----------------------------------------
Magnitude (a.u.)       :      3.89230
Magnitude (Debye)      :      9.89345



--------------------
Rotational spectrum 
--------------------
 
Rotational constants in cm-1:     0.001501     0.001475     0.000761 
Rotational constants in MHz :    45.012940    44.232489    22.813830 

 Dipole components along the rotational axes: 
x,y,z [a.u.] :     2.637975    -2.861987     0.011722 
x,y,z [Debye]:     6.705199    -7.274592     0.029796 

 

Timings for individual modules:

Sum of individual times         ...     4118.729 sec (=  68.645 min)
GTO integral calculation        ...        2.858 sec (=   0.048 min)   0.1 %
SCF iterations                  ...     2559.338 sec (=  42.656 min)  62.1 %
MP2 module                      ...     1556.533 sec (=  25.942 min)  37.8 %
                             ****ORCA TERMINATED NORMALLY****
TOTAL RUN TIME: 0 days 1 hours 8 minutes 40 seconds 851 msec
# of primitive gaussian functions

