
                                 *****************
                                 * O   R   C   A *
                                 *****************

                                            #,                                       
                                            ###                                      
                                            ####                                     
                                            #####                                    
                                            ######                                   
                                           ########,                                 
                                     ,,################,,,,,                         
                               ,,#################################,,                 
                          ,,##########################################,,             
                       ,#########################################, ''#####,          
                    ,#############################################,,   '####,        
                  ,##################################################,,,,####,       
                ,###########''''           ''''###############################       
              ,#####''   ,,,,##########,,,,          '''####'''          '####       
            ,##' ,,,,###########################,,,                        '##       
           ' ,,###''''                  '''############,,,                           
         ,,##''                                '''############,,,,        ,,,,,,###''
      ,#''                                            '''#######################'''  
     '                                                          ''''####''''         
             ,#######,   #######,   ,#######,      ##                                
            ,#'     '#,  ##    ##  ,#'     '#,    #''#        ######   ,####,        
            ##       ##  ##   ,#'  ##            #'  '#       #        #'  '#        
            ##       ##  #######   ##           ,######,      #####,   #    #        
            '#,     ,#'  ##    ##  '#,     ,#' ,#      #,         ##   #,  ,#        
             '#######'   ##     ##  '#######'  #'      '#     #####' # '####'        



                  #######################################################
                  #                        -***-                        #
                  #          Department of theory and spectroscopy      #
                  #    Directorship and core code : Frank Neese         #
                  #        Max Planck Institute fuer Kohlenforschung    #
                  #                Kaiser Wilhelm Platz 1               #
                  #                 D-45470 Muelheim/Ruhr               #
                  #                      Germany                        #
                  #                                                     #
                  #                  All rights reserved                #
                  #                        -***-                        #
                  #######################################################


                         Program Version 5.0.4 -  RELEASE  -


 With contributions from (in alphabetic order):
   Daniel Aravena         : Magnetic Suceptibility
   Michael Atanasov       : Ab Initio Ligand Field Theory (pilot matlab implementation)
   Alexander A. Auer      : GIAO ZORA, VPT2 properties, NMR spectrum
   Ute Becker             : Parallelization
   Giovanni Bistoni       : ED, misc. LED, open-shell LED, HFLD
   Martin Brehm           : Molecular dynamics
   Dmytro Bykov           : SCF Hessian
   Vijay G. Chilkuri      : MRCI spin determinant printing, contributions to CSF-ICE
   Dipayan Datta          : RHF DLPNO-CCSD density
   Achintya Kumar Dutta   : EOM-CC, STEOM-CC
   Dmitry Ganyushin       : Spin-Orbit,Spin-Spin,Magnetic field MRCI
   Miquel Garcia          : C-PCM and meta-GGA Hessian, CC/C-PCM, Gaussian charge scheme
   Yang Guo               : DLPNO-NEVPT2, F12-NEVPT2, CIM, IAO-localization
   Andreas Hansen         : Spin unrestricted coupled pair/coupled cluster methods
   Benjamin Helmich-Paris : MC-RPA, TRAH-SCF, COSX integrals
   Lee Huntington         : MR-EOM, pCC
   Robert Izsak           : Overlap fitted RIJCOSX, COSX-SCS-MP3, EOM
   Marcus Kettner         : VPT2
   Christian Kollmar      : KDIIS, OOCD, Brueckner-CCSD(T), CCSD density, CASPT2, CASPT2-K
   Simone Kossmann        : Meta GGA functionals, TD-DFT gradient, OOMP2, MP2 Hessian
   Martin Krupicka        : Initial AUTO-CI
   Lucas Lang             : DCDCAS
   Marvin Lechner         : AUTO-CI (C++ implementation), FIC-MRCC
   Dagmar Lenk            : GEPOL surface, SMD
   Dimitrios Liakos       : Extrapolation schemes; Compound Job, initial MDCI parallelization
   Dimitrios Manganas     : Further ROCIS development; embedding schemes
   Dimitrios Pantazis     : SARC Basis sets
   Anastasios Papadopoulos: AUTO-CI, single reference methods and gradients
   Taras Petrenko         : DFT Hessian,TD-DFT gradient, ASA, ECA, R-Raman, ABS, FL, XAS/XES, NRVS
   Peter Pinski           : DLPNO-MP2, DLPNO-MP2 Gradient
   Christoph Reimann      : Effective Core Potentials
   Marius Retegan         : Local ZFS, SOC
   Christoph Riplinger    : Optimizer, TS searches, QM/MM, DLPNO-CCSD(T), (RO)-DLPNO pert. Triples
   Tobias Risthaus        : Range-separated hybrids, TD-DFT gradient, RPA, STAB
   Michael Roemelt        : Original ROCIS implementation
   Masaaki Saitow         : Open-shell DLPNO-CCSD energy and density
   Barbara Sandhoefer     : DKH picture change effects
   Avijit Sen             : IP-ROCIS
   Kantharuban Sivalingam : CASSCF convergence, NEVPT2, FIC-MRCI
   Bernardo de Souza      : ESD, SOC TD-DFT
   Georgi Stoychev        : AutoAux, RI-MP2 NMR, DLPNO-MP2 response
   Willem Van den Heuvel  : Paramagnetic NMR
   Boris Wezisla          : Elementary symmetry handling
   Frank Wennmohs         : Technical directorship


 We gratefully acknowledge several colleagues who have allowed us to
 interface, adapt or use parts of their codes:
   Stefan Grimme, W. Hujo, H. Kruse, P. Pracht,  : VdW corrections, initial TS optimization,
                  C. Bannwarth, S. Ehlert          DFT functionals, gCP, sTDA/sTD-DF
   Ed Valeev, F. Pavosevic, A. Kumar             : LibInt (2-el integral package), F12 methods
   Garnet Chan, S. Sharma, J. Yang, R. Olivares  : DMRG
   Ulf Ekstrom                                   : XCFun DFT Library
   Mihaly Kallay                                 : mrcc  (arbitrary order and MRCC methods)
   Jiri Pittner, Ondrej Demel                    : Mk-CCSD
   Frank Weinhold                                : gennbo (NPA and NBO analysis)
   Christopher J. Cramer and Donald G. Truhlar   : smd solvation model
   Lars Goerigk                                  : TD-DFT with DH, B97 family of functionals
   V. Asgeirsson, H. Jonsson                     : NEB implementation
   FAccTs GmbH                                   : IRC, NEB, NEB-TS, DLPNO-Multilevel, CI-OPT
                                                   MM, QMMM, 2- and 3-layer-ONIOM, Crystal-QMMM,
                                                   LR-CPCM, SF, NACMEs, symmetry and pop. for TD-DFT,
                                                   nearIR, NL-DFT gradient (VV10), updates on ESD,
                                                   ML-optimized integration grids
   S Lehtola, MJT Oliveira, MAL Marques          : LibXC Library
   Liviu Ungur et al                             : ANISO software


 Your calculation uses the libint2 library for the computation of 2-el integrals
 For citations please refer to: http://libint.valeyev.net

 Your ORCA version has been built with support for libXC version: 5.1.0
 For citations please refer to: https://tddft.org/programs/libxc/

 This ORCA versions uses:
   CBLAS   interface :  Fast vector & matrix operations
   LAPACKE interface :  Fast linear algebra routines
   SCALAPACK package :  Parallel linear algebra routines
   Shared memory     :  Shared parallel matrices
   BLAS/LAPACK       :  OpenBLAS 0.3.15  USE64BITINT DYNAMIC_ARCH NO_AFFINITY Sandybridge SINGLE_THREADED
        Core in use  :  Sandybridge
   Copyright (c) 2011-2014, The OpenBLAS Project


================================================================================

----- Orbital basis set information -----
Your calculation utilizes the basis: cc-pVDZ 
       H, B-Ne : Obtained from the ccRepo (grant-hill.group.shef.ac.uk/ccrepo) Feb. 2017
                 T. H. Dunning, Jr., J. Chem. Phys. 90, 1007 (1989)
            He : Obtained from the ccRepo (grant-hill.group.shef.ac.uk/ccrepo) Feb. 2017
                 D. E. Woon, T. H. Dunning, Jr., J. Chem. Phys. 100, 2975 (1994)
  Li-Be, Na-Mg : Obtained from the ccRepo (grant-hill.group.shef.ac.uk/ccrepo) Feb. 2017
                 B. P. Prascher, D. E. Woon, K. A. Peterson, T. H. Dunning, Jr., A. K. Wilson, Theor. Chem. Acc. 128, 69 (2011)
         Al-Ar : Obtained from the ccRepo (grant-hill.group.shef.ac.uk/ccrepo) Feb. 2017
                 D. E. Woon, T. H. Dunning, Jr., J. Chem. Phys. 98, 1358 (1993)
            Ca : Obtained from the Peterson Research Group Website (tyr0.chem.wsu.edu/~kipeters) Feb. 2017
                 J. Koput, K. A. Peterson, J. Phys. Chem. 106, 9595 (2002)
         Sc-Zn : Obtained from the ccRepo (grant-hill.group.shef.ac.uk/ccrepo) Feb. 2017
                 N. B. Balabanov, K. A. Peterson, J. Chem. Phys. 123, 064107 (2005)
                 N. B. Balabanov, K. A. Peterson, J. Chem. Phys. 125, 074110 (2006)
         Ga-Kr : Obtained from the ccRepo (grant-hill.group.shef.ac.uk/ccrepo) Feb. 2017
                 A. K. Wilson, D. E. Woon, K. A. Peterson, T. H. Dunning, Jr., J. Chem. Phys. 110, 7667 (1999)

================================================================================
                                        WARNINGS
                       Please study these warnings very carefully!
================================================================================


WARNING: No MP2 level density has been requested!
         To caclulate MP2 level properties use
         %mp2 Density relaxed end
         or
         %mp2 Density unrelaxed end

WARNING: Post HF methods need fully converged wavefunctions
  ===> : Setting SCFConvForced true
         You can overwrite this default with %scf ConvForced false 


INFO   : the flag for use of the SHARK integral package has been found!

================================================================================
                                       INPUT FILE
================================================================================
NAME = /scratch/allen/tmpyp4_amber_gaff2/2.Mdgx/conf11/conf11/Conf132.orca
|  1> ! PAL2
|  2> ! mp2 cc-pvdz TightSCF  NoKeepInts
|  3> 
|  4> %scf
|  5>   MaxCore 2000
|  6> end
|  7> %mp2
|  8>   MaxCore 2000
|  9> end
| 10> * xyz 0 1
| 11>    C       -4.61700         5.43100        -0.81100
| 12>    C        1.47400         4.04100         0.05700
| 13>    C       -2.80200         4.09300         0.04900
| 14>    C       -2.55500         5.11700         0.97700
| 15>    C       -3.34000         6.25200         0.98200
| 16>    C       -5.19900         7.61100         0.15200
| 17>    C        0.13200         4.30700         0.06100
| 18>    C       -0.56900         3.05600         0.04700
| 19>    C        1.64900         2.61800         0.02300
| 20>    C       -3.86200         4.27500        -0.85200
| 21>    N       -4.35200         6.39900         0.09500
| 22>    N        0.38800         2.06700         0.02500
| 23>    N       -2.01000         0.39500        -0.07500
| 24>    N       -0.38800        -2.07400        -0.02700
| 25>    N        2.01000        -0.40100         0.06500
| 26>    C       -1.96000         2.86100         0.02400
| 27>    C       -2.62300         1.61500        -0.01800
| 28>    C       -5.57300        -4.32900         1.06600
| 29>    C       -4.07300         1.47100         0.05600
| 30>    C       -4.10600        -2.75600        -0.02600
| 31>    C       -4.99500        -2.75700        -1.11100
| 32>    C       -6.13200        -3.54200        -1.07600
| 33>    C       -7.65100        -5.11300         0.04000
| 34>    C       -4.32400         0.14100         0.03700
| 35>    C       -3.02500        -0.52000        -0.04800
| 36>    C       -4.42200        -3.56600         1.07500
| 37>    N       -6.40700        -4.31300         0.00100
| 38>    C       -2.86700        -1.92200        -0.04000
| 39>    C       -1.65000        -2.62400        -0.02700
| 40>    C        3.56800        -6.14200        -1.04000
| 41>    C       -1.47600        -4.04900        -0.03400
| 42>    C        2.80300        -4.09900        -0.00800
| 43>    C        3.65700        -4.38400         1.06900
| 44>    C        4.42700        -5.53000         1.05900
| 45>    C        5.24500        -7.58800         0.01400
| 46>    C       -0.13400        -4.31500        -0.02200
| 47>    C        0.56800        -3.06400        -0.02700
| 48>    C        2.77500        -5.01200        -1.07400
| 49>    N        4.37600        -6.39100         0.01700
| 50>    C        1.95900        -2.86900        -0.00900
| 51>    C        2.62100        -1.62200         0.00900
| 52>    C        5.54300         4.33900        -1.13000
| 53>    C        4.07000        -1.47900        -0.09400
| 54>    C        4.10400         2.75100        -0.02100
| 55>    C        5.02700         2.72900         1.03600
| 56>    C        6.16600         3.50900         0.97800
| 57>    C        7.61900         5.15300        -0.11500
| 58>    C        4.32100        -0.14800        -0.09200
| 59>    C        3.02500         0.51400         0.01500
| 60>    C        4.38700         3.58200        -1.11500
| 61>    C        2.86600         1.91600         0.01300
| 62>    N        6.41300         4.29600        -0.09500
| 63>    H       -5.43600         5.61900        -1.49500
| 64>    H        2.27400         4.76600         0.08100
| 65>    H       -1.75700         5.03100         1.70400
| 66>    H       -3.19400         7.06300         1.68400
| 67>    H       -5.99900         7.45100         0.87900
| 68>    H       -4.58200         8.45700         0.45300
| 69>    H       -5.62200         7.78900        -0.83600
| 70>    H       -0.33200         5.28200         0.06900
| 71>    H       -4.09500         3.52700        -1.60200
| 72>    H        0.18200         1.07200         0.00500
| 73>    H       -0.18300        -1.08000        -0.02100
| 74>    H       -5.86400        -4.96200         1.89500
| 75>    H       -4.79400         2.27200         0.13900
| 76>    H       -4.80000        -2.16000        -1.99400
| 77>    H       -6.84100        -3.58200        -1.89300
| 78>    H       -8.42800        -4.53600         0.54600
| 79>    H       -7.95600        -5.33700        -0.98100
| 80>    H       -7.45600        -6.03700         0.58400
| 81>    H       -5.28700        -0.34400         0.10000
| 82>    H       -3.78000        -3.60100         1.94700
| 83>    H        3.58700        -6.86800        -1.84300
| 84>    H       -2.27600        -4.77400        -0.05000
| 85>    H        3.71400        -3.72400         1.92600
| 86>    H        5.09200        -5.79500         1.87100
| 87>    H        6.20500        -7.32900        -0.43900
| 88>    H        5.39300        -7.91700         1.04200
| 89>    H        4.75900        -8.37300        -0.56400
| 90>    H        0.32900        -5.29000        -0.00800
| 91>    H        2.14600        -4.84200        -1.94000
| 92>    H        5.80800         4.98600        -1.95600
| 93>    H        4.78800        -2.28100        -0.18500
| 94>    H        4.86000         2.11400         1.91200
| 95>    H        6.90100         3.53100         1.77200
| 96>    H        7.38300         6.10900         0.35600
| 97>    H        8.41400         4.65200         0.43500
| 98>    H        7.92100         5.31000        -1.15000
| 99>    H        5.28300         0.33600        -0.17900
|100>    H        3.72000         3.63200        -1.96700
|101> *
|102> 
|103>                          ****END OF INPUT****
================================================================================

                       ****************************
                       * Single Point Calculation *
                       ****************************

---------------------------------
CARTESIAN COORDINATES (ANGSTROEM)
---------------------------------
  C     -4.617000    5.431000   -0.811000
  C      1.474000    4.041000    0.057000
  C     -2.802000    4.093000    0.049000
  C     -2.555000    5.117000    0.977000
  C     -3.340000    6.252000    0.982000
  C     -5.199000    7.611000    0.152000
  C      0.132000    4.307000    0.061000
  C     -0.569000    3.056000    0.047000
  C      1.649000    2.618000    0.023000
  C     -3.862000    4.275000   -0.852000
  N     -4.352000    6.399000    0.095000
  N      0.388000    2.067000    0.025000
  N     -2.010000    0.395000   -0.075000
  N     -0.388000   -2.074000   -0.027000
  N      2.010000   -0.401000    0.065000
  C     -1.960000    2.861000    0.024000
  C     -2.623000    1.615000   -0.018000
  C     -5.573000   -4.329000    1.066000
  C     -4.073000    1.471000    0.056000
  C     -4.106000   -2.756000   -0.026000
  C     -4.995000   -2.757000   -1.111000
  C     -6.132000   -3.542000   -1.076000
  C     -7.651000   -5.113000    0.040000
  C     -4.324000    0.141000    0.037000
  C     -3.025000   -0.520000   -0.048000
  C     -4.422000   -3.566000    1.075000
  N     -6.407000   -4.313000    0.001000
  C     -2.867000   -1.922000   -0.040000
  C     -1.650000   -2.624000   -0.027000
  C      3.568000   -6.142000   -1.040000
  C     -1.476000   -4.049000   -0.034000
  C      2.803000   -4.099000   -0.008000
  C      3.657000   -4.384000    1.069000
  C      4.427000   -5.530000    1.059000
  C      5.245000   -7.588000    0.014000
  C     -0.134000   -4.315000   -0.022000
  C      0.568000   -3.064000   -0.027000
  C      2.775000   -5.012000   -1.074000
  N      4.376000   -6.391000    0.017000
  C      1.959000   -2.869000   -0.009000
  C      2.621000   -1.622000    0.009000
  C      5.543000    4.339000   -1.130000
  C      4.070000   -1.479000   -0.094000
  C      4.104000    2.751000   -0.021000
  C      5.027000    2.729000    1.036000
  C      6.166000    3.509000    0.978000
  C      7.619000    5.153000   -0.115000
  C      4.321000   -0.148000   -0.092000
  C      3.025000    0.514000    0.015000
  C      4.387000    3.582000   -1.115000
  C      2.866000    1.916000    0.013000
  N      6.413000    4.296000   -0.095000
  H     -5.436000    5.619000   -1.495000
  H      2.274000    4.766000    0.081000
  H     -1.757000    5.031000    1.704000
  H     -3.194000    7.063000    1.684000
  H     -5.999000    7.451000    0.879000
  H     -4.582000    8.457000    0.453000
  H     -5.622000    7.789000   -0.836000
  H     -0.332000    5.282000    0.069000
  H     -4.095000    3.527000   -1.602000
  H      0.182000    1.072000    0.005000
  H     -0.183000   -1.080000   -0.021000
  H     -5.864000   -4.962000    1.895000
  H     -4.794000    2.272000    0.139000
  H     -4.800000   -2.160000   -1.994000
  H     -6.841000   -3.582000   -1.893000
  H     -8.428000   -4.536000    0.546000
  H     -7.956000   -5.337000   -0.981000
  H     -7.456000   -6.037000    0.584000
  H     -5.287000   -0.344000    0.100000
  H     -3.780000   -3.601000    1.947000
  H      3.587000   -6.868000   -1.843000
  H     -2.276000   -4.774000   -0.050000
  H      3.714000   -3.724000    1.926000
  H      5.092000   -5.795000    1.871000
  H      6.205000   -7.329000   -0.439000
  H      5.393000   -7.917000    1.042000
  H      4.759000   -8.373000   -0.564000
  H      0.329000   -5.290000   -0.008000
  H      2.146000   -4.842000   -1.940000
  H      5.808000    4.986000   -1.956000
  H      4.788000   -2.281000   -0.185000
  H      4.860000    2.114000    1.912000
  H      6.901000    3.531000    1.772000
  H      7.383000    6.109000    0.356000
  H      8.414000    4.652000    0.435000
  H      7.921000    5.310000   -1.150000
  H      5.283000    0.336000   -0.179000
  H      3.720000    3.632000   -1.967000

----------------------------
CARTESIAN COORDINATES (A.U.)
----------------------------
  NO LB      ZA    FRAG     MASS         X           Y           Z
   0 C     6.0000    0    12.011   -8.724866   10.263103   -1.532568
   1 C     6.0000    0    12.011    2.785456    7.636383    0.107714
   2 C     6.0000    0    12.011   -5.295013    7.734649    0.092597
   3 C     6.0000    0    12.011   -4.828250    9.669729    1.846262
   4 C     6.0000    0    12.011   -6.311685   11.814568    1.855711
   5 C     6.0000    0    12.011   -9.824686   14.382706    0.287238
   6 C     6.0000    0    12.011    0.249444    8.139050    0.115273
   7 C     6.0000    0    12.011   -1.075254    5.775003    0.088817
   8 C     6.0000    0    12.011    3.116158    4.947303    0.043464
   9 C     6.0000    0    12.011   -7.298122    8.078579   -1.610047
  10 N     7.0000    0    14.007   -8.224088   12.092358    0.179524
  11 N     7.0000    0    14.007    0.733214    3.906064    0.047243
  12 N     7.0000    0    14.007   -3.798350    0.746442   -0.141729
  13 N     7.0000    0    14.007   -0.733214   -3.919292   -0.051023
  14 N     7.0000    0    14.007    3.798350   -0.757780    0.122832
  15 C     6.0000    0    12.011   -3.703863    5.406506    0.045353
  16 C     6.0000    0    12.011   -4.956752    3.051908   -0.034015
  17 C     6.0000    0    12.011  -10.531444   -8.180624    2.014448
  18 C     6.0000    0    12.011   -7.696855    2.779787    0.105825
  19 C     6.0000    0    12.011   -7.759216   -5.208085   -0.049133
  20 C     6.0000    0    12.011   -9.439182   -5.209975   -2.099486
  21 C     6.0000    0    12.011  -11.587801   -6.693410   -2.033345
  22 C     6.0000    0    12.011  -14.458295   -9.662170    0.075589
  23 C     6.0000    0    12.011   -8.171176    0.266451    0.069920
  24 C     6.0000    0    12.011   -5.716422   -0.982658   -0.090707
  25 C     6.0000    0    12.011   -8.356369   -6.738763    2.031456
  26 N     7.0000    0    14.007  -12.107475   -8.150389    0.001890
  27 C     6.0000    0    12.011   -5.417845   -3.632054   -0.075589
  28 C     6.0000    0    12.011   -3.118048   -4.958641   -0.051023
  29 C     6.0000    0    12.011    6.742543  -11.606698   -1.965315
  30 C     6.0000    0    12.011   -2.789236   -7.651501   -0.064251
  31 C     6.0000    0    12.011    5.296902   -7.745987   -0.015118
  32 C     6.0000    0    12.011    6.910728   -8.284559    2.020117
  33 C     6.0000    0    12.011    8.365818  -10.450186    2.001220
  34 C     6.0000    0    12.011    9.911614  -14.339242    0.026456
  35 C     6.0000    0    12.011   -0.253223   -8.154168   -0.041574
  36 C     6.0000    0    12.011    1.073364   -5.790121   -0.051023
  37 C     6.0000    0    12.011    5.243990   -9.471307   -2.029566
  38 N     7.0000    0    14.007    8.269442  -12.077240    0.032125
  39 C     6.0000    0    12.011    3.701973   -5.421624   -0.017008
  40 C     6.0000    0    12.011    4.952972   -3.065136    0.017008
  41 C     6.0000    0    12.011   10.474752    8.199522   -2.135391
  42 C     6.0000    0    12.011    7.691185   -2.794905   -0.177634
  43 C     6.0000    0    12.011    7.755436    5.198637   -0.039684
  44 C     6.0000    0    12.011    9.499653    5.157063    1.957756
  45 C     6.0000    0    12.011   11.652051    6.631049    1.848152
  46 C     6.0000    0    12.011   14.397823    9.737759   -0.217319
  47 C     6.0000    0    12.011    8.165507   -0.279679   -0.173855
  48 C     6.0000    0    12.011    5.716422    0.971319    0.028346
  49 C     6.0000    0    12.011    8.290229    6.768999   -2.107045
  50 C     6.0000    0    12.011    5.415955    3.620715    0.024566
  51 N     7.0000    0    14.007   12.118814    8.118263   -0.179524
  52 H     1.0000    0     1.008  -10.272551   10.618371   -2.825141
  53 H     1.0000    0     1.008    4.297237    9.006435    0.153068
  54 H     1.0000    0     1.008   -3.320249    9.507212    3.220093
  55 H     1.0000    0     1.008   -6.035785   13.347136    3.182299
  56 H     1.0000    0     1.008  -11.336467   14.080349    1.661069
  57 H     1.0000    0     1.008   -8.658725   15.981414    0.856046
  58 H     1.0000    0     1.008  -10.624040   14.719077   -1.579811
  59 H     1.0000    0     1.008   -0.627389    9.981533    0.130391
  60 H     1.0000    0     1.008   -7.738429    6.665064   -3.027341
  61 H     1.0000    0     1.008    0.343930    2.025786    0.009449
  62 H     1.0000    0     1.008   -0.345820   -2.040904   -0.039684
  63 H     1.0000    0     1.008  -11.081354   -9.376821    3.581031
  64 H     1.0000    0     1.008   -9.059347    4.293458    0.262672
  65 H     1.0000    0     1.008   -9.070685   -4.081808   -3.768114
  66 H     1.0000    0     1.008  -12.927616   -6.768999   -3.577252
  67 H     1.0000    0     1.008  -15.926612   -8.571798    1.031790
  68 H     1.0000    0     1.008  -15.034661  -10.085468   -1.853821
  69 H     1.0000    0     1.008  -14.089798  -11.408277    1.103600
  70 H     1.0000    0     1.008   -9.990982   -0.650066    0.188973
  71 H     1.0000    0     1.008   -7.143165   -6.804904    3.679297
  72 H     1.0000    0     1.008    6.778448  -12.978639   -3.482765
  73 H     1.0000    0     1.008   -4.301017   -9.021553   -0.094486
  74 H     1.0000    0     1.008    7.018443   -7.037340    3.639613
  75 H     1.0000    0     1.008    9.622485  -10.950963    3.535678
  76 H     1.0000    0     1.008   11.725751  -13.849803   -0.829590
  77 H     1.0000    0     1.008   10.191293  -14.960962    1.969095
  78 H     1.0000    0     1.008    8.993207  -15.822677   -1.065806
  79 H     1.0000    0     1.008    0.621720   -9.996651   -0.015118
  80 H     1.0000    0     1.008    4.055352   -9.150054   -3.666069
  81 H     1.0000    0     1.008   10.975529    9.422175   -3.696304
  82 H     1.0000    0     1.008    9.048009   -4.310465   -0.349599
  83 H     1.0000    0     1.008    9.184069    3.994881    3.613156
  84 H     1.0000    0     1.008   13.041000    6.672623    3.348595
  85 H     1.0000    0     1.008   13.951848   11.544337    0.672743
  86 H     1.0000    0     1.008   15.900156    8.791006    0.822031
  87 H     1.0000    0     1.008   14.968521   10.034446   -2.173185
  88 H     1.0000    0     1.008    9.983423    0.634948   -0.338261
  89 H     1.0000    0     1.008    7.029781    6.863485   -3.717091

--------------------------------
INTERNAL COORDINATES (ANGSTROEM)
--------------------------------
 C      0   0   0     0.000000000000     0.00000000     0.00000000
 C      1   0   0     6.307598988522     0.00000000     0.00000000
 C      1   2   0     2.413310796396    26.17252180     0.00000000
 C      3   1   2     1.403840802940    87.90708021    72.45113922
 C      4   3   1     1.380027173646   120.14749196     0.09001283
 C      5   4   3     2.447787163950   152.54764581     1.72697284
 C      2   1   3     1.368114030335     8.24172103   313.75074195
 C      7   2   4     1.434084376876   108.05010202   252.67159782
 C      2   1   3     1.434123425651   109.46511516    36.47998307
 C      1   2   7     1.381318934931    44.91556087   271.06890090
 N      1   2   7     1.352066936213    82.89395404    59.90346482
 N      9   2   1     1.376127174356   106.58526707   350.62777454
 N     12   9   2     2.925062050624   168.53581413   171.12065651
 N     13  12   9     2.954513327098    91.55032014    11.12112580
 N     14  13  12     2.925371258490    88.43092389   359.84326247
 C      8   7   2     1.404790019896   127.24786865   181.11170171
 C     13  12   9     1.366535034311    81.72106996   188.00453233
 C     14  13  12     5.758810554272    80.56209567   166.76250791
 C     17  13  12     1.459010623676   111.08861209   183.82872609
 C     18  14  13     2.412235892279    27.27532823    36.33507194
 C     20  18  14     1.402692767501    87.95206320   148.94598259
 C     21  20  18     1.382106725257   120.14573887   359.70382047
 C     18  14  13     2.446510985056   144.15733107    82.80075377
 C     19  17  13     1.353610726908   106.29293361   359.75308708
 C     13  12   9     1.366813447402   172.21332906    33.46711076
 C     18  14  13     1.380960173213    15.08449437   309.23336894
 N     22  21  20     1.352773077792   120.73759875     0.27865223
 C     25  13  17     1.410897586645   125.60330303   182.37774668
 C     14  13  12     1.376642291955    80.24689249   177.85461986
 C     14  13  12     5.764089607215   164.51507311   312.20821879
 C     29  14  13     1.435600919476   106.58649366   178.76395472
 C     30  14  13     2.413316804732    27.10625047    82.12560436
 C     32  30  14     1.403734305344    87.90059683   149.76154742
 C     33  32  30     1.380694028378   120.14881443   359.74174632
 C     34  33  32     2.448777858443   152.49203239     2.45173620
 C     31  29  14     1.368160809262   108.16950133     0.70383075
 C     14  13  12     1.376239804685   169.26375223   353.09862627
 C     30  14  13     1.380907310430    14.68948582   353.70041132
 N     34  33  32     1.352658863128   120.85575621     0.19603406
 C     37  14  29     1.404717053360   126.01551127   180.90772073
 C     15  14  13     1.366491126938    81.61824056   183.09049352
 C      2   1   3     4.249062720177   150.55651320   157.13448082
 C     41  15  14     1.459677704153   111.05201287   175.08990246
 C     42   2   1     2.412953791518    41.78584867   210.67395885
 C     44  42   2     1.403446472082    87.95153797   233.97558675
 C     45  44  42     1.381696421071   120.11137308     0.19721020
 C     42   2   1     2.450019795838   135.97209175   120.98880795
 C     43  41  15     1.354461516618   106.26758155     0.30894352
 C     15  14  13     1.367461151185   171.87382904   332.35056460
 C     42   2   1     1.381886391857    32.59078432   259.52923804
 C      9   2   1     1.404988612053   126.98745415   171.63211207
 N     42   2   1     1.352765315936   113.57249190   148.72539714
 H      1   2   7     1.083494808479   148.76420634   191.43337061
 H      2   1   3     1.079907866440   124.78355828   208.24097735
 H      4   3   1     1.082926128598   121.03114943   179.55461959
 H      5   4   3     1.082516050689   122.80576098   179.38851123
 H      6   5   4     1.092762096707   104.42525885    99.97767872
 H      6   5   4     1.089498049562    84.68317787   209.44684518
 H      6   5   4     1.089383770762   133.87876687   322.35352767
 H      7   2  54     1.079807853278   126.66122480     1.30600390
 H     10   1   2     1.084570421872   118.70357943   217.58851439
 H     12   9   2     1.016297692608   125.29023241   180.00180175
 H     14  13  12     1.014936943854    44.97226959   359.42596618
 H     18  14  13     1.082871645210   128.03556573   234.20482432
 H     19  17  13     1.080893611786   126.41830519   178.11313280
 H     21  20  18     1.083569563987   121.05669627   180.67006309
 H     22  21  20     1.082483256222   122.73097286   180.59748951
 H     23  18  14     1.092105306278   103.92715769   234.93429879
 H     23  18  14     1.088871893291   134.19244188    12.25587044
 H     23  18  14     1.089833473518    84.85857450   125.45241208
 H     24  19  17     1.080075460327   127.28078426   178.44613241
 H     26  18  14     1.083408048706   118.76995697   244.94906660
 H     30  14  13     1.082703098730   127.99711412   279.66882698
 H     31  29  14     1.079759695488   125.22293469   180.92530585
 H     33  32  30     1.083188810873   121.01964473   180.74284758
 H     34  33  32     1.082494341787   122.70821597   180.59516895
 H     35  34  33     1.092652735319   105.73575241    97.19771933
 H     35  34  33     1.089462711615    84.05943581   206.43036958
 H     35  34  33     1.089268102902   133.08365142   318.50306270
 H     36  31  29     1.079439669458   126.61599965   178.98859863
 H     38  30  73     1.083742127999   118.77264435   359.90091293
 H     42   2   1     1.082178358682   119.31790784     5.35692760
 H     43  41  15     1.080281907652   126.36969097   182.06329380
 H     45  44  42     1.083277434455   121.10105945   179.58025624
 H     46  45  44     1.082194529648   122.72144639   179.46906377
 H     47  42   2     1.091546151109   106.65128841   315.16475048
 H     47  42   2     1.088818625851   132.46019523    94.52397119
 H     47  42   2     1.089531091801    83.63838232   206.04504406
 H     48  43  41     1.080402239909   127.23657387   181.62955349
 H     50  42   2     1.083186502870   118.77001737    94.71359229

---------------------------
INTERNAL COORDINATES (A.U.)
---------------------------
 C      0   0   0     0.000000000000     0.00000000     0.00000000
 C      1   0   0    11.919634650905     0.00000000     0.00000000
 C      1   2   0     4.560496481223    26.17252180     0.00000000
 C      3   1   2     2.652874653181    87.90708021    72.45113922
 C      4   3   1     2.607873415559   120.14749196     0.09001283
 C      5   4   3     4.625647373994   152.54764581     1.72697284
 C      2   1   3     2.585360837309     8.24172103   313.75074195
 C      7   2   4     2.710026725231   108.05010202   252.67159782
 C      2   1   3     2.710100516721   109.46511516    36.47998307
 C      1   2   7     2.610314490620    44.91556087   271.06890090
 N      1   2   7     2.555036224172    82.89395404    59.90346482
 N      9   2   1     2.600503484979   106.58526707   350.62777454
 N     12   9   2     5.527566200405   168.53581413   171.12065651
 N     13  12   9     5.583221047236    91.55032014    11.12112580
 N     14  13  12     5.528150518591    88.43092389   359.84326247
 C      8   7   2     2.654668413270   127.24786865   181.11170171
 C     13  12   9     2.582376967257    81.72106996   188.00453233
 C     14  13  12    10.882574804710    80.56209567   166.76250791
 C     17  13  12     2.757130505230   111.08861209   183.82872609
 C     18  14  13     4.558465206823    27.27532823    36.33507194
 C     20  18  14     2.650705180609    87.95206320   148.94598259
 C     21  20  18     2.611803198586   120.14573887   359.70382047
 C     18  14  13     4.623235745386   144.15733107    82.80075377
 C     19  17  13     2.557953565794   106.29293361   359.75308708
 C     13  12   9     2.582903091751   172.21332906    33.46711076
 C     18  14  13     2.609636529225    15.08449437   309.23336894
 N     22  21  20     2.556370638369   120.73759875     0.27865223
 C     25  13  17     2.666210041769   125.60330303   182.37774668
 C     14  13  12     2.601476916169    80.24689249   177.85461986
 C     14  13  12    10.892550769017   164.51507311   312.20821879
 C     29  14  13     2.712892575415   106.58649366   178.76395472
 C     30  14  13     4.560507835333    27.10625047    82.12560436
 C     32  30  14     2.652673401891    87.90059683   149.76154742
 C     33  32  30     2.609133588376   120.14881443   359.74174632
 C     34  33  32     4.627519515267   152.49203239     2.45173620
 C     31  29  14     2.585449236669   108.16950133     0.70383075
 C     14  13  12     2.600716325456   169.26375223   353.09862627
 C     30  14  13     2.609536633043    14.68948582   353.70041132
 N     34  33  32     2.556154803934   120.85575621     0.19603406
 C     37  14  29     2.654530526499   126.01551127   180.90772073
 C     15  14  13     2.582293994346    81.61824056   183.09049352
 C      2   1   3     8.029564866989   150.55651320   157.13448082
 C     41  15  14     2.758391104639   111.05201287   175.08990246
 C     42   2   1     4.559821839776    41.78584867   210.67395885
 C     44  42   2     2.652129475853    87.95153797   233.97558675
 C     45  44  42     2.611027836043   120.11137308     0.19721020
 C     42   2   1     4.629866436820   135.97209175   120.98880795
 C     43  41  15     2.559561325344   106.26758155     0.30894352
 C     15  14  13     2.584127074516   171.87382904   332.35056460
 C     42   2   1     2.611386828803    32.59078432   259.52923804
 C      9   2   1     2.655043698059   126.98745415   171.63211207
 N     42   2   1     2.556355970587   113.57249190   148.72539714
 H      1   2   7     2.047508455550   148.76420634   191.43337061
 H      2   1   3     2.040730117440   124.78355828   208.24097735
 H      4   3   1     2.046433806318   121.03114943   179.55461959
 H      5   4   3     2.045658871377   122.80576098   179.38851123
 H      6   5   4     2.065021092306   104.42525885    99.97767872
 H      6   5   4     2.058852937114    84.68317787   209.44684518
 H      6   5   4     2.058636981479   133.87876687   322.35352767
 H      7   2  54     2.040541119952   126.66122480     1.30600390
 H     10   1   2     2.049541070290   118.70357943   217.58851439
 H     12   9   2     1.920524309565   125.29023241   180.00180175
 H     14  13  12     1.917952867083    44.97226959   359.42596618
 H     18  14  13     2.046330847636   128.03556573   234.20482432
 H     19  17  13     2.042592906181   126.41830519   178.11313280
 H     21  20  18     2.047649722989   121.05669627   180.67006309
 H     22  21  20     2.045596898814   122.73097286   180.59748951
 H     23  18  14     2.063779938267   103.92715769   234.93429879
 H     23  18  14     2.057669673245   134.19244188    12.25587044
 H     23  18  14     2.059486796529    84.85857450   125.45241208
 H     24  19  17     2.041046823986   127.28078426   178.44613241
 H     26  18  14     2.047344503340   118.76995697   244.94906660
 H     30  14  13     2.046012340948   127.99711412   279.66882698
 H     31  29  14     2.040450114918   125.22293469   180.92530585
 H     33  32  30     2.046930203877   121.01964473   180.74284758
 H     34  33  32     2.045617847496   122.70821597   180.59516895
 H     35  34  33     2.064814429233   105.73575241    97.19771933
 H     35  34  33     2.058786158072    84.05943581   206.43036958
 H     35  34  33     2.058418400901   133.08365142   318.50306270
 H     36  31  29     2.039845353366   126.61599965   178.98859863
 H     38  30  73     2.047975821711   118.77264435   359.90091293
 H     42   2   1     2.045020725966   119.31790784     5.35692760
 H     43  41  15     2.041436952892   126.36969097   182.06329380
 H     45  44  42     2.047097678177   121.10105945   179.58025624
 H     46  45  44     2.045051284662   122.72144639   179.46906377
 H     47  42   2     2.062723288131   106.65128841   315.16475048
 H     47  42   2     2.057569012371   132.46019523    94.52397119
 H     47  42   2     2.058915377895    83.63838232   206.04504406
 H     48  43  41     2.041664347903   127.23657387   181.62955349
 H     50  42   2     2.046925842384   118.77001737    94.71359229

---------------------
BASIS SET INFORMATION
---------------------
There are 3 groups of distinct atoms

 Group   1 Type C   : 17s4p1d contracted to 3s2p1d pattern {881/31/1}
 Group   2 Type N   : 17s4p1d contracted to 3s2p1d pattern {881/31/1}
 Group   3 Type H   : 4s1p contracted to 2s1p pattern {31/1}

Atom   0C    basis set group =>   1
Atom   1N    basis set group =>   2
Atom   2C    basis set group =>   1
Atom   3N    basis set group =>   2
Atom   4C    basis set group =>   1
Atom   5N    basis set group =>   2
Atom   6C    basis set group =>   1
Atom   7N    basis set group =>   2
Atom   8C    basis set group =>   1
Atom   9N    basis set group =>   2
Atom  10C    basis set group =>   1
Atom  11N    basis set group =>   2
Atom  12C    basis set group =>   1
Atom  13N    basis set group =>   2
Atom  14C    basis set group =>   1
Atom  15N    basis set group =>   2
Atom  16C    basis set group =>   1
Atom  17C    basis set group =>   1
Atom  18C    basis set group =>   1
Atom  19C    basis set group =>   1
Atom  20C    basis set group =>   1
Atom  21C    basis set group =>   1
Atom  22C    basis set group =>   1
Atom  23C    basis set group =>   1
Atom  24C    basis set group =>   1
Atom  25C    basis set group =>   1
Atom  26C    basis set group =>   1
Atom  27C    basis set group =>   1
Atom  28C    basis set group =>   1
Atom  29C    basis set group =>   1
Atom  30C    basis set group =>   1
Atom  31C    basis set group =>   1
Atom  32C    basis set group =>   1
Atom  33C    basis set group =>   1
Atom  34C    basis set group =>   1
Atom  35C    basis set group =>   1
Atom  36C    basis set group =>   1
Atom  37C    basis set group =>   1
Atom  38C    basis set group =>   1
Atom  39C    basis set group =>   1
Atom  40C    basis set group =>   1
Atom  41C    basis set group =>   1
Atom  42C    basis set group =>   1
Atom  43C    basis set group =>   1
Atom  44C    basis set group =>   1
Atom  45C    basis set group =>   1
Atom  46C    basis set group =>   1
Atom  47C    basis set group =>   1
Atom  48C    basis set group =>   1
Atom  49C    basis set group =>   1
Atom  50C    basis set group =>   1
Atom  51C    basis set group =>   1
Atom  52H    basis set group =>   3
Atom  53H    basis set group =>   3
Atom  54H    basis set group =>   3
Atom  55H    basis set group =>   3
Atom  56H    basis set group =>   3
Atom  57H    basis set group =>   3
Atom  58H    basis set group =>   3
Atom  59H    basis set group =>   3
Atom  60H    basis set group =>   3
Atom  61H    basis set group =>   3
Atom  62H    basis set group =>   3
Atom  63H    basis set group =>   3
Atom  64H    basis set group =>   3
Atom  65H    basis set group =>   3
Atom  66H    basis set group =>   3
Atom  67H    basis set group =>   3
Atom  68H    basis set group =>   3
Atom  69H    basis set group =>   3
Atom  70H    basis set group =>   3
Atom  71H    basis set group =>   3
Atom  72H    basis set group =>   3
Atom  73H    basis set group =>   3
Atom  74H    basis set group =>   3
Atom  75H    basis set group =>   3
Atom  76H    basis set group =>   3
Atom  77H    basis set group =>   3
Atom  78H    basis set group =>   3
Atom  79H    basis set group =>   3
Atom  80H    basis set group =>   3
Atom  81H    basis set group =>   3
Atom  82H    basis set group =>   3
Atom  83H    basis set group =>   3
Atom  84H    basis set group =>   3
Atom  85H    basis set group =>   3
Atom  86H    basis set group =>   3
Atom  87H    basis set group =>   3
Atom  88H    basis set group =>   3
Atom  89H    basis set group =>   3


           ************************************************************
           *        Program running with 16 parallel MPI-processes    *
           *              working on a common directory               *
           ************************************************************
------------------------------------------------------------------------------
                           ORCA GTO INTEGRAL CALCULATION
------------------------------------------------------------------------------
------------------------------------------------------------------------------
                   ___                                                        
                  /   \      - P O W E R E D   B Y -                         
                 /     \                                                     
                 |  |  |   _    _      __       _____    __    __             
                 |  |  |  | |  | |    /  \     |  _  \  |  |  /  |          
                  \  \/   | |  | |   /    \    | | | |  |  | /  /          
                 / \  \   | |__| |  /  /\  \   | |_| |  |  |/  /          
                |  |  |   |  __  | /  /__\  \  |    /   |      \           
                |  |  |   | |  | | |   __   |  |    \   |  |\   \          
                \     /   | |  | | |  |  |  |  | |\  \  |  | \   \       
                 \___/    |_|  |_| |__|  |__|  |_| \__\ |__|  \__/        
                                                                              
                      - O R C A' S   B I G   F R I E N D -                    
                                      &                                       
                       - I N T E G R A L  F E E D E R -                       
                                                                              
 v1 FN, 2020, v2 2021                                                         
------------------------------------------------------------------------------


Reading SHARK input file /scratch/allen/tmpyp4_amber_gaff2/conf1/conf1/Conf132.orca.SHARKINP.tmp ... ok
----------------------
SHARK INTEGRAL PACKAGE
----------------------

Number of atoms                             ...     90
Number of basis functions                   ...   1230
Number of shells                            ...    738
Maximum angular momentum                    ...      2
Integral batch strategy                     ... SHARK/LIBINT Hybrid
RI-J (if used) integral strategy            ... SPLIT-RIJ (Revised 2003 algorithm where possible)
Printlevel                                  ...      1
Contraction scheme used                     ... PARTIAL GENERAL contraction
Coulomb Range Separation                    ... NOT USED
Exchange Range Separation                   ... NOT USED
Finite Nucleus Model                        ... NOT USED
Auxiliary Coulomb fitting basis             ... NOT available
Auxiliary J/K fitting basis                 ... NOT available
Auxiliary Correlation fitting basis         ... NOT available
Auxiliary 'external' fitting basis          ... NOT available
Integral threshold                          ...     2.500000e-11
Primitive cut-off                           ...     2.500000e-12
Primitive pair pre-selection threshold      ...     2.500000e-12

Calculating pre-screening integrals         ... done (  0.1 sec) Dimension = 738
Calculating pre-screening integrals (ORCA)  ... done (  0.3 sec) Dimension = 426
Organizing shell pair data                  ... done (  0.5 sec)
Shell pair information
Total number of shell pairs                 ...    272691
Shell pairs after pre-screening             ...     71605
Total number of primitive shell pairs       ...    422091
Primitive shell pairs kept                  ...     92386
          la=0 lb=0:  29410 shell pairs
          la=1 lb=0:  25969 shell pairs
          la=1 lb=1:   4702 shell pairs
          la=2 lb=0:   7870 shell pairs
          la=2 lb=1:   3124 shell pairs
          la=2 lb=2:    530 shell pairs

Calculating one electron integrals          ... done (  0.2 sec)
Calculating Nuclear repulsion               ... done (  0.0 sec) ENN=   6226.865680923545 Eh

SHARK setup successfully completed in   1.7 seconds

Maximum memory used throughout the entire GTOINT-calculation: 99.0 MB


           ************************************************************
           *        Program running with 16 parallel MPI-processes    *
           *              working on a common directory               *
           ************************************************************
-------------------------------------------------------------------------------
                                 ORCA SCF
-------------------------------------------------------------------------------

------------
SCF SETTINGS
------------
Hamiltonian:
 Ab initio Hamiltonian  Method          .... Hartree-Fock(GTOs)


General Settings:
 Integral files         IntName         .... /scratch/allen/tmpyp4_amber_gaff2/conf1/conf1/Conf132.orca
 Hartree-Fock type      HFTyp           .... RHF
 Total Charge           Charge          ....    0
 Multiplicity           Mult            ....    1
 Number of Electrons    NEL             ....  358
 Basis Dimension        Dim             ....  918
 Nuclear Repulsion      ENuc            ....   6226.8656809235 Eh

Convergence Acceleration:
 DIIS                   CNVDIIS         .... on
   Start iteration      DIISMaxIt       ....    12
   Startup error        DIISStart       ....  0.200000
   # of expansion vecs  DIISMaxEq       ....     5
   Bias factor          DIISBfac        ....   1.050
   Max. coefficient     DIISMaxC        ....  10.000
 Trust-Rad. Augm. Hess. CNVTRAH         .... auto
   Auto Start mean grad. ratio tolernc. ....  1.125000
   Auto Start start iteration           ....    20
   Auto Start num. interpolation iter.  ....    10
   Max. Number of Micro iterations      ....    16
   Max. Number of Macro iterations      .... Maxiter - #DIIS iter
   Number of Davidson start vectors     ....     2
   Converg. threshold I  (grad. norm)   ....   1.000e-05
   Converg. threshold II (energy diff.) ....   1.000e-08
   Grad. Scal. Fac. for Micro threshold ....   0.100
   Minimum threshold for Micro iter.    ....   0.010
   NR start threshold (gradient norm)   ....   0.001
   Initial trust radius                 ....   0.400
   Minimum AH scaling param. (alpha)    ....   1.000
   Maximum AH scaling param. (alpha)    .... 1000.000
   Orbital update algorithm             .... Taylor
   White noise on init. David. guess    .... on
   Maximum white noise                  ....   0.010
   Quad. conv. algorithm                .... NR
 SOSCF                  CNVSOSCF        .... on
   Start iteration      SOSCFMaxIt      ....   150
   Startup grad/error   SOSCFStart      ....  0.003300
 Level Shifting         CNVShift        .... on
   Level shift para.    LevelShift      ....    0.2500
   Turn off err/grad.   ShiftErr        ....    0.0010
 Zerner damping         CNVZerner       .... off
 Static damping         CNVDamp         .... on
   Fraction old density DampFac         ....    0.7000
   Max. Damping (<1)    DampMax         ....    0.9800
   Min. Damping (>=0)   DampMin         ....    0.0000
   Turn off err/grad.   DampErr         ....    0.1000
 Fernandez-Rico         CNVRico         .... off

SCF Procedure:
 Maximum # iterations   MaxIter         ....   125
 SCF integral mode      SCFMode         .... Direct
   Integral package                     .... SHARK and LIBINT hybrid scheme
 Reset frequency        DirectResetFreq ....    20
 Integral Threshold     Thresh          ....  2.500e-11 Eh
 Primitive CutOff       TCut            ....  2.500e-12 Eh

Convergence Tolerance:
 Convergence Check Mode ConvCheckMode   .... Total+1el-Energy
 Convergence forced     ConvForced      .... 1
 Energy Change          TolE            ....  1.000e-08 Eh
 1-El. energy change                    ....  1.000e-05 Eh
 Orbital Gradient       TolG            ....  1.000e-05
 Orbital Rotation angle TolX            ....  1.000e-05
 DIIS Error             TolErr          ....  5.000e-07


Diagonalization of the overlap matrix:
Smallest eigenvalue                        ... 2.246e-04
Time for diagonalization                   ...    0.359 sec
Threshold for overlap eigenvalues          ... 1.000e-08
Number of eigenvalues below threshold      ... 0
Time for construction of square roots      ...    0.197 sec
Total time needed                          ...    0.560 sec

Time for model grid setup =    1.012 sec

------------------------------
INITIAL GUESS: MODEL POTENTIAL
------------------------------
Loading Hartree-Fock densities                     ... done
Calculating cut-offs                               ... done
Initializing the effective Hamiltonian             ... done
Setting up the integral package (SHARK)            ... done
Starting the Coulomb interaction                   ... done (   1.1 sec)
Reading the grid                                   ... done
Mapping shells                                     ... done
Starting the XC term evaluation                    ... done (   0.2 sec)
Transforming the Hamiltonian                       ... done (   0.2 sec)
Diagonalizing the Hamiltonian                      ... done (   0.3 sec)
Back transforming the eigenvectors                 ... done (   0.1 sec)
Now organizing SCF variables                       ... done
                      ------------------
                      INITIAL GUESS DONE (   2.9 sec)
                      ------------------
--------------
SCF ITERATIONS
--------------
ITER       Energy         Delta-E        Max-DP      RMS-DP      [F,P]     Damp
               ***  Starting incremental Fock matrix formation  ***
  0  -2121.6885627681   0.000000000000 0.06881104  0.00120725  0.2326698 0.7000
  1  -2122.3500058531  -0.661443084920 0.05217642  0.00098011  0.1440210 0.7000
                               ***Turning on DIIS***
  2  -2122.7608231025  -0.410817249451 0.11710423  0.00222267  0.0802403 0.0000
  3  -2117.8143103231   4.946512779423 0.03016050  0.00067475  0.0441428 0.0000
  4  -2123.4277542484  -5.613443925342 0.00884518  0.00022651  0.0072268 0.0000
  5  -2123.5992923517  -0.171538103281 0.00511835  0.00013355  0.0049822 0.0000
  6  -2123.5819610617   0.017331290035 0.00344458  0.00008625  0.0019415 0.0000
  7  -2123.6841581561  -0.102197094444 0.00291690  0.00006781  0.0015260 0.0000
  8  -2123.6990114338  -0.014853277691 0.00302405  0.00006348  0.0014177 0.0000
  9  -2123.6654536877   0.033557746110 0.00243184  0.00004356  0.0011220 0.0000
 10  -2123.6772072454  -0.011753557668 0.00498617  0.00008692  0.0008587 0.0000
                      *** Initiating the SOSCF procedure ***
                           *** Shutting down DIIS ***
                      *** Re-Reading the Fockian *** 
                      *** Removing any level shift *** 
ITER      Energy       Delta-E        Grad      Rot      Max-DP    RMS-DP
 11  -2123.56498873   0.1122185165  0.000255  0.000255  0.000270  0.000006
               *** Restarting incremental Fock matrix formation ***
 12  -2123.62933084  -0.0643421145  0.000859  0.005787  0.001180  0.000029
 13  -2123.62940534  -0.0000744989  0.000966  0.026171  0.005570  0.000107
 14  -2123.62951812  -0.0001127779  0.000436  0.001991  0.000530  0.000011
 15  -2123.62953253  -0.0000144112  0.000183  0.003621  0.000905  0.000016
 16  -2123.62954139  -0.0000088594  0.000147  0.004423  0.000755  0.000015
 17  -2123.62954570  -0.0000043098  0.000131  0.003176  0.000409  0.000010
 18  -2123.62954788  -0.0000021771  0.000072  0.001440  0.000268  0.000005
 19  -2123.62954893  -0.0000010516  0.000058  0.000468  0.000168  0.000003
 20  -2123.62954925  -0.0000003162  0.000026  0.000498  0.000125  0.000002
 21  -2123.62954940  -0.0000001547  0.000022  0.000210  0.000068  0.000001
 22  -2123.62954948  -0.0000000832  0.000016  0.000378  0.000101  0.000002
 23  -2123.62954954  -0.0000000590  0.000009  0.000103  0.000043  0.000001
 24  -2123.62954956  -0.0000000174  0.000005  0.000065  0.000024  0.000000
 25  -2123.62954957  -0.0000000093  0.000003  0.000038  0.000015  0.000000
                  ***Gradient check signals convergence***
              ***Rediagonalizing the Fockian in SOSCF/NRSCF***

               *****************************************************
               *                     SUCCESS                       *
               *           SCF CONVERGED AFTER  26 CYCLES          *
               *****************************************************


----------------
TOTAL SCF ENERGY
----------------

Total Energy       :        -2123.62954957 Eh          -57786.89787 eV

Components:
Nuclear Repulsion  :         6226.86568092 Eh          169441.62942 eV
Electronic Energy  :        -8350.49523050 Eh         -227228.52730 eV
One Electron Energy:       -15294.75016612 Eh         -416191.31078 eV
Two Electron Energy:         6944.25493563 Eh          188962.78348 eV

Virial components:
Potential Energy   :        -4245.65345714 Eh         -115530.10401 eV
Kinetic Energy     :         2122.02390757 Eh           57743.20613 eV
Virial Ratio       :            2.00075666


---------------
SCF CONVERGENCE
---------------

  Last Energy change         ...   -3.7980e-09  Tolerance :   1.0000e-08
  Last MAX-Density change    ...    1.0024e-05  Tolerance :   1.0000e-07
  Last RMS-Density change    ...    1.7415e-07  Tolerance :   5.0000e-09
  Last Orbital Gradient      ...    1.7253e-06  Tolerance :   1.0000e-05
  Last Orbital Rotation      ...    3.9486e-05  Tolerance :   1.0000e-05

             **** THE GBW FILE WAS UPDATED (/scratch/allen/tmpyp4_amber_gaff2/conf1/conf1/Conf132.orca.gbw) ****
             **** DENSITY /scratch/allen/tmpyp4_amber_gaff2/conf1/conf1/Conf132.orca.scfp WAS UPDATED ****
             **** ENERGY FILE WAS UPDATED (/scratch/allen/tmpyp4_amber_gaff2/conf1/conf1/Conf132.orca.en.tmp) ****
             **** THE GBW FILE WAS UPDATED (/scratch/allen/tmpyp4_amber_gaff2/conf1/conf1/Conf132.orca.gbw) ****
             **** DENSITY /scratch/allen/tmpyp4_amber_gaff2/conf1/conf1/Conf132.orca.scfp WAS UPDATED ****
----------------
ORBITAL ENERGIES
----------------

  NO   OCC          E(Eh)            E(eV) 
   0   2.0000     -15.656011      -426.0217 
   1   2.0000     -15.639193      -425.5641 
   2   2.0000     -15.628441      -425.2715 
   3   2.0000     -15.605440      -424.6456 
   4   2.0000     -15.522289      -422.3830 
   5   2.0000     -15.515685      -422.2033 
   6   2.0000     -15.447860      -420.3576 
   7   2.0000     -15.443699      -420.2444 
   8   2.0000     -11.313197      -307.8477 
   9   2.0000     -11.310130      -307.7643 
  10   2.0000     -11.307640      -307.6965 
  11   2.0000     -11.302506      -307.5568 
  12   2.0000     -11.295997      -307.3797 
  13   2.0000     -11.295894      -307.3769 
  14   2.0000     -11.292610      -307.2876 
  15   2.0000     -11.286822      -307.1300 
  16   2.0000     -11.284522      -307.0675 
  17   2.0000     -11.282555      -307.0139 
  18   2.0000     -11.268172      -306.6225 
  19   2.0000     -11.267883      -306.6147 
  20   2.0000     -11.259605      -306.3894 
  21   2.0000     -11.246528      -306.0336 
  22   2.0000     -11.245626      -306.0090 
  23   2.0000     -11.242660      -305.9283 
  24   2.0000     -11.234760      -305.7134 
  25   2.0000     -11.234171      -305.6973 
  26   2.0000     -11.233017      -305.6659 
  27   2.0000     -11.226798      -305.4967 
  28   2.0000     -11.226600      -305.4913 
  29   2.0000     -11.214614      -305.1652 
  30   2.0000     -11.209718      -305.0319 
  31   2.0000     -11.209060      -305.0140 
  32   2.0000     -11.205861      -304.9270 
  33   2.0000     -11.204886      -304.9004 
  34   2.0000     -11.191487      -304.5358 
  35   2.0000     -11.191052      -304.5240 
  36   2.0000     -11.180400      -304.2342 
  37   2.0000     -11.177662      -304.1597 
  38   2.0000     -11.177238      -304.1481 
  39   2.0000     -11.173801      -304.0546 
  40   2.0000     -11.167451      -303.8818 
  41   2.0000     -11.166572      -303.8579 
  42   2.0000     -11.166104      -303.8451 
  43   2.0000     -11.165326      -303.8240 
  44   2.0000     -11.164268      -303.7952 
  45   2.0000     -11.162619      -303.7503 
  46   2.0000     -11.150247      -303.4137 
  47   2.0000     -11.150042      -303.4081 
  48   2.0000     -11.146817      -303.3203 
  49   2.0000     -11.146549      -303.3130 
  50   2.0000     -11.138256      -303.0873 
  51   2.0000     -11.133695      -302.9632 
  52   2.0000      -1.340104       -36.4661 
  53   2.0000      -1.325675       -36.0734 
  54   2.0000      -1.316501       -35.8238 
  55   2.0000      -1.297801       -35.3150 
  56   2.0000      -1.221987       -33.2520 
  57   2.0000      -1.211242       -32.9596 
  58   2.0000      -1.165209       -31.7070 
  59   2.0000      -1.155789       -31.4506 
  60   2.0000      -1.126442       -30.6520 
  61   2.0000      -1.113781       -30.3075 
  62   2.0000      -1.105956       -30.0946 
  63   2.0000      -1.091050       -29.6890 
  64   2.0000      -1.063207       -28.9313 
  65   2.0000      -1.049578       -28.5605 
  66   2.0000      -1.041189       -28.3322 
  67   2.0000      -1.030837       -28.0505 
  68   2.0000      -1.024522       -27.8787 
  69   2.0000      -1.012887       -27.5621 
  70   2.0000      -1.009309       -27.4647 
  71   2.0000      -0.994073       -27.0501 
  72   2.0000      -0.986323       -26.8392 
  73   2.0000      -0.974548       -26.5188 
  74   2.0000      -0.973128       -26.4802 
  75   2.0000      -0.958724       -26.0882 
  76   2.0000      -0.951152       -25.8822 
  77   2.0000      -0.946611       -25.7586 
  78   2.0000      -0.937756       -25.5176 
  79   2.0000      -0.922326       -25.0978 
  80   2.0000      -0.896520       -24.3956 
  81   2.0000      -0.887217       -24.1424 
  82   2.0000      -0.876410       -23.8483 
  83   2.0000      -0.869091       -23.6492 
  84   2.0000      -0.863110       -23.4864 
  85   2.0000      -0.854790       -23.2600 
  86   2.0000      -0.847469       -23.0608 
  87   2.0000      -0.840144       -22.8615 
  88   2.0000      -0.821884       -22.3646 
  89   2.0000      -0.798768       -21.7356 
  90   2.0000      -0.796084       -21.6625 
  91   2.0000      -0.741876       -20.1875 
  92   2.0000      -0.735113       -20.0034 
  93   2.0000      -0.730977       -19.8909 
  94   2.0000      -0.722628       -19.6637 
  95   2.0000      -0.719436       -19.5768 
  96   2.0000      -0.712989       -19.4014 
  97   2.0000      -0.705403       -19.1950 
  98   2.0000      -0.700691       -19.0668 
  99   2.0000      -0.695458       -18.9244 
 100   2.0000      -0.691062       -18.8047 
 101   2.0000      -0.681455       -18.5433 
 102   2.0000      -0.678730       -18.4692 
 103   2.0000      -0.673817       -18.3355 
 104   2.0000      -0.670444       -18.2437 
 105   2.0000      -0.668687       -18.1959 
 106   2.0000      -0.664163       -18.0728 
 107   2.0000      -0.661089       -17.9891 
 108   2.0000      -0.657267       -17.8852 
 109   2.0000      -0.655695       -17.8424 
 110   2.0000      -0.650969       -17.7138 
 111   2.0000      -0.648349       -17.6425 
 112   2.0000      -0.644066       -17.5259 
 113   2.0000      -0.637005       -17.3338 
 114   2.0000      -0.633533       -17.2393 
 115   2.0000      -0.628773       -17.1098 
 116   2.0000      -0.622883       -16.9495 
 117   2.0000      -0.616339       -16.7714 
 118   2.0000      -0.612783       -16.6747 
 119   2.0000      -0.611137       -16.6299 
 120   2.0000      -0.608467       -16.5572 
 121   2.0000      -0.602303       -16.3895 
 122   2.0000      -0.596119       -16.2212 
 123   2.0000      -0.592572       -16.1247 
 124   2.0000      -0.590263       -16.0619 
 125   2.0000      -0.584888       -15.9156 
 126   2.0000      -0.578272       -15.7356 
 127   2.0000      -0.575739       -15.6667 
 128   2.0000      -0.564688       -15.3659 
 129   2.0000      -0.558782       -15.2052 
 130   2.0000      -0.553943       -15.0736 
 131   2.0000      -0.549335       -14.9482 
 132   2.0000      -0.542072       -14.7505 
 133   2.0000      -0.537620       -14.6294 
 134   2.0000      -0.534106       -14.5338 
 135   2.0000      -0.530572       -14.4376 
 136   2.0000      -0.525437       -14.2979 
 137   2.0000      -0.523156       -14.2358 
 138   2.0000      -0.518088       -14.0979 
 139   2.0000      -0.517507       -14.0821 
 140   2.0000      -0.509645       -13.8681 
 141   2.0000      -0.508050       -13.8248 
 142   2.0000      -0.507512       -13.8101 
 143   2.0000      -0.501502       -13.6466 
 144   2.0000      -0.500300       -13.6138 
 145   2.0000      -0.497746       -13.5443 
 146   2.0000      -0.493954       -13.4412 
 147   2.0000      -0.489182       -13.3113 
 148   2.0000      -0.488050       -13.2805 
 149   2.0000      -0.469342       -12.7715 
 150   2.0000      -0.462418       -12.5830 
 151   2.0000      -0.454232       -12.3603 
 152   2.0000      -0.448216       -12.1966 
 153   2.0000      -0.446741       -12.1564 
 154   2.0000      -0.446157       -12.1406 
 155   2.0000      -0.439611       -11.9624 
 156   2.0000      -0.434499       -11.8233 
 157   2.0000      -0.429921       -11.6987 
 158   2.0000      -0.396583       -10.7916 
 159   2.0000      -0.384380       -10.4595 
 160   2.0000      -0.379265       -10.3203 
 161   2.0000      -0.371861       -10.1189 
 162   2.0000      -0.370898       -10.0926 
 163   2.0000      -0.359996        -9.7960 
 164   2.0000      -0.353021        -9.6062 
 165   2.0000      -0.337938        -9.1958 
 166   2.0000      -0.337091        -9.1727 
 167   2.0000      -0.335314        -9.1244 
 168   2.0000      -0.328853        -8.9485 
 169   2.0000      -0.300411        -8.1746 
 170   2.0000      -0.299764        -8.1570 
 171   2.0000      -0.287680        -7.8282 
 172   2.0000      -0.285746        -7.7755 
 173   2.0000      -0.257606        -7.0098 
 174   2.0000      -0.246787        -6.7154 
 175   2.0000      -0.188969        -5.1421 
 176   2.0000      -0.179039        -4.8719 
 177   2.0000      -0.069778        -1.8987 
 178   2.0000      -0.056249        -1.5306 
 179   0.0000       0.029715         0.8086 
 180   0.0000       0.069132         1.8812 
 181   0.0000       0.092690         2.5222 
 182   0.0000       0.101968         2.7747 
 183   0.0000       0.122285         3.3276 
 184   0.0000       0.133861         3.6426 
 185   0.0000       0.141764         3.8576 
 186   0.0000       0.153371         4.1734 
 187   0.0000       0.157846         4.2952 
 188   0.0000       0.162201         4.4137 
 189   0.0000       0.162812         4.4304 
 190   0.0000       0.167796         4.5660 
 191   0.0000       0.178928         4.8689 
 192   0.0000       0.193003         5.2519 
 193   0.0000       0.196413         5.3447 
 194   0.0000       0.202057         5.4982 
 195   0.0000       0.205604         5.5948 
 196   0.0000       0.207902         5.6573 
 197   0.0000       0.210922         5.7395 
 198   0.0000       0.218702         5.9512 
 199   0.0000       0.223392         6.0788 
 200   0.0000       0.228149         6.2083 
 201   0.0000       0.237023         6.4497 
 202   0.0000       0.241832         6.5806 
 203   0.0000       0.245780         6.6880 
 204   0.0000       0.252423         6.8688 
 205   0.0000       0.253312         6.8930 
 206   0.0000       0.255091         6.9414 
 207   0.0000       0.259871         7.0714 
 208   0.0000       0.262692         7.1482 
 209   0.0000       0.263859         7.1800 
 210   0.0000       0.266900         7.2627 
 211   0.0000       0.269720         7.3395 
 212   0.0000       0.271203         7.3798 
 213   0.0000       0.274391         7.4665 
 214   0.0000       0.276675         7.5287 
 215   0.0000       0.278911         7.5896 
 216   0.0000       0.281672         7.6647 
 217   0.0000       0.282485         7.6868 
 218   0.0000       0.282831         7.6962 
 219   0.0000       0.288841         7.8598 
 220   0.0000       0.289989         7.8910 
 221   0.0000       0.292628         7.9628 
 222   0.0000       0.293677         7.9914 
 223   0.0000       0.296249         8.0613 
 224   0.0000       0.298380         8.1193 
 225   0.0000       0.300314         8.1720 
 226   0.0000       0.306069         8.3286 
 227   0.0000       0.307666         8.3720 
 228   0.0000       0.309771         8.4293 
 229   0.0000       0.314587         8.5603 
 230   0.0000       0.315642         8.5891 
 231   0.0000       0.322281         8.7697 
 232   0.0000       0.324946         8.8422 
 233   0.0000       0.330191         8.9849 
 234   0.0000       0.333780         9.0826 
 235   0.0000       0.341076         9.2812 
 236   0.0000       0.355250         9.6668 
 237   0.0000       0.383741        10.4421 
 238   0.0000       0.395037        10.7495 
 239   0.0000       0.398985        10.8569 
 240   0.0000       0.404048        10.9947 
 241   0.0000       0.415433        11.3045 
 242   0.0000       0.418327        11.3832 
 243   0.0000       0.425012        11.5652 
 244   0.0000       0.426689        11.6108 
 245   0.0000       0.431279        11.7357 
 246   0.0000       0.434192        11.8150 
 247   0.0000       0.438224        11.9247 
 248   0.0000       0.441254        12.0071 
 249   0.0000       0.444029        12.0826 
 250   0.0000       0.450257        12.2521 
 251   0.0000       0.457045        12.4368 
 252   0.0000       0.459813        12.5121 
 253   0.0000       0.462364        12.5816 
 254   0.0000       0.469881        12.7861 
 255   0.0000       0.474686        12.9169 
 256   0.0000       0.482931        13.1412 
 257   0.0000       0.484625        13.1873 
 258   0.0000       0.491893        13.3851 
 259   0.0000       0.497004        13.5242 
 260   0.0000       0.501144        13.6368 
 261   0.0000       0.503115        13.6905 
 262   0.0000       0.507528        13.8105 
 263   0.0000       0.509474        13.8635 
 264   0.0000       0.511699        13.9240 
 265   0.0000       0.515426        14.0255 
 266   0.0000       0.519138        14.1265 
 267   0.0000       0.523415        14.2428 
 268   0.0000       0.535709        14.5774 
 269   0.0000       0.537614        14.6292 
 270   0.0000       0.541434        14.7332 
 271   0.0000       0.545229        14.8364 
 272   0.0000       0.546255        14.8644 
 273   0.0000       0.554138        15.0789 
 274   0.0000       0.559567        15.2266 
 275   0.0000       0.564058        15.3488 
 276   0.0000       0.572965        15.5912 
 277   0.0000       0.577220        15.7070 
 278   0.0000       0.580199        15.7880 
 279   0.0000       0.583871        15.8879 
 280   0.0000       0.586234        15.9522 
 281   0.0000       0.590649        16.0724 
 282   0.0000       0.593053        16.1378 
 283   0.0000       0.597064        16.2469 
 284   0.0000       0.598904        16.2970 
 285   0.0000       0.599824        16.3221 
 286   0.0000       0.607991        16.5443 
 287   0.0000       0.611091        16.6286 
 288   0.0000       0.614331        16.7168 
 289   0.0000       0.615920        16.7600 
 290   0.0000       0.624346        16.9893 
 291   0.0000       0.627663        17.0796 
 292   0.0000       0.635819        17.3015 
 293   0.0000       0.636843        17.3294 
 294   0.0000       0.645641        17.5688 
 295   0.0000       0.650365        17.6973 
 296   0.0000       0.655196        17.8288 
 297   0.0000       0.658378        17.9154 
 298   0.0000       0.663459        18.0536 
 299   0.0000       0.666229        18.1290 
 300   0.0000       0.669236        18.2108 
 301   0.0000       0.672049        18.2874 
 302   0.0000       0.679106        18.4794 
 303   0.0000       0.682106        18.5611 
 304   0.0000       0.683837        18.6082 
 305   0.0000       0.687859        18.7176 
 306   0.0000       0.690216        18.7817 
 307   0.0000       0.691537        18.8177 
 308   0.0000       0.696759        18.9598 
 309   0.0000       0.697103        18.9691 
 310   0.0000       0.701622        19.0921 
 311   0.0000       0.704630        19.1739 
 312   0.0000       0.705934        19.2094 
 313   0.0000       0.709671        19.3111 
 314   0.0000       0.711591        19.3634 
 315   0.0000       0.713637        19.4191 
 316   0.0000       0.716474        19.4962 
 317   0.0000       0.717757        19.5312 
 318   0.0000       0.720422        19.6037 
 319   0.0000       0.724689        19.7198 
 320   0.0000       0.727024        19.7833 
 321   0.0000       0.729987        19.8640 
 322   0.0000       0.734102        19.9759 
 323   0.0000       0.736143        20.0315 
 324   0.0000       0.738367        20.0920 
 325   0.0000       0.741183        20.1686 
 326   0.0000       0.741774        20.1847 
 327   0.0000       0.744137        20.2490 
 328   0.0000       0.746795        20.3213 
 329   0.0000       0.750334        20.4176 
 330   0.0000       0.752721        20.4826 
 331   0.0000       0.754226        20.5235 
 332   0.0000       0.757911        20.6238 
 333   0.0000       0.763142        20.7662 
 334   0.0000       0.769031        20.9264 
 335   0.0000       0.774336        21.0708 
 336   0.0000       0.777392        21.1539 
 337   0.0000       0.779746        21.2180 
 338   0.0000       0.786595        21.4043 
 339   0.0000       0.787525        21.4297 
 340   0.0000       0.791246        21.5309 
 341   0.0000       0.791815        21.5464 
 342   0.0000       0.795190        21.6382 
 343   0.0000       0.800398        21.7799 
 344   0.0000       0.804740        21.8981 
 345   0.0000       0.806673        21.9507 
 346   0.0000       0.807676        21.9780 
 347   0.0000       0.809748        22.0344 
 348   0.0000       0.815671        22.1955 
 349   0.0000       0.816249        22.2113 
 350   0.0000       0.821189        22.3457 
 351   0.0000       0.824359        22.4319 
 352   0.0000       0.826360        22.4864 
 353   0.0000       0.828337        22.5402 
 354   0.0000       0.830092        22.5880 
 355   0.0000       0.830772        22.6065 
 356   0.0000       0.834019        22.6948 
 357   0.0000       0.834395        22.7050 
 358   0.0000       0.836755        22.7693 
 359   0.0000       0.839337        22.8395 
 360   0.0000       0.841055        22.8863 
 361   0.0000       0.841848        22.9078 
 362   0.0000       0.843576        22.9549 
 363   0.0000       0.844237        22.9728 
 364   0.0000       0.848350        23.0848 
 365   0.0000       0.850579        23.1454 
 366   0.0000       0.852596        23.2003 
 367   0.0000       0.855205        23.2713 
 368   0.0000       0.861409        23.4401 
 369   0.0000       0.862614        23.4729 
 370   0.0000       0.864653        23.5284 
 371   0.0000       0.871394        23.7118 
 372   0.0000       0.874319        23.7914 
 373   0.0000       0.876033        23.8381 
 374   0.0000       0.878866        23.9152 
 375   0.0000       0.883205        24.0332 
 376   0.0000       0.885360        24.0919 
 377   0.0000       0.890941        24.2437 
 378   0.0000       0.892082        24.2748 
 379   0.0000       0.892833        24.2952 
 380   0.0000       0.897916        24.4335 
 381   0.0000       0.898990        24.4628 
 382   0.0000       0.902010        24.5449 
 383   0.0000       0.903821        24.5942 
 384   0.0000       0.904067        24.6009 
 385   0.0000       0.905573        24.6419 
 386   0.0000       0.909004        24.7353 
 387   0.0000       0.910326        24.7712 
 388   0.0000       0.911083        24.7918 
 389   0.0000       0.913500        24.8576 
 390   0.0000       0.918615        24.9968 
 391   0.0000       0.921589        25.0777 
 392   0.0000       0.923290        25.1240 
 393   0.0000       0.924691        25.1621 
 394   0.0000       0.926926        25.2229 
 395   0.0000       0.930188        25.3117 
 396   0.0000       0.933573        25.4038 
 397   0.0000       0.935166        25.4472 
 398   0.0000       0.938287        25.5321 
 399   0.0000       0.941906        25.6306 
 400   0.0000       0.943186        25.6654 
 401   0.0000       0.947949        25.7950 
 402   0.0000       0.949407        25.8347 
 403   0.0000       0.955375        25.9971 
 404   0.0000       0.956139        26.0179 
 405   0.0000       0.958689        26.0873 
 406   0.0000       0.959813        26.1178 
 407   0.0000       0.964022        26.2324 
 408   0.0000       0.966681        26.3047 
 409   0.0000       0.972296        26.4575 
 410   0.0000       0.976349        26.5678 
 411   0.0000       0.979729        26.6598 
 412   0.0000       0.981385        26.7048 
 413   0.0000       0.985325        26.8121 
 414   0.0000       0.988126        26.8883 
 415   0.0000       0.992379        27.0040 
 416   0.0000       1.000988        27.2383 
 417   0.0000       1.001767        27.2595 
 418   0.0000       1.005898        27.3719 
 419   0.0000       1.015483        27.6327 
 420   0.0000       1.022149        27.8141 
 421   0.0000       1.027234        27.9524 
 422   0.0000       1.031757        28.0755 
 423   0.0000       1.040586        28.3158 
 424   0.0000       1.045119        28.4391 
 425   0.0000       1.050035        28.5729 
 426   0.0000       1.056265        28.7424 
 427   0.0000       1.062183        28.9035 
 428   0.0000       1.064163        28.9574 
 429   0.0000       1.070310        29.1246 
 430   0.0000       1.076799        29.3012 
 431   0.0000       1.081896        29.4399 
 432   0.0000       1.084581        29.5130 
 433   0.0000       1.089113        29.6363 
 434   0.0000       1.100032        29.9334 
 435   0.0000       1.102951        30.0128 
 436   0.0000       1.107221        30.1290 
 437   0.0000       1.108973        30.1767 
 438   0.0000       1.115497        30.3542 
 439   0.0000       1.116359        30.3777 
 440   0.0000       1.121762        30.5247 
 441   0.0000       1.124091        30.5881 
 442   0.0000       1.128044        30.6956 
 443   0.0000       1.129783        30.7430 
 444   0.0000       1.133012        30.8308 
 445   0.0000       1.133387        30.8410 
 446   0.0000       1.135724        30.9046 
 447   0.0000       1.141775        31.0693 
 448   0.0000       1.144848        31.1529 
 449   0.0000       1.147109        31.2144 
 450   0.0000       1.151146        31.3243 
 451   0.0000       1.152885        31.3716 
 452   0.0000       1.156086        31.4587 
 453   0.0000       1.157279        31.4912 
 454   0.0000       1.160185        31.5703 
 455   0.0000       1.169149        31.8142 
 456   0.0000       1.172879        31.9156 
 457   0.0000       1.177202        32.0333 
 458   0.0000       1.180477        32.1224 
 459   0.0000       1.186029        32.2735 
 460   0.0000       1.187749        32.3203 
 461   0.0000       1.192289        32.4438 
 462   0.0000       1.200976        32.6802 
 463   0.0000       1.202901        32.7326 
 464   0.0000       1.206770        32.8379 
 465   0.0000       1.208585        32.8873 
 466   0.0000       1.213653        33.0252 
 467   0.0000       1.214997        33.0617 
 468   0.0000       1.221600        33.2414 
 469   0.0000       1.229301        33.4510 
 470   0.0000       1.229656        33.4607 
 471   0.0000       1.232892        33.5487 
 472   0.0000       1.235090        33.6085 
 473   0.0000       1.237103        33.6633 
 474   0.0000       1.242062        33.7982 
 475   0.0000       1.247340        33.9418 
 476   0.0000       1.252123        34.0720 
 477   0.0000       1.252918        34.0936 
 478   0.0000       1.253174        34.1006 
 479   0.0000       1.255717        34.1698 
 480   0.0000       1.260261        34.2935 
 481   0.0000       1.265063        34.4241 
 482   0.0000       1.269522        34.5454 
 483   0.0000       1.271215        34.5915 
 484   0.0000       1.273841        34.6630 
 485   0.0000       1.276262        34.7289 
 486   0.0000       1.279982        34.8301 
 487   0.0000       1.283601        34.9285 
 488   0.0000       1.288398        35.0591 
 489   0.0000       1.291149        35.1340 
 490   0.0000       1.294046        35.2128 
 491   0.0000       1.299269        35.3549 
 492   0.0000       1.300939        35.4003 
 493   0.0000       1.307632        35.5825 
 494   0.0000       1.311019        35.6746 
 495   0.0000       1.314960        35.7819 
 496   0.0000       1.315878        35.8069 
 497   0.0000       1.323303        36.0089 
 498   0.0000       1.325015        36.0555 
 499   0.0000       1.329454        36.1763 
 500   0.0000       1.333597        36.2890 
 501   0.0000       1.336603        36.3708 
 502   0.0000       1.341363        36.5004 
 503   0.0000       1.347928        36.6790 
 504   0.0000       1.350676        36.7538 
 505   0.0000       1.351434        36.7744 
 506   0.0000       1.353348        36.8265 
 507   0.0000       1.359003        36.9804 
 508   0.0000       1.361869        37.0584 
 509   0.0000       1.363529        37.1035 
 510   0.0000       1.364943        37.1420 
 511   0.0000       1.366625        37.1877 
 512   0.0000       1.370289        37.2875 
[...]
      pz      :     0.022030  p :     0.079660
      px      :     0.043435
      py      :     0.014195
 77 H s       :     0.887227  s :     0.887227
      pz      :     0.047775  p :     0.079054
      px      :     0.015016
      py      :     0.016263
 78 H s       :     0.887650  s :     0.887650
      pz      :     0.025776  p :     0.078998
      px      :     0.020514
      py      :     0.032708
 79 H s       :     0.909522  s :     0.909522
      pz      :     0.021979  p :     0.086564
      px      :     0.021724
      py      :     0.042861
 80 H s       :     0.868260  s :     0.868260
      pz      :     0.039082  p :     0.084413
      px      :     0.030078
      py      :     0.015252
 81 H s       :     0.887196  s :     0.887196
      pz      :     0.037776  p :     0.083985
      px      :     0.016172
      py      :     0.030038
 82 H s       :     0.915711  s :     0.915711
      pz      :     0.022068  p :     0.086795
      px      :     0.031470
      py      :     0.033257
 83 H s       :     0.873306  s :     0.873306
      pz      :     0.039233  p :     0.084008
      px      :     0.015270
      py      :     0.029505
 84 H s       :     0.887214  s :     0.887214
      pz      :     0.035761  p :     0.083595
      px      :     0.031701
      py      :     0.016133
 85 H s       :     0.893581  s :     0.893581
      pz      :     0.022489  p :     0.079746
      px      :     0.014090
      py      :     0.043167
 86 H s       :     0.891038  s :     0.891038
      pz      :     0.024721  p :     0.078832
      px      :     0.032976
      py      :     0.021135
 87 H s       :     0.890153  s :     0.890153
      pz      :     0.047979  p :     0.078709
      px      :     0.015597
      py      :     0.015132
 88 H s       :     0.912477  s :     0.912477
      pz      :     0.021907  p :     0.086998
      px      :     0.042682
      py      :     0.022409
 89 H s       :     0.871791  s :     0.871791
      pz      :     0.037929  p :     0.083862
      px      :     0.030479
      py      :     0.015454


                      *****************************
                      * MAYER POPULATION ANALYSIS *
                      *****************************

  NA   - Mulliken gross atomic population
  ZA   - Total nuclear charge
  QA   - Mulliken gross atomic charge
  VA   - Mayer's total valence
  BVA  - Mayer's bonded valence
  FA   - Mayer's free valence

  ATOM       NA         ZA         QA         VA         BVA        FA
  0 C      5.7962     6.0000     0.2038     3.8363     3.8363     0.0000
  1 N      7.4498     7.0000    -0.4498     3.3419     3.3419    -0.0000
  2 C      6.0641     6.0000    -0.0641     3.9201     3.9201    -0.0000
  3 N      7.3363     7.0000    -0.3363     3.4534     3.4534    -0.0000
  4 C      6.0601     6.0000    -0.0601     3.9854     3.9854     0.0000
  5 N      7.5610     7.0000    -0.5610     3.0912     3.0912    -0.0000
  6 C      6.0909     6.0000    -0.0909     4.0063     4.0063    -0.0000
  7 N      7.3392     7.0000    -0.3392     3.4374     3.4374    -0.0000
  8 C      5.7968     6.0000     0.2032     3.8363     3.8363    -0.0000
  9 N      7.5628     7.0000    -0.5628     3.0814     3.0814     0.0000
 10 C      5.8825     6.0000     0.1175     3.9031     3.9031     0.0000
 11 N      7.4373     7.0000    -0.4373     3.3842     3.3842     0.0000
 12 C      6.0765     6.0000    -0.0765     3.9171     3.9171    -0.0000
 13 N      7.4350     7.0000    -0.4350     3.4022     3.4022     0.0000
 14 C      5.7659     6.0000     0.2341     3.7834     3.7834     0.0000
 15 N      7.4412     7.0000    -0.4412     3.3702     3.3702     0.0000
 16 C      5.7690     6.0000     0.2310     3.7841     3.7841     0.0000
 17 C      6.0898     6.0000    -0.0898     4.0057     4.0057     0.0000
 18 C      6.1898     6.0000    -0.1898     3.7663     3.7663    -0.0000
 19 C      5.7785     6.0000     0.2215     3.8680     3.8680    -0.0000
 20 C      5.7880     6.0000     0.2120     3.8267     3.8267    -0.0000
 21 C      6.0844     6.0000    -0.0844     3.9090     3.9090    -0.0000
 22 C      6.0872     6.0000    -0.0872     3.9825     3.9825     0.0000
 23 C      6.0444     6.0000    -0.0444     3.9912     3.9912    -0.0000
 24 C      5.7989     6.0000     0.2011     3.8222     3.8222     0.0000
 25 C      5.8862     6.0000     0.1138     3.8896     3.8896     0.0000
 26 C      6.0737     6.0000    -0.0737     3.9051     3.9051    -0.0000
 27 C      5.7839     6.0000     0.2161     3.8732     3.8732     0.0000
 28 C      6.0565     6.0000    -0.0565     3.9882     3.9882    -0.0000
 29 C      6.1820     6.0000    -0.1820     3.7401     3.7401     0.0000
 30 C      5.7597     6.0000     0.2403     3.7954     3.7954     0.0000
 31 C      5.7792     6.0000     0.2208     3.8230     3.8230    -0.0000
 32 C      6.0631     6.0000    -0.0631     3.9208     3.9208     0.0000
 33 C      6.0717     6.0000    -0.0717     3.9794     3.9794    -0.0000
 34 C      6.0496     6.0000    -0.0496     3.9883     3.9883    -0.0000
 35 C      5.7855     6.0000     0.2145     3.8212     3.8212     0.0000
 36 C      5.8886     6.0000     0.1114     3.8837     3.8837     0.0000
 37 C      6.0655     6.0000    -0.0655     3.9176     3.9176    -0.0000
 38 C      5.7648     6.0000     0.2352     3.8009     3.8009    -0.0000
 39 C      6.0604     6.0000    -0.0604     3.9874     3.9874    -0.0000
 40 C      6.1848     6.0000    -0.1848     3.7345     3.7345    -0.0000
 41 C      5.7780     6.0000     0.2220     3.8833     3.8833     0.0000
 42 C      5.8004     6.0000     0.1996     3.8269     3.8269    -0.0000
 43 C      6.0733     6.0000    -0.0733     3.9014     3.9014    -0.0000
 44 C      6.0903     6.0000    -0.0903     3.9856     3.9856     0.0000
 45 C      6.0572     6.0000    -0.0572     3.9924     3.9924     0.0000
 46 C      5.7934     6.0000     0.2066     3.8274     3.8274     0.0000
 47 C      5.8843     6.0000     0.1157     3.8939     3.8939    -0.0000
 48 C      6.0714     6.0000    -0.0714     3.9066     3.9066     0.0000
 49 C      5.7682     6.0000     0.2318     3.8893     3.8893    -0.0000
 50 C      6.0496     6.0000    -0.0496     3.9906     3.9906     0.0000
 51 C      6.1916     6.0000    -0.1916     3.7370     3.7370    -0.0000
 52 H      0.9537     1.0000     0.0463     0.9857     0.9857     0.0000
 53 H      1.0153     1.0000    -0.0153     0.9986     0.9986    -0.0000
 54 H      0.9526     1.0000     0.0474     1.0087     1.0087     0.0000
 55 H      0.9550     1.0000     0.0450     0.9863     0.9863    -0.0000
 56 H      0.9467     1.0000     0.0533     0.9705     0.9705     0.0000
 57 H      0.9484     1.0000     0.0516     0.9826     0.9826     0.0000
 58 H      0.9493     1.0000     0.0507     0.9857     0.9857    -0.0000
 59 H      1.0049     1.0000    -0.0049     1.0017     1.0017    -0.0000
 60 H      0.9542     1.0000     0.0458     1.0116     1.0116     0.0000
 61 H      0.8283     1.0000     0.1717     1.0421     1.0421    -0.0000
 62 H      0.8257     1.0000     0.1743     1.0436     1.0436    -0.0000
 63 H      0.9429     1.0000     0.0571     0.9853     0.9853    -0.0000
 64 H      1.0122     1.0000    -0.0122     0.9966     0.9966    -0.0000
 65 H      0.9530     1.0000     0.0470     1.0095     1.0095     0.0000
 66 H      0.9426     1.0000     0.0574     0.9852     0.9852     0.0000
 67 H      0.9364     1.0000     0.0636     0.9720     0.9720     0.0000
 68 H      0.9418     1.0000     0.0582     0.9868     0.9868     0.0000
 69 H      0.9417     1.0000     0.0583     0.9829     0.9829     0.0000
 70 H      1.0265     1.0000    -0.0265     0.9932     0.9932    -0.0000
 71 H      0.9525     1.0000     0.0475     1.0063     1.0063    -0.0000
 72 H      0.9365     1.0000     0.0635     0.9843     0.9843    -0.0000
 73 H      1.0111     1.0000    -0.0111     0.9997     0.9997     0.0000
 74 H      0.9468     1.0000     0.0532     1.0101     1.0101    -0.0000
 75 H      0.9374     1.0000     0.0626     0.9848     0.9848    -0.0000
 76 H      0.9319     1.0000     0.0681     0.9719     0.9719    -0.0000
 77 H      0.9372     1.0000     0.0628     0.9853     0.9853    -0.0000
 78 H      0.9381     1.0000     0.0619     0.9850     0.9850    -0.0000
 79 H      1.0147     1.0000    -0.0147     0.9987     0.9987     0.0000
 80 H      0.9464     1.0000     0.0536     1.0071     1.0071    -0.0000
 81 H      0.9465     1.0000     0.0535     0.9856     0.9856     0.0000
 82 H      1.0246     1.0000    -0.0246     0.9937     0.9937    -0.0000
 83 H      0.9582     1.0000     0.0418     1.0088     1.0088     0.0000
 84 H      0.9470     1.0000     0.0530     0.9854     0.9854     0.0000
 85 H      0.9406     1.0000     0.0594     0.9715     0.9715    -0.0000
 86 H      0.9445     1.0000     0.0555     0.9839     0.9839    -0.0000
 87 H      0.9433     1.0000     0.0567     0.9856     0.9856    -0.0000
 88 H      1.0184     1.0000    -0.0184     0.9956     0.9956     0.0000
 89 H      0.9543     1.0000     0.0457     1.0069     1.0069    -0.0000

  Mayer bond orders larger than 0.100000
B(  0-C ,  1-N ) :   1.0984 B(  0-C , 17-C ) :   1.6761 B(  0-C , 52-H ) :   0.9688 
B(  1-N ,  8-C ) :   1.0956 B(  1-N , 10-C ) :   0.9717 B(  2-C , 12-C ) :   1.5244 
B(  2-C , 16-C ) :   1.3381 B(  2-C , 53-H ) :   0.9772 B(  3-N , 14-C ) :   1.2120 
B(  3-N , 16-C ) :   1.1935 B(  3-N , 61-H ) :   0.8991 B(  4-C ,  6-C ) :   1.2301 
B(  4-C , 17-C ) :   1.2320 B(  4-C , 18-C ) :   1.3591 B(  5-N , 19-C ) :   1.4385 
B(  5-N , 27-C ) :   1.3909 B(  6-C ,  8-C ) :   1.6777 B(  6-C , 54-H ) :   0.9686 
B(  7-N , 30-C ) :   1.1933 B(  7-N , 38-C ) :   1.1971 B(  7-N , 62-H ) :   0.8974 
B(  8-C , 55-H ) :   0.9698 B(  9-N , 41-C ) :   1.3990 B(  9-N , 49-C ) :   1.4234 
B( 10-C , 56-H ) :   0.9765 B( 10-C , 57-H ) :   0.9828 B( 10-C , 58-H ) :   0.9833 
B( 11-N , 20-C ) :   1.1298 B( 11-N , 24-C ) :   1.1173 B( 11-N , 25-C ) :   0.9580 
B( 12-C , 14-C ) :   1.3408 B( 12-C , 59-H ) :   0.9754 B( 13-N , 31-C ) :   1.1422 
B( 13-N , 35-C ) :   1.1354 B( 13-N , 36-C ) :   0.9512 B( 14-C , 18-C ) :   1.1633 
B( 15-N , 42-C ) :   1.1104 B( 15-N , 46-C ) :   1.1180 B( 15-N , 47-C ) :   0.9625 
B( 16-C , 51-C ) :   1.1862 B( 17-C , 60-H ) :   0.9683 B( 18-C , 19-C ) :   1.1724 
B( 19-C , 21-C ) :   1.2283 B( 20-C , 28-C ) :   1.6233 B( 20-C , 63-H ) :   0.9701 
B( 21-C , 26-C ) :   1.6301 B( 21-C , 64-H ) :   0.9718 B( 22-C , 23-C ) :   1.2888 
B( 22-C , 28-C ) :   1.2717 B( 22-C , 29-C ) :   1.2217 B( 23-C , 24-C ) :   1.6162 
B( 23-C , 65-H ) :   0.9707 B( 24-C , 66-H ) :   0.9693 B( 25-C , 67-H ) :   0.9761 
B( 25-C , 68-H ) :   0.9828 B( 25-C , 69-H ) :   0.9822 B( 26-C , 27-C ) :   1.2229 
B( 26-C , 70-H ) :   0.9722 B( 27-C , 29-C ) :   1.2225 B( 28-C , 71-H ) :   0.9716 
B( 29-C , 30-C ) :   1.2285 B( 30-C , 32-C ) :   1.2952 B( 31-C , 39-C ) :   1.6108 
B( 31-C , 72-H ) :   0.9689 B( 32-C , 37-C ) :   1.5636 B( 32-C , 73-H ) :   0.9781 
B( 33-C , 34-C ) :   1.2913 B( 33-C , 39-C ) :   1.2840 B( 33-C , 40-C ) :   1.2131 
B( 34-C , 35-C ) :   1.6074 B( 34-C , 74-H ) :   0.9700 B( 35-C , 75-H ) :   0.9690 
B( 36-C , 76-H ) :   0.9765 B( 36-C , 77-H ) :   0.9818 B( 36-C , 78-H ) :   0.9828 
B( 37-C , 38-C ) :   1.2980 B( 37-C , 79-H ) :   0.9773 B( 38-C , 40-C ) :   1.2215 
B( 39-C , 80-H ) :   0.9711 B( 40-C , 41-C ) :   1.2333 B( 41-C , 43-C ) :   1.2021 
B( 42-C , 50-C ) :   1.6350 B( 42-C , 81-H ) :   0.9696 B( 43-C , 48-C ) :   1.6494 
B( 43-C , 82-H ) :   0.9729 B( 44-C , 45-C ) :   1.2655 B( 44-C , 50-C ) :   1.2683 
B( 44-C , 51-C ) :   1.2615 B( 45-C , 46-C ) :   1.6354 B( 45-C , 83-H ) :   0.9715 
B( 46-C , 84-H ) :   0.9702 B( 47-C , 85-H ) :   0.9762 B( 47-C , 86-H ) :   0.9829 
B( 47-C , 87-H ) :   0.9825 B( 48-C , 49-C ) :   1.2041 B( 48-C , 88-H ) :   0.9744 
B( 49-C , 51-C ) :   1.2263 B( 50-C , 89-H ) :   0.9711 

-------
TIMINGS
-------

Total SCF time: 0 days 0 hours 22 min 13 sec 

Total time                  ....    1333.705 sec
Sum of individual times     ....    1330.073 sec  ( 99.7%)

Fock matrix formation       ....    1310.355 sec  ( 98.2%)
Diagonalization             ....       6.551 sec  (  0.5%)
Density matrix formation    ....       0.384 sec  (  0.0%)
Population analysis         ....       0.440 sec  (  0.0%)
Initial guess               ....       1.919 sec  (  0.1%)
Orbital Transformation      ....       0.000 sec  (  0.0%)
Orbital Orthonormalization  ....       0.000 sec  (  0.0%)
DIIS solution               ....       2.945 sec  (  0.2%)
SOSCF solution              ....       6.468 sec  (  0.5%)

Maximum memory used throughout the entire SCF-calculation: 302.6 MB


           ************************************************************
           *        Program running with 16 parallel MPI-processes    *
           *              working on a common directory               *
           ************************************************************

------------------------------------------------------------------------------
                                ORCA  MP2 
------------------------------------------------------------------------------

Freezing NCore=104 chemical core electrons

----------
MP2 ENERGY (disk based algorithm)
----------

Dimension of the basis                    ...  918
Memory devoted to MP2                     ... 2000 MB   
Data format for buffers                   ... DOUBLE
Compression type for matrix containers    ... UNCOMPRESSED

-------------------------------
PARTIAL EXCHANGE TRANSFORMATION
-------------------------------

Transformation type                        ... one-operator
Generation of integrals (i,mue|j,nue)      ... ON
Generation of integrals (mue,kappa|nue,tau)... OFF
Generation of integrals (i,mue|a,nue)      ... OFF
Dimension of the basis                     ...  918
Number of internal MOs                     ...  127 (  52- 178)
Pair cutoff                                ... 2.500e-12 Eh
Number of AO pairs in the trafo            ... 421821
Total Number of distinct AO pairs          ... 421821
Memory devoted for trafo                   ... 2000.0 MB 
Max. Number of MO pairs treated together   ...  311      
Number Format for Storage                  ... Double (8 Byte)
Integral package used                      ... LIBINT

Starting integral evaluation:
    ... done with AO integral generation
Closing buffer AOK     (38.24 GB; CompressionRatio= 1.33)
Collecting buffer AOK 
Number of MO pairs included in the trafo   ... 8128
------------------------
SORTING OF (i,mue|j,nue)
------------------------

IBATCH = 1 of  2
IBATCH = 2 of  2
Closing buffer KAO     (51.03 GB; CompressionRatio= 1.00)
Collecting buffer KAO 
N(AO-Batches) Done                         ...  85569437 
N(AO-Batches) Skipped                      ...  82311439 
N(IJ)-pairs Skipped                        ...         0 
TOTAL TIME for half transformation         ...  5530.813 sec
AO-integral generation                     ...   173.899 sec
Half transformation                        ...   309.857 sec
K-integral sorting                         ...  4872.254 sec

Finished integral transformation - now doing MP2 part

OPERATOR COMBINATION   0   0: ij=( 52..178, 52..178)
Process  1:   Internal MO  60
Process  7:   Internal MO 108
Process  4:   Internal MO  84
Process 13:   Internal MO 156
Process 10:   Internal MO 132
Process  2:   Internal MO  69
Process  1:   Internal MO  63
Process  5:   Internal MO  93
Process  0:   Internal MO  54
Process  3:   Internal MO  78
Process  2:   Internal MO  72
Process  1:   Internal MO  66
Process  0:   Internal MO  57
Process  6:   Internal MO 102
Process  4:   Internal MO  87
Process  2:   Internal MO  75
Process  9:   Internal MO 126
Process  3:   Internal MO  81
Process 11:   Internal MO 141
Process 14:   Internal MO 165
Process  8:   Internal MO 117
Process 12:   Internal MO 150
Process  5:   Internal MO  96
Process  7:   Internal MO 111
Process  4:   Internal MO  90
Process 15:   Internal MO 174
Process  6:   Internal MO 105
Process 10:   Internal MO 135
Process  5:   Internal MO  99
Process  9:   Internal MO 129
Process  8:   Internal MO 120
Process 13:   Internal MO 159
Process  7:   Internal MO 114
Process 11:   Internal MO 144
Process 12:   Internal MO 153
Process 14:   Internal MO 168
Process 10:   Internal MO 138
Process 15:   Internal MO 177
Process  8:   Internal MO 123
Process 11:   Internal MO 147
Process 13:   Internal MO 162
Process 14:   Internal MO 171
-----------------------------------------------
 MP2 CORRELATION ENERGY   :     -7.285845396 Eh
-----------------------------------------------


-------
TIMINGS
-------
Total time                : 5852.447 sec
Integral trafo            : 5533.559 sec ( 94.6%)
K(i,j)                    :   22.506 sec (  0.4%)
T(i,j)                    :    0.308 sec (  0.0%)

---------------------------------------
MP2 TOTAL ENERGY:    -2130.915394969 Eh
---------------------------------------

Maximum memory used throughout the entire MP2-calculation: 2275.2 MB

-------------------------   --------------------
FINAL SINGLE POINT ENERGY     -2130.915394969172
-------------------------   --------------------


                            ***************************************
                            *     ORCA property calculations      *
                            ***************************************


  WARNING: The energy has been calculated at the MP2 level but the densities
           used in the property calculations are still SCF densities
           MP2 response densities have not been calculated 
           use %mp2 Density relaxed end
           or  %mp2 Density unrelaxed end

                                    ---------------------
                                    Active property flags
                                    ---------------------
   (+) Dipole Moment


------------------------------------------------------------------------------
                       ORCA ELECTRIC PROPERTIES CALCULATION
------------------------------------------------------------------------------

Dipole Moment Calculation                       ... on
Quadrupole Moment Calculation                   ... off
Polarizability Calculation                      ... off
GBWName                                         ... /scratch/allen/tmpyp4_amber_gaff2/conf1/conf1/Conf132.orca.gbw
Electron density                                ... /scratch/allen/tmpyp4_amber_gaff2/conf1/conf1/Conf132.orca.scfp
The origin for moment calculation is the CENTER OF MASS  = ( 0.003091, -0.001994  0.002706)

-------------
DIPOLE MOMENT
-------------
                                X             Y             Z
Electronic contribution:      1.02835      -2.62471      -0.21690
Nuclear contribution   :      0.01402       0.19422       0.22756
                        -----------------------------------------
Total Dipole Moment    :      1.04237      -2.43049       0.01066
                        -----------------------------------------
Magnitude (a.u.)       :      2.64460
Magnitude (Debye)      :      6.72204



--------------------
Rotational spectrum 
--------------------
 
Rotational constants in cm-1:     0.001499     0.001476     0.000762 
Rotational constants in MHz :    44.933350    44.244475    22.831602 

 Dipole components along the rotational axes: 
x,y,z [a.u.] :     1.741557    -1.990147     0.014710 
x,y,z [Debye]:     4.426686    -5.058551     0.037389 

 

Timings for individual modules:

Sum of individual times         ...     7208.301 sec (= 120.138 min)
GTO integral calculation        ...        2.711 sec (=   0.045 min)   0.0 %
SCF iterations                  ...     1334.685 sec (=  22.245 min)  18.5 %
MP2 module                      ...     5870.906 sec (=  97.848 min)  81.4 %
                             ****ORCA TERMINATED NORMALLY****
TOTAL RUN TIME: 0 days 2 hours 0 minutes 11 seconds 599 msec
# of primitive gaussian functions

