
                                 *****************
                                 * O   R   C   A *
                                 *****************

                                            #,                                       
                                            ###                                      
                                            ####                                     
                                            #####                                    
                                            ######                                   
                                           ########,                                 
                                     ,,################,,,,,                         
                               ,,#################################,,                 
                          ,,##########################################,,             
                       ,#########################################, ''#####,          
                    ,#############################################,,   '####,        
                  ,##################################################,,,,####,       
                ,###########''''           ''''###############################       
              ,#####''   ,,,,##########,,,,          '''####'''          '####       
            ,##' ,,,,###########################,,,                        '##       
           ' ,,###''''                  '''############,,,                           
         ,,##''                                '''############,,,,        ,,,,,,###''
      ,#''                                            '''#######################'''  
     '                                                          ''''####''''         
             ,#######,   #######,   ,#######,      ##                                
            ,#'     '#,  ##    ##  ,#'     '#,    #''#        ######   ,####,        
            ##       ##  ##   ,#'  ##            #'  '#       #        #'  '#        
            ##       ##  #######   ##           ,######,      #####,   #    #        
            '#,     ,#'  ##    ##  '#,     ,#' ,#      #,         ##   #,  ,#        
             '#######'   ##     ##  '#######'  #'      '#     #####' # '####'        



                  #######################################################
                  #                        -***-                        #
                  #          Department of theory and spectroscopy      #
                  #    Directorship and core code : Frank Neese         #
                  #        Max Planck Institute fuer Kohlenforschung    #
                  #                Kaiser Wilhelm Platz 1               #
                  #                 D-45470 Muelheim/Ruhr               #
                  #                      Germany                        #
                  #                                                     #
                  #                  All rights reserved                #
                  #                        -***-                        #
                  #######################################################


                         Program Version 5.0.4 -  RELEASE  -


 With contributions from (in alphabetic order):
   Daniel Aravena         : Magnetic Suceptibility
   Michael Atanasov       : Ab Initio Ligand Field Theory (pilot matlab implementation)
   Alexander A. Auer      : GIAO ZORA, VPT2 properties, NMR spectrum
   Ute Becker             : Parallelization
   Giovanni Bistoni       : ED, misc. LED, open-shell LED, HFLD
   Martin Brehm           : Molecular dynamics
   Dmytro Bykov           : SCF Hessian
   Vijay G. Chilkuri      : MRCI spin determinant printing, contributions to CSF-ICE
   Dipayan Datta          : RHF DLPNO-CCSD density
   Achintya Kumar Dutta   : EOM-CC, STEOM-CC
   Dmitry Ganyushin       : Spin-Orbit,Spin-Spin,Magnetic field MRCI
   Miquel Garcia          : C-PCM and meta-GGA Hessian, CC/C-PCM, Gaussian charge scheme
   Yang Guo               : DLPNO-NEVPT2, F12-NEVPT2, CIM, IAO-localization
   Andreas Hansen         : Spin unrestricted coupled pair/coupled cluster methods
   Benjamin Helmich-Paris : MC-RPA, TRAH-SCF, COSX integrals
   Lee Huntington         : MR-EOM, pCC
   Robert Izsak           : Overlap fitted RIJCOSX, COSX-SCS-MP3, EOM
   Marcus Kettner         : VPT2
   Christian Kollmar      : KDIIS, OOCD, Brueckner-CCSD(T), CCSD density, CASPT2, CASPT2-K
   Simone Kossmann        : Meta GGA functionals, TD-DFT gradient, OOMP2, MP2 Hessian
   Martin Krupicka        : Initial AUTO-CI
   Lucas Lang             : DCDCAS
   Marvin Lechner         : AUTO-CI (C++ implementation), FIC-MRCC
   Dagmar Lenk            : GEPOL surface, SMD
   Dimitrios Liakos       : Extrapolation schemes; Compound Job, initial MDCI parallelization
   Dimitrios Manganas     : Further ROCIS development; embedding schemes
   Dimitrios Pantazis     : SARC Basis sets
   Anastasios Papadopoulos: AUTO-CI, single reference methods and gradients
   Taras Petrenko         : DFT Hessian,TD-DFT gradient, ASA, ECA, R-Raman, ABS, FL, XAS/XES, NRVS
   Peter Pinski           : DLPNO-MP2, DLPNO-MP2 Gradient
   Christoph Reimann      : Effective Core Potentials
   Marius Retegan         : Local ZFS, SOC
   Christoph Riplinger    : Optimizer, TS searches, QM/MM, DLPNO-CCSD(T), (RO)-DLPNO pert. Triples
   Tobias Risthaus        : Range-separated hybrids, TD-DFT gradient, RPA, STAB
   Michael Roemelt        : Original ROCIS implementation
   Masaaki Saitow         : Open-shell DLPNO-CCSD energy and density
   Barbara Sandhoefer     : DKH picture change effects
   Avijit Sen             : IP-ROCIS
   Kantharuban Sivalingam : CASSCF convergence, NEVPT2, FIC-MRCI
   Bernardo de Souza      : ESD, SOC TD-DFT
   Georgi Stoychev        : AutoAux, RI-MP2 NMR, DLPNO-MP2 response
   Willem Van den Heuvel  : Paramagnetic NMR
   Boris Wezisla          : Elementary symmetry handling
   Frank Wennmohs         : Technical directorship


 We gratefully acknowledge several colleagues who have allowed us to
 interface, adapt or use parts of their codes:
   Stefan Grimme, W. Hujo, H. Kruse, P. Pracht,  : VdW corrections, initial TS optimization,
                  C. Bannwarth, S. Ehlert          DFT functionals, gCP, sTDA/sTD-DF
   Ed Valeev, F. Pavosevic, A. Kumar             : LibInt (2-el integral package), F12 methods
   Garnet Chan, S. Sharma, J. Yang, R. Olivares  : DMRG
   Ulf Ekstrom                                   : XCFun DFT Library
   Mihaly Kallay                                 : mrcc  (arbitrary order and MRCC methods)
   Jiri Pittner, Ondrej Demel                    : Mk-CCSD
   Frank Weinhold                                : gennbo (NPA and NBO analysis)
   Christopher J. Cramer and Donald G. Truhlar   : smd solvation model
   Lars Goerigk                                  : TD-DFT with DH, B97 family of functionals
   V. Asgeirsson, H. Jonsson                     : NEB implementation
   FAccTs GmbH                                   : IRC, NEB, NEB-TS, DLPNO-Multilevel, CI-OPT
                                                   MM, QMMM, 2- and 3-layer-ONIOM, Crystal-QMMM,
                                                   LR-CPCM, SF, NACMEs, symmetry and pop. for TD-DFT,
                                                   nearIR, NL-DFT gradient (VV10), updates on ESD,
                                                   ML-optimized integration grids
   S Lehtola, MJT Oliveira, MAL Marques          : LibXC Library
   Liviu Ungur et al                             : ANISO software


 Your calculation uses the libint2 library for the computation of 2-el integrals
 For citations please refer to: http://libint.valeyev.net

 Your ORCA version has been built with support for libXC version: 5.1.0
 For citations please refer to: https://tddft.org/programs/libxc/

 This ORCA versions uses:
   CBLAS   interface :  Fast vector & matrix operations
   LAPACKE interface :  Fast linear algebra routines
   SCALAPACK package :  Parallel linear algebra routines
   Shared memory     :  Shared parallel matrices
   BLAS/LAPACK       :  OpenBLAS 0.3.15  USE64BITINT DYNAMIC_ARCH NO_AFFINITY Sandybridge SINGLE_THREADED
        Core in use  :  Sandybridge
   Copyright (c) 2011-2014, The OpenBLAS Project


================================================================================

----- Orbital basis set information -----
Your calculation utilizes the basis: cc-pVDZ 
       H, B-Ne : Obtained from the ccRepo (grant-hill.group.shef.ac.uk/ccrepo) Feb. 2017
                 T. H. Dunning, Jr., J. Chem. Phys. 90, 1007 (1989)
            He : Obtained from the ccRepo (grant-hill.group.shef.ac.uk/ccrepo) Feb. 2017
                 D. E. Woon, T. H. Dunning, Jr., J. Chem. Phys. 100, 2975 (1994)
  Li-Be, Na-Mg : Obtained from the ccRepo (grant-hill.group.shef.ac.uk/ccrepo) Feb. 2017
                 B. P. Prascher, D. E. Woon, K. A. Peterson, T. H. Dunning, Jr., A. K. Wilson, Theor. Chem. Acc. 128, 69 (2011)
         Al-Ar : Obtained from the ccRepo (grant-hill.group.shef.ac.uk/ccrepo) Feb. 2017
                 D. E. Woon, T. H. Dunning, Jr., J. Chem. Phys. 98, 1358 (1993)
            Ca : Obtained from the Peterson Research Group Website (tyr0.chem.wsu.edu/~kipeters) Feb. 2017
                 J. Koput, K. A. Peterson, J. Phys. Chem. 106, 9595 (2002)
         Sc-Zn : Obtained from the ccRepo (grant-hill.group.shef.ac.uk/ccrepo) Feb. 2017
                 N. B. Balabanov, K. A. Peterson, J. Chem. Phys. 123, 064107 (2005)
                 N. B. Balabanov, K. A. Peterson, J. Chem. Phys. 125, 074110 (2006)
         Ga-Kr : Obtained from the ccRepo (grant-hill.group.shef.ac.uk/ccrepo) Feb. 2017
                 A. K. Wilson, D. E. Woon, K. A. Peterson, T. H. Dunning, Jr., J. Chem. Phys. 110, 7667 (1999)

================================================================================
                                        WARNINGS
                       Please study these warnings very carefully!
================================================================================


WARNING: No MP2 level density has been requested!
         To caclulate MP2 level properties use
         %mp2 Density relaxed end
         or
         %mp2 Density unrelaxed end

WARNING: Post HF methods need fully converged wavefunctions
  ===> : Setting SCFConvForced true
         You can overwrite this default with %scf ConvForced false 


INFO   : the flag for use of the SHARK integral package has been found!

================================================================================
                                       INPUT FILE
================================================================================
NAME = /scratch/allen/tmpyp4_amber_gaff2/2.Mdgx/conf11/conf11/Conf340.orca
|  1> ! PAL2
|  2> ! mp2 cc-pvdz TightSCF  NoKeepInts
|  3> 
|  4> %scf
|  5>   MaxCore 2000
|  6> end
|  7> %mp2
|  8>   MaxCore 2000
|  9> end
| 10> * xyz 0 1
| 11>    C       -3.10500         6.43700         0.53700
| 12>    C        1.47400         4.04100         0.05700
| 13>    C       -2.80200         4.09300         0.04900
| 14>    C       -4.13400         4.06500        -0.39100
| 15>    C       -4.90100         5.21300        -0.35600
| 16>    C       -5.22100         7.59700         0.09500
| 17>    C        0.13200         4.30700         0.06100
| 18>    C       -0.56900         3.05600         0.04700
| 19>    C        1.64900         2.61800         0.02300
| 20>    C       -2.29700         5.31700         0.51600
| 21>    N       -4.38500         6.37600         0.10600
| 22>    N        0.38800         2.06700         0.02500
| 23>    N       -2.01000         0.39500        -0.07500
| 24>    N       -0.38800        -2.07400        -0.02700
| 25>    N        2.01000        -0.40100         0.06500
| 26>    C       -1.96000         2.86100         0.02400
| 27>    C       -2.62300         1.61500        -0.01800
| 28>    C       -5.57300        -4.32900         1.06600
| 29>    C       -4.07300         1.47100         0.05600
| 30>    C       -4.10600        -2.75600        -0.02600
| 31>    C       -4.99500        -2.75700        -1.11100
| 32>    C       -6.13200        -3.54200        -1.07600
| 33>    C       -7.65100        -5.11300         0.04000
| 34>    C       -4.32400         0.14100         0.03700
| 35>    C       -3.02500        -0.52000        -0.04800
| 36>    C       -4.42200        -3.56600         1.07500
| 37>    N       -6.40700        -4.31300         0.00100
| 38>    C       -2.86700        -1.92200        -0.04000
| 39>    C       -1.65000        -2.62400        -0.02700
| 40>    C        3.56800        -6.14200        -1.04000
| 41>    C       -1.47600        -4.04900        -0.03400
| 42>    C        2.80300        -4.09900        -0.00800
| 43>    C        3.65700        -4.38400         1.06900
| 44>    C        4.42700        -5.53000         1.05900
| 45>    C        5.24500        -7.58800         0.01400
| 46>    C       -0.13400        -4.31500        -0.02200
| 47>    C        0.56800        -3.06400        -0.02700
| 48>    C        2.77500        -5.01200        -1.07400
| 49>    N        4.37600        -6.39100         0.01700
| 50>    C        1.95900        -2.86900        -0.00900
| 51>    C        2.62100        -1.62200         0.00900
| 52>    C        5.54300         4.33900        -1.13000
| 53>    C        4.07000        -1.47900        -0.09400
| 54>    C        4.10400         2.75100        -0.02100
| 55>    C        5.02700         2.72900         1.03600
| 56>    C        6.16600         3.50900         0.97800
| 57>    C        7.61900         5.15300        -0.11500
| 58>    C        4.32100        -0.14800        -0.09200
| 59>    C        3.02500         0.51400         0.01500
| 60>    C        4.38700         3.58200        -1.11500
| 61>    C        2.86600         1.91600         0.01300
| 62>    N        6.41300         4.29600        -0.09500
| 63>    H       -2.76200         7.39800         0.89900
| 64>    H        2.27400         4.76600         0.08100
| 65>    H       -4.57800         3.15300        -0.77100
| 66>    H       -5.92900         5.24200        -0.69300
| 67>    H       -5.14200         8.07300        -0.88600
| 68>    H       -6.25500         7.31700         0.29400
| 69>    H       -4.86200         8.27400         0.86900
| 70>    H       -0.33200         5.28200         0.06900
| 71>    H       -1.28100         5.40000         0.88200
| 72>    H        0.18200         1.07200         0.00500
| 73>    H       -0.18300        -1.08000        -0.02100
| 74>    H       -5.86400        -4.96200         1.89500
| 75>    H       -4.79400         2.27200         0.13900
| 76>    H       -4.80000        -2.16000        -1.99400
| 77>    H       -6.84100        -3.58200        -1.89300
| 78>    H       -8.42800        -4.53600         0.54600
| 79>    H       -7.95600        -5.33700        -0.98100
| 80>    H       -7.45600        -6.03700         0.58400
| 81>    H       -5.28700        -0.34400         0.10000
| 82>    H       -3.78000        -3.60100         1.94700
| 83>    H        3.58700        -6.86800        -1.84300
| 84>    H       -2.27600        -4.77400        -0.05000
| 85>    H        3.71400        -3.72400         1.92600
| 86>    H        5.09200        -5.79500         1.87100
| 87>    H        6.20500        -7.32900        -0.43900
| 88>    H        5.39300        -7.91700         1.04200
| 89>    H        4.75900        -8.37300        -0.56400
| 90>    H        0.32900        -5.29000        -0.00800
| 91>    H        2.14600        -4.84200        -1.94000
| 92>    H        5.80800         4.98600        -1.95600
| 93>    H        4.78800        -2.28100        -0.18500
| 94>    H        4.86000         2.11400         1.91200
| 95>    H        6.90100         3.53100         1.77200
| 96>    H        7.38300         6.10900         0.35600
| 97>    H        8.41400         4.65200         0.43500
| 98>    H        7.92100         5.31000        -1.15000
| 99>    H        5.28300         0.33600        -0.17900
|100>    H        3.72000         3.63200        -1.96700
|101> *
|102> 
|103>                          ****END OF INPUT****
================================================================================

                       ****************************
                       * Single Point Calculation *
                       ****************************

---------------------------------
CARTESIAN COORDINATES (ANGSTROEM)
---------------------------------
  C     -3.105000    6.437000    0.537000
  C      1.474000    4.041000    0.057000
  C     -2.802000    4.093000    0.049000
  C     -4.134000    4.065000   -0.391000
  C     -4.901000    5.213000   -0.356000
  C     -5.221000    7.597000    0.095000
  C      0.132000    4.307000    0.061000
  C     -0.569000    3.056000    0.047000
  C      1.649000    2.618000    0.023000
  C     -2.297000    5.317000    0.516000
  N     -4.385000    6.376000    0.106000
  N      0.388000    2.067000    0.025000
  N     -2.010000    0.395000   -0.075000
  N     -0.388000   -2.074000   -0.027000
  N      2.010000   -0.401000    0.065000
  C     -1.960000    2.861000    0.024000
  C     -2.623000    1.615000   -0.018000
  C     -5.573000   -4.329000    1.066000
  C     -4.073000    1.471000    0.056000
  C     -4.106000   -2.756000   -0.026000
  C     -4.995000   -2.757000   -1.111000
  C     -6.132000   -3.542000   -1.076000
  C     -7.651000   -5.113000    0.040000
  C     -4.324000    0.141000    0.037000
  C     -3.025000   -0.520000   -0.048000
  C     -4.422000   -3.566000    1.075000
  N     -6.407000   -4.313000    0.001000
  C     -2.867000   -1.922000   -0.040000
  C     -1.650000   -2.624000   -0.027000
  C      3.568000   -6.142000   -1.040000
  C     -1.476000   -4.049000   -0.034000
  C      2.803000   -4.099000   -0.008000
  C      3.657000   -4.384000    1.069000
  C      4.427000   -5.530000    1.059000
  C      5.245000   -7.588000    0.014000
  C     -0.134000   -4.315000   -0.022000
  C      0.568000   -3.064000   -0.027000
  C      2.775000   -5.012000   -1.074000
  N      4.376000   -6.391000    0.017000
  C      1.959000   -2.869000   -0.009000
  C      2.621000   -1.622000    0.009000
  C      5.543000    4.339000   -1.130000
  C      4.070000   -1.479000   -0.094000
  C      4.104000    2.751000   -0.021000
  C      5.027000    2.729000    1.036000
  C      6.166000    3.509000    0.978000
  C      7.619000    5.153000   -0.115000
  C      4.321000   -0.148000   -0.092000
  C      3.025000    0.514000    0.015000
  C      4.387000    3.582000   -1.115000
  C      2.866000    1.916000    0.013000
  N      6.413000    4.296000   -0.095000
  H     -2.762000    7.398000    0.899000
  H      2.274000    4.766000    0.081000
  H     -4.578000    3.153000   -0.771000
  H     -5.929000    5.242000   -0.693000
  H     -5.142000    8.073000   -0.886000
  H     -6.255000    7.317000    0.294000
  H     -4.862000    8.274000    0.869000
  H     -0.332000    5.282000    0.069000
  H     -1.281000    5.400000    0.882000
  H      0.182000    1.072000    0.005000
  H     -0.183000   -1.080000   -0.021000
  H     -5.864000   -4.962000    1.895000
  H     -4.794000    2.272000    0.139000
  H     -4.800000   -2.160000   -1.994000
  H     -6.841000   -3.582000   -1.893000
  H     -8.428000   -4.536000    0.546000
  H     -7.956000   -5.337000   -0.981000
  H     -7.456000   -6.037000    0.584000
  H     -5.287000   -0.344000    0.100000
  H     -3.780000   -3.601000    1.947000
  H      3.587000   -6.868000   -1.843000
  H     -2.276000   -4.774000   -0.050000
  H      3.714000   -3.724000    1.926000
  H      5.092000   -5.795000    1.871000
  H      6.205000   -7.329000   -0.439000
  H      5.393000   -7.917000    1.042000
  H      4.759000   -8.373000   -0.564000
  H      0.329000   -5.290000   -0.008000
  H      2.146000   -4.842000   -1.940000
  H      5.808000    4.986000   -1.956000
  H      4.788000   -2.281000   -0.185000
  H      4.860000    2.114000    1.912000
  H      6.901000    3.531000    1.772000
  H      7.383000    6.109000    0.356000
  H      8.414000    4.652000    0.435000
  H      7.921000    5.310000   -1.150000
  H      5.283000    0.336000   -0.179000
  H      3.720000    3.632000   -1.967000

----------------------------
CARTESIAN COORDINATES (A.U.)
----------------------------
  NO LB      ZA    FRAG     MASS         X           Y           Z
   0 C     6.0000    0    12.011   -5.867600   12.164167    1.014783
   1 C     6.0000    0    12.011    2.785456    7.636383    0.107714
   2 C     6.0000    0    12.011   -5.295013    7.734649    0.092597
   3 C     6.0000    0    12.011   -7.812128    7.681737   -0.738883
   4 C     6.0000    0    12.011   -9.261548    9.851142   -0.672743
   5 C     6.0000    0    12.011   -9.866260   14.356249    0.179524
   6 C     6.0000    0    12.011    0.249444    8.139050    0.115273
   7 C     6.0000    0    12.011   -1.075254    5.775003    0.088817
   8 C     6.0000    0    12.011    3.116158    4.947303    0.043464
   9 C     6.0000    0    12.011   -4.340701   10.047674    0.975099
  10 N     7.0000    0    14.007   -8.286449   12.048894    0.200311
  11 N     7.0000    0    14.007    0.733214    3.906064    0.047243
  12 N     7.0000    0    14.007   -3.798350    0.746442   -0.141729
  13 N     7.0000    0    14.007   -0.733214   -3.919292   -0.051023
  14 N     7.0000    0    14.007    3.798350   -0.757780    0.122832
  15 C     6.0000    0    12.011   -3.703863    5.406506    0.045353
  16 C     6.0000    0    12.011   -4.956752    3.051908   -0.034015
  17 C     6.0000    0    12.011  -10.531444   -8.180624    2.014448
  18 C     6.0000    0    12.011   -7.696855    2.779787    0.105825
  19 C     6.0000    0    12.011   -7.759216   -5.208085   -0.049133
  20 C     6.0000    0    12.011   -9.439182   -5.209975   -2.099486
  21 C     6.0000    0    12.011  -11.587801   -6.693410   -2.033345
  22 C     6.0000    0    12.011  -14.458295   -9.662170    0.075589
  23 C     6.0000    0    12.011   -8.171176    0.266451    0.069920
  24 C     6.0000    0    12.011   -5.716422   -0.982658   -0.090707
  25 C     6.0000    0    12.011   -8.356369   -6.738763    2.031456
  26 N     7.0000    0    14.007  -12.107475   -8.150389    0.001890
  27 C     6.0000    0    12.011   -5.417845   -3.632054   -0.075589
  28 C     6.0000    0    12.011   -3.118048   -4.958641   -0.051023
  29 C     6.0000    0    12.011    6.742543  -11.606698   -1.965315
  30 C     6.0000    0    12.011   -2.789236   -7.651501   -0.064251
  31 C     6.0000    0    12.011    5.296902   -7.745987   -0.015118
  32 C     6.0000    0    12.011    6.910728   -8.284559    2.020117
  33 C     6.0000    0    12.011    8.365818  -10.450186    2.001220
  34 C     6.0000    0    12.011    9.911614  -14.339242    0.026456
  35 C     6.0000    0    12.011   -0.253223   -8.154168   -0.041574
  36 C     6.0000    0    12.011    1.073364   -5.790121   -0.051023
  37 C     6.0000    0    12.011    5.243990   -9.471307   -2.029566
  38 N     7.0000    0    14.007    8.269442  -12.077240    0.032125
  39 C     6.0000    0    12.011    3.701973   -5.421624   -0.017008
  40 C     6.0000    0    12.011    4.952972   -3.065136    0.017008
  41 C     6.0000    0    12.011   10.474752    8.199522   -2.135391
  42 C     6.0000    0    12.011    7.691185   -2.794905   -0.177634
  43 C     6.0000    0    12.011    7.755436    5.198637   -0.039684
  44 C     6.0000    0    12.011    9.499653    5.157063    1.957756
  45 C     6.0000    0    12.011   11.652051    6.631049    1.848152
  46 C     6.0000    0    12.011   14.397823    9.737759   -0.217319
  47 C     6.0000    0    12.011    8.165507   -0.279679   -0.173855
  48 C     6.0000    0    12.011    5.716422    0.971319    0.028346
  49 C     6.0000    0    12.011    8.290229    6.768999   -2.107045
  50 C     6.0000    0    12.011    5.415955    3.620715    0.024566
  51 N     7.0000    0    14.007   12.118814    8.118263   -0.179524
  52 H     1.0000    0     1.008   -5.219424   13.980194    1.698864
  53 H     1.0000    0     1.008    4.297237    9.006435    0.153068
  54 H     1.0000    0     1.008   -8.651166    5.958307   -1.456979
  55 H     1.0000    0     1.008  -11.204186    9.905944   -1.309580
  56 H     1.0000    0     1.008   -9.716972   15.255759   -1.674297
  57 H     1.0000    0     1.008  -11.820237   13.827126    0.555579
  58 H     1.0000    0     1.008   -9.187848   15.635594    1.642172
  59 H     1.0000    0     1.008   -0.627389    9.981533    0.130391
  60 H     1.0000    0     1.008   -2.420739   10.204521    1.666738
  61 H     1.0000    0     1.008    0.343930    2.025786    0.009449
  62 H     1.0000    0     1.008   -0.345820   -2.040904   -0.039684
  63 H     1.0000    0     1.008  -11.081354   -9.376821    3.581031
  64 H     1.0000    0     1.008   -9.059347    4.293458    0.262672
  65 H     1.0000    0     1.008   -9.070685   -4.081808   -3.768114
  66 H     1.0000    0     1.008  -12.927616   -6.768999   -3.577252
  67 H     1.0000    0     1.008  -15.926612   -8.571798    1.031790
  68 H     1.0000    0     1.008  -15.034661  -10.085468   -1.853821
  69 H     1.0000    0     1.008  -14.089798  -11.408277    1.103600
  70 H     1.0000    0     1.008   -9.990982   -0.650066    0.188973
  71 H     1.0000    0     1.008   -7.143165   -6.804904    3.679297
  72 H     1.0000    0     1.008    6.778448  -12.978639   -3.482765
  73 H     1.0000    0     1.008   -4.301017   -9.021553   -0.094486
  74 H     1.0000    0     1.008    7.018443   -7.037340    3.639613
  75 H     1.0000    0     1.008    9.622485  -10.950963    3.535678
  76 H     1.0000    0     1.008   11.725751  -13.849803   -0.829590
  77 H     1.0000    0     1.008   10.191293  -14.960962    1.969095
  78 H     1.0000    0     1.008    8.993207  -15.822677   -1.065806
  79 H     1.0000    0     1.008    0.621720   -9.996651   -0.015118
  80 H     1.0000    0     1.008    4.055352   -9.150054   -3.666069
  81 H     1.0000    0     1.008   10.975529    9.422175   -3.696304
  82 H     1.0000    0     1.008    9.048009   -4.310465   -0.349599
  83 H     1.0000    0     1.008    9.184069    3.994881    3.613156
  84 H     1.0000    0     1.008   13.041000    6.672623    3.348595
  85 H     1.0000    0     1.008   13.951848   11.544337    0.672743
  86 H     1.0000    0     1.008   15.900156    8.791006    0.822031
  87 H     1.0000    0     1.008   14.968521   10.034446   -2.173185
  88 H     1.0000    0     1.008    9.983423    0.634948   -0.338261
  89 H     1.0000    0     1.008    7.029781    6.863485   -3.717091

--------------------------------
INTERNAL COORDINATES (ANGSTROEM)
--------------------------------
 C      0   0   0     0.000000000000     0.00000000     0.00000000
 C      1   0   0     5.190227066324     0.00000000     0.00000000
 C      1   2   0     2.413356376501    54.70149692     0.00000000
 C      3   1   2     1.403070917666    87.91414905   197.39749859
 C      4   3   1     1.381093045381   120.17818560     0.12937818
 C      5   4   3     2.447295854612   152.50039249     1.66630165
 C      2   1   3     1.368114030335    17.17236595     6.34631786
 C      7   2   1     1.434084376876   108.05010202   197.04152855
 C      2   1   3     1.434123425651   124.60420805   347.43693974
 C      1   2   3     1.381196944682    26.89328509    19.13882926
 N      1   2   3     1.351991863881   141.71574067   331.17100495
 N      9   2   1     1.376127174356   106.58526707     5.01888116
 N     12   9   2     2.925062050624   168.53581413   171.12065651
 N     13  12   9     2.954513327098    91.55032014    11.12112580
 N     14  13  12     2.925371258490    88.43092389   359.84326247
 C      8   7   2     1.404790019896   127.24786865   181.11170171
 C     13  12   9     1.366535034311    81.72106996   188.00453233
 C     14  13  12     5.758810554272    80.56209567   166.76250791
 C     17  13  12     1.459010623676   111.08861209   183.82872609
 C     18  14  13     2.412235892279    27.27532823    36.33507194
 C     20  18  14     1.402692767501    87.95206320   148.94598259
 C     21  20  18     1.382106725257   120.14573887   359.70382047
 C     18  14  13     2.446510985056   144.15733107    82.80075377
 C     19  17  13     1.353610726908   106.29293361   359.75308708
 C     13  12   9     1.366813447402   172.21332906    33.46711076
 C     18  14  13     1.380960173213    15.08449437   309.23336894
 N     22  21  20     1.352773077792   120.73759875     0.27865223
 C     25  13  17     1.410897586645   125.60330303   182.37774668
 C     14  13  12     1.376642291955    80.24689249   177.85461986
 C     14  13  12     5.764089607215   164.51507311   312.20821879
 C     29  14  13     1.435600919476   106.58649366   178.76395472
 C     30  14  13     2.413316804732    27.10625047    82.12560436
 C     32  30  14     1.403734305344    87.90059683   149.76154742
 C     33  32  30     1.380694028378   120.14881443   359.74174632
 C     34  33  32     2.448777858443   152.49203239     2.45173620
 C     31  29  14     1.368160809262   108.16950133     0.70383075
 C     14  13  12     1.376239804685   169.26375223   353.09862627
 C     30  14  13     1.380907310430    14.68948582   353.70041132
 N     34  33  32     1.352658863128   120.85575621     0.19603406
 C     37  14  29     1.404717053360   126.01551127   180.90772073
 C     15  14  13     1.366491126938    81.61824056   183.09049352
 C      2   1   3     4.249062720177   146.96184613   147.62587872
 C     41  15  14     1.459677704153   111.05201287   175.08990246
 C     42   2   1     2.412953791518    41.78584867   172.57824952
 C     44  42   2     1.403446472082    87.95153797   233.97558675
 C     45  44  42     1.381696421071   120.11137308     0.19721020
 C     42   2   1     2.450019795838   135.97209175    82.89309862
 C     43  41  15     1.354461516618   106.26758155     0.30894352
 C     15  14  13     1.367461151185   171.87382904   332.35056460
 C     42   2   1     1.381886391857    32.59078432   221.43352871
 C      9   2   1     1.404988612053   126.98745415   186.02321869
 N     42   2   1     1.352765315936   113.57249190   110.62968782
 H      1   2   3     1.082688320802    99.27523304   171.57840788
 H      2   1   3     1.079907866440   109.97355006   172.74826580
 H      4   3   1     1.083180502040   121.06159133   179.57292049
 H      5   4   3     1.082217168594   122.81426775   179.41938521
 H      6   5   4     1.093241967727   104.43773463   100.03123667
 H      6   5   4     1.089567345326    84.68736686   209.49315431
 H      6   5   4     1.089167572048   133.89668368   322.33677625
 H      7   2   1     1.079807853278   126.66122480    17.27994233
 H     10   1   2     1.083097871847   118.78218020    33.24995662
 H     12   9   2     1.016297692608   125.29023241   180.00180175
 H     14  13  12     1.014936943854    44.97226959   359.42596618
 H     18  14  13     1.082871645210   128.03556573   234.20482432
 H     19  17  13     1.080893611786   126.41830519   178.11313280
 H     21  20  18     1.083569563987   121.05669627   180.67006309
 H     22  21  20     1.082483256222   122.73097286   180.59748951
 H     23  18  14     1.092105306278   103.92715769   234.93429879
 H     23  18  14     1.088871893291   134.19244188    12.25587044
 H     23  18  14     1.089833473518    84.85857450   125.45241208
 H     24  19  17     1.080075460327   127.28078426   178.44613241
 H     26  18  14     1.083408048706   118.76995697   244.94906660
 H     30  14  13     1.082703098730   127.99711412   279.66882698
 H     31  29  14     1.079759695488   125.22293469   180.92530585
 H     33  32  30     1.083188810873   121.01964473   180.74284758
 H     34  33  32     1.082494341787   122.70821597   180.59516895
 H     35  34  33     1.092652735319   105.73575241    97.19771933
 H     35  34  33     1.089462711615    84.05943581   206.43036958
 H     35  34  33     1.089268102902   133.08365142   318.50306270
 H     36  31  29     1.079439669458   126.61599965   178.98859863
 H     38  30  73     1.083742127999   118.77264435   359.90091293
 H     42   2   1     1.082178358682   119.31790784   327.26121827
 H     43  41  15     1.080281907652   126.36969097   182.06329380
 H     45  44  42     1.083277434455   121.10105945   179.58025624
 H     46  45  44     1.082194529648   122.72144639   179.46906377
 H     47  42   2     1.091546151109   106.65128841   315.16475048
 H     47  42   2     1.088818625851   132.46019523    94.52397119
 H     47  42   2     1.089531091801    83.63838232   206.04504406
 H     48  43  41     1.080402239909   127.23657387   181.62955349
 H     50  42   2     1.083186502870   118.77001737    94.71359229

---------------------------
INTERNAL COORDINATES (A.U.)
---------------------------
 C      0   0   0     0.000000000000     0.00000000     0.00000000
 C      1   0   0     9.808107728217     0.00000000     0.00000000
 C      1   2   0     4.560582615140    54.70149692     0.00000000
 C      3   1   2     2.651419780858    87.91414905   197.39749859
 C      4   3   1     2.609887621234   120.17818560     0.12937818
 C      5   4   3     4.624718933897   152.50039249     1.66630165
 C      2   1   3     2.585360837309    17.17236595     6.34631786
 C      7   2   1     2.710026725231   108.05010202   197.04152855
 C      2   1   3     2.710100516721   124.60420805   347.43693974
 C      1   2   3     2.610083962459    26.89328509    19.13882926
 N      1   2   3     2.554894358025   141.71574067   331.17100495
 N      9   2   1     2.600503484979   106.58526707     5.01888116
 N     12   9   2     5.527566200405   168.53581413   171.12065651
 N     13  12   9     5.583221047236    91.55032014    11.12112580
 N     14  13  12     5.528150518591    88.43092389   359.84326247
 C      8   7   2     2.654668413270   127.24786865   181.11170171
 C     13  12   9     2.582376967257    81.72106996   188.00453233
 C     14  13  12    10.882574804710    80.56209567   166.76250791
 C     17  13  12     2.757130505230   111.08861209   183.82872609
 C     18  14  13     4.558465206823    27.27532823    36.33507194
 C     20  18  14     2.650705180609    87.95206320   148.94598259
 C     21  20  18     2.611803198586   120.14573887   359.70382047
 C     18  14  13     4.623235745386   144.15733107    82.80075377
 C     19  17  13     2.557953565794   106.29293361   359.75308708
 C     13  12   9     2.582903091751   172.21332906    33.46711076
 C     18  14  13     2.609636529225    15.08449437   309.23336894
 N     22  21  20     2.556370638369   120.73759875     0.27865223
 C     25  13  17     2.666210041769   125.60330303   182.37774668
 C     14  13  12     2.601476916169    80.24689249   177.85461986
 C     14  13  12    10.892550769017   164.51507311   312.20821879
 C     29  14  13     2.712892575415   106.58649366   178.76395472
 C     30  14  13     4.560507835333    27.10625047    82.12560436
 C     32  30  14     2.652673401891    87.90059683   149.76154742
 C     33  32  30     2.609133588376   120.14881443   359.74174632
 C     34  33  32     4.627519515267   152.49203239     2.45173620
 C     31  29  14     2.585449236669   108.16950133     0.70383075
 C     14  13  12     2.600716325456   169.26375223   353.09862627
 C     30  14  13     2.609536633043    14.68948582   353.70041132
 N     34  33  32     2.556154803934   120.85575621     0.19603406
 C     37  14  29     2.654530526499   126.01551127   180.90772073
 C     15  14  13     2.582293994346    81.61824056   183.09049352
 C      2   1   3     8.029564866989   146.96184613   147.62587872
 C     41  15  14     2.758391104639   111.05201287   175.08990246
 C     42   2   1     4.559821839776    41.78584867   172.57824952
 C     44  42   2     2.652129475853    87.95153797   233.97558675
 C     45  44  42     2.611027836043   120.11137308     0.19721020
 C     42   2   1     4.629866436820   135.97209175    82.89309862
 C     43  41  15     2.559561325344   106.26758155     0.30894352
 C     15  14  13     2.584127074516   171.87382904   332.35056460
 C     42   2   1     2.611386828803    32.59078432   221.43352871
 C      9   2   1     2.655043698059   126.98745415   186.02321869
 N     42   2   1     2.556355970587   113.57249190   110.62968782
 H      1   2   3     2.045984414710    99.27523304   171.57840788
 H      2   1   3     2.040730117440   109.97355006   172.74826580
 H      4   3   1     2.046914502459   121.06159133   179.57292049
 H      5   4   3     2.045094066071   122.81426775   179.41938521
 H      6   5   4     2.065927917114   104.43773463   100.03123667
 H      6   5   4     2.058983887129    84.68736686   209.49315431
 H      6   5   4     2.058228425118   133.89668368   322.33677625
 H      7   2   1     2.040541119952   126.66122480    17.27994233
 H     10   1   2     2.046758354024   118.78218020    33.24995662
 H     12   9   2     1.920524309565   125.29023241   180.00180175
 H     14  13  12     1.917952867083    44.97226959   359.42596618
 H     18  14  13     2.046330847636   128.03556573   234.20482432
 H     19  17  13     2.042592906181   126.41830519   178.11313280
 H     21  20  18     2.047649722989   121.05669627   180.67006309
 H     22  21  20     2.045596898814   122.73097286   180.59748951
 H     23  18  14     2.063779938267   103.92715769   234.93429879
 H     23  18  14     2.057669673245   134.19244188    12.25587044
 H     23  18  14     2.059486796529    84.85857450   125.45241208
 H     24  19  17     2.041046823986   127.28078426   178.44613241
 H     26  18  14     2.047344503340   118.76995697   244.94906660
 H     30  14  13     2.046012340948   127.99711412   279.66882698
 H     31  29  14     2.040450114918   125.22293469   180.92530585
 H     33  32  30     2.046930203877   121.01964473   180.74284758
 H     34  33  32     2.045617847496   122.70821597   180.59516895
 H     35  34  33     2.064814429233   105.73575241    97.19771933
 H     35  34  33     2.058786158072    84.05943581   206.43036958
 H     35  34  33     2.058418400901   133.08365142   318.50306270
 H     36  31  29     2.039845353366   126.61599965   178.98859863
 H     38  30  73     2.047975821711   118.77264435   359.90091293
 H     42   2   1     2.045020725966   119.31790784   327.26121827
 H     43  41  15     2.041436952892   126.36969097   182.06329380
 H     45  44  42     2.047097678177   121.10105945   179.58025624
 H     46  45  44     2.045051284662   122.72144639   179.46906377
 H     47  42   2     2.062723288131   106.65128841   315.16475048
 H     47  42   2     2.057569012371   132.46019523    94.52397119
 H     47  42   2     2.058915377895    83.63838232   206.04504406
 H     48  43  41     2.041664347903   127.23657387   181.62955349
 H     50  42   2     2.046925842384   118.77001737    94.71359229

---------------------
BASIS SET INFORMATION
---------------------
There are 3 groups of distinct atoms

 Group   1 Type C   : 17s4p1d contracted to 3s2p1d pattern {881/31/1}
 Group   2 Type N   : 17s4p1d contracted to 3s2p1d pattern {881/31/1}
 Group   3 Type H   : 4s1p contracted to 2s1p pattern {31/1}

Atom   0C    basis set group =>   1
Atom   1N    basis set group =>   2
Atom   2C    basis set group =>   1
Atom   3N    basis set group =>   2
Atom   4C    basis set group =>   1
Atom   5N    basis set group =>   2
Atom   6C    basis set group =>   1
Atom   7N    basis set group =>   2
Atom   8C    basis set group =>   1
Atom   9N    basis set group =>   2
Atom  10C    basis set group =>   1
Atom  11N    basis set group =>   2
Atom  12C    basis set group =>   1
Atom  13N    basis set group =>   2
Atom  14C    basis set group =>   1
Atom  15N    basis set group =>   2
Atom  16C    basis set group =>   1
Atom  17C    basis set group =>   1
Atom  18C    basis set group =>   1
Atom  19C    basis set group =>   1
Atom  20C    basis set group =>   1
Atom  21C    basis set group =>   1
Atom  22C    basis set group =>   1
Atom  23C    basis set group =>   1
Atom  24C    basis set group =>   1
Atom  25C    basis set group =>   1
Atom  26C    basis set group =>   1
Atom  27C    basis set group =>   1
Atom  28C    basis set group =>   1
Atom  29C    basis set group =>   1
Atom  30C    basis set group =>   1
Atom  31C    basis set group =>   1
Atom  32C    basis set group =>   1
Atom  33C    basis set group =>   1
Atom  34C    basis set group =>   1
Atom  35C    basis set group =>   1
Atom  36C    basis set group =>   1
Atom  37C    basis set group =>   1
Atom  38C    basis set group =>   1
Atom  39C    basis set group =>   1
Atom  40C    basis set group =>   1
Atom  41C    basis set group =>   1
Atom  42C    basis set group =>   1
Atom  43C    basis set group =>   1
Atom  44C    basis set group =>   1
Atom  45C    basis set group =>   1
Atom  46C    basis set group =>   1
Atom  47C    basis set group =>   1
Atom  48C    basis set group =>   1
Atom  49C    basis set group =>   1
Atom  50C    basis set group =>   1
Atom  51C    basis set group =>   1
Atom  52H    basis set group =>   3
Atom  53H    basis set group =>   3
Atom  54H    basis set group =>   3
Atom  55H    basis set group =>   3
Atom  56H    basis set group =>   3
Atom  57H    basis set group =>   3
Atom  58H    basis set group =>   3
Atom  59H    basis set group =>   3
Atom  60H    basis set group =>   3
Atom  61H    basis set group =>   3
Atom  62H    basis set group =>   3
Atom  63H    basis set group =>   3
Atom  64H    basis set group =>   3
Atom  65H    basis set group =>   3
Atom  66H    basis set group =>   3
Atom  67H    basis set group =>   3
Atom  68H    basis set group =>   3
Atom  69H    basis set group =>   3
Atom  70H    basis set group =>   3
Atom  71H    basis set group =>   3
Atom  72H    basis set group =>   3
Atom  73H    basis set group =>   3
Atom  74H    basis set group =>   3
Atom  75H    basis set group =>   3
Atom  76H    basis set group =>   3
Atom  77H    basis set group =>   3
Atom  78H    basis set group =>   3
Atom  79H    basis set group =>   3
Atom  80H    basis set group =>   3
Atom  81H    basis set group =>   3
Atom  82H    basis set group =>   3
Atom  83H    basis set group =>   3
Atom  84H    basis set group =>   3
Atom  85H    basis set group =>   3
Atom  86H    basis set group =>   3
Atom  87H    basis set group =>   3
Atom  88H    basis set group =>   3
Atom  89H    basis set group =>   3


           ************************************************************
           *        Program running with 8 parallel MPI-processes     *
           *              working on a common directory               *
           ************************************************************
------------------------------------------------------------------------------
                           ORCA GTO INTEGRAL CALCULATION
------------------------------------------------------------------------------
------------------------------------------------------------------------------
                   ___                                                        
                  /   \      - P O W E R E D   B Y -                         
                 /     \                                                     
                 |  |  |   _    _      __       _____    __    __             
                 |  |  |  | |  | |    /  \     |  _  \  |  |  /  |          
                  \  \/   | |  | |   /    \    | | | |  |  | /  /          
                 / \  \   | |__| |  /  /\  \   | |_| |  |  |/  /          
                |  |  |   |  __  | /  /__\  \  |    /   |      \           
                |  |  |   | |  | | |   __   |  |    \   |  |\   \          
                \     /   | |  | | |  |  |  |  | |\  \  |  | \   \       
                 \___/    |_|  |_| |__|  |__|  |_| \__\ |__|  \__/        
                                                                              
                      - O R C A' S   B I G   F R I E N D -                    
                                      &                                       
                       - I N T E G R A L  F E E D E R -                       
                                                                              
 v1 FN, 2020, v2 2021                                                         
------------------------------------------------------------------------------


Reading SHARK input file /scratch/chu_02/allen/tmpyp4_amber_gaff2/conf1/conf1/Conf340.orca.SHARKINP.tmp ... ok
----------------------
SHARK INTEGRAL PACKAGE
----------------------

Number of atoms                             ...     90
Number of basis functions                   ...   1230
Number of shells                            ...    738
Maximum angular momentum                    ...      2
Integral batch strategy                     ... SHARK/LIBINT Hybrid
RI-J (if used) integral strategy            ... SPLIT-RIJ (Revised 2003 algorithm where possible)
Printlevel                                  ...      1
Contraction scheme used                     ... PARTIAL GENERAL contraction
Coulomb Range Separation                    ... NOT USED
Exchange Range Separation                   ... NOT USED
Finite Nucleus Model                        ... NOT USED
Auxiliary Coulomb fitting basis             ... NOT available
Auxiliary J/K fitting basis                 ... NOT available
Auxiliary Correlation fitting basis         ... NOT available
Auxiliary 'external' fitting basis          ... NOT available
Integral threshold                          ...     2.500000e-11
Primitive cut-off                           ...     2.500000e-12
Primitive pair pre-selection threshold      ...     2.500000e-12

Calculating pre-screening integrals         ... done (  0.1 sec) Dimension = 738
Calculating pre-screening integrals (ORCA)  ... done (  0.3 sec) Dimension = 426
Organizing shell pair data                  ... done (  0.5 sec)
Shell pair information
Total number of shell pairs                 ...    272691
Shell pairs after pre-screening             ...     71695
Total number of primitive shell pairs       ...    422091
Primitive shell pairs kept                  ...     92580
          la=0 lb=0:  29427 shell pairs
          la=1 lb=0:  26019 shell pairs
          la=1 lb=1:   4704 shell pairs
          la=2 lb=0:   7892 shell pairs
          la=2 lb=1:   3124 shell pairs
          la=2 lb=2:    529 shell pairs

Calculating one electron integrals          ... done (  0.2 sec)
Calculating Nuclear repulsion               ... done (  0.0 sec) ENN=   6233.168718836923 Eh

SHARK setup successfully completed in   1.6 seconds

Maximum memory used throughout the entire GTOINT-calculation: 99.1 MB


           ************************************************************
           *        Program running with 8 parallel MPI-processes     *
           *              working on a common directory               *
           ************************************************************
-------------------------------------------------------------------------------
                                 ORCA SCF
-------------------------------------------------------------------------------

------------
SCF SETTINGS
------------
Hamiltonian:
 Ab initio Hamiltonian  Method          .... Hartree-Fock(GTOs)


General Settings:
 Integral files         IntName         .... /scratch/chu_02/allen/tmpyp4_amber_gaff2/conf1/conf1/Conf340.orca
 Hartree-Fock type      HFTyp           .... RHF
 Total Charge           Charge          ....    0
 Multiplicity           Mult            ....    1
 Number of Electrons    NEL             ....  358
 Basis Dimension        Dim             ....  918
 Nuclear Repulsion      ENuc            ....   6233.1687188369 Eh

Convergence Acceleration:
 DIIS                   CNVDIIS         .... on
   Start iteration      DIISMaxIt       ....    12
   Startup error        DIISStart       ....  0.200000
   # of expansion vecs  DIISMaxEq       ....     5
   Bias factor          DIISBfac        ....   1.050
   Max. coefficient     DIISMaxC        ....  10.000
 Trust-Rad. Augm. Hess. CNVTRAH         .... auto
   Auto Start mean grad. ratio tolernc. ....  1.125000
   Auto Start start iteration           ....    20
   Auto Start num. interpolation iter.  ....    10
   Max. Number of Micro iterations      ....    16
   Max. Number of Macro iterations      .... Maxiter - #DIIS iter
   Number of Davidson start vectors     ....     2
   Converg. threshold I  (grad. norm)   ....   1.000e-05
   Converg. threshold II (energy diff.) ....   1.000e-08
   Grad. Scal. Fac. for Micro threshold ....   0.100
   Minimum threshold for Micro iter.    ....   0.010
   NR start threshold (gradient norm)   ....   0.001
   Initial trust radius                 ....   0.400
   Minimum AH scaling param. (alpha)    ....   1.000
   Maximum AH scaling param. (alpha)    .... 1000.000
   Orbital update algorithm             .... Taylor
   White noise on init. David. guess    .... on
   Maximum white noise                  ....   0.010
   Quad. conv. algorithm                .... NR
 SOSCF                  CNVSOSCF        .... on
   Start iteration      SOSCFMaxIt      ....   150
   Startup grad/error   SOSCFStart      ....  0.003300
 Level Shifting         CNVShift        .... on
   Level shift para.    LevelShift      ....    0.2500
   Turn off err/grad.   ShiftErr        ....    0.0010
 Zerner damping         CNVZerner       .... off
 Static damping         CNVDamp         .... on
   Fraction old density DampFac         ....    0.7000
   Max. Damping (<1)    DampMax         ....    0.9800
   Min. Damping (>=0)   DampMin         ....    0.0000
   Turn off err/grad.   DampErr         ....    0.1000
 Fernandez-Rico         CNVRico         .... off

SCF Procedure:
 Maximum # iterations   MaxIter         ....   125
 SCF integral mode      SCFMode         .... Direct
   Integral package                     .... SHARK and LIBINT hybrid scheme
 Reset frequency        DirectResetFreq ....    20
 Integral Threshold     Thresh          ....  2.500e-11 Eh
 Primitive CutOff       TCut            ....  2.500e-12 Eh

Convergence Tolerance:
 Convergence Check Mode ConvCheckMode   .... Total+1el-Energy
 Convergence forced     ConvForced      .... 1
 Energy Change          TolE            ....  1.000e-08 Eh
 1-El. energy change                    ....  1.000e-05 Eh
 Orbital Gradient       TolG            ....  1.000e-05
 Orbital Rotation angle TolX            ....  1.000e-05
 DIIS Error             TolErr          ....  5.000e-07


Diagonalization of the overlap matrix:
Smallest eigenvalue                        ... 2.013e-04
Time for diagonalization                   ...    0.219 sec
Threshold for overlap eigenvalues          ... 1.000e-08
Number of eigenvalues below threshold      ... 0
Time for construction of square roots      ...    0.125 sec
Total time needed                          ...    0.349 sec

Time for model grid setup =    1.390 sec

------------------------------
INITIAL GUESS: MODEL POTENTIAL
------------------------------
Loading Hartree-Fock densities                     ... done
Calculating cut-offs                               ... done
Initializing the effective Hamiltonian             ... done
Setting up the integral package (SHARK)            ... done
Starting the Coulomb interaction                   ... done (   1.6 sec)
Reading the grid                                   ... done
Mapping shells                                     ... done
Starting the XC term evaluation                    ... done (   0.3 sec)
Transforming the Hamiltonian                       ... done (   0.1 sec)
Diagonalizing the Hamiltonian                      ... done (   0.2 sec)
Back transforming the eigenvectors                 ... done (   0.0 sec)
Now organizing SCF variables                       ... done
                      ------------------
                      INITIAL GUESS DONE (   3.7 sec)
                      ------------------
--------------
SCF ITERATIONS
--------------
ITER       Energy         Delta-E        Max-DP      RMS-DP      [F,P]     Damp
               ***  Starting incremental Fock matrix formation  ***
  0  -2121.6685179520   0.000000000000 0.08366009  0.00123544  0.2315570 0.7000
  1  -2122.3167642115  -0.648246259545 0.06300712  0.00100503  0.1436021 0.7000
                               ***Turning on DIIS***
  2  -2122.7205280951  -0.403763883520 0.14638795  0.00228460  0.0802811 0.0000
  3  -2118.0153687873   4.705159307705 0.04099629  0.00067442  0.0436108 0.0000
  4  -2123.4071611205  -5.391792333181 0.01271759  0.00022606  0.0088622 0.0000
  5  -2123.5514240201  -0.144262899590 0.00617775  0.00013210  0.0049117 0.0000
  6  -2123.5356380782   0.015785941881 0.00367333  0.00008475  0.0021557 0.0000
  7  -2123.6300569810  -0.094418902811 0.00315126  0.00006694  0.0016083 0.0000
  8  -2123.6385815883  -0.008524607227 0.00333201  0.00006381  0.0015009 0.0000
  9  -2123.6101679534   0.028413634918 0.00266059  0.00004521  0.0012052 0.0000
 10  -2123.6186576948  -0.008489741438 0.00535085  0.00009514  0.0009381 0.0000
                      *** Initiating the SOSCF procedure ***
                           *** Shutting down DIIS ***
                      *** Re-Reading the Fockian *** 
                      *** Removing any level shift *** 
ITER      Energy       Delta-E        Grad      Rot      Max-DP    RMS-DP
 11  -2123.51152101   0.1071366818  0.000176  0.000176  0.000236  0.000005
               *** Restarting incremental Fock matrix formation ***
 12  -2123.57745406  -0.0659330456  0.000872  0.006440  0.001455  0.000035
 13  -2123.57756449  -0.0001104324  0.001090  0.031913  0.006697  0.000138
 14  -2123.57775146  -0.0001869659  0.000365  0.001537  0.000602  0.000012
 15  -2123.57776657  -0.0000151116  0.000156  0.001918  0.000583  0.000014
 16  -2123.57777401  -0.0000074423  0.000147  0.002359  0.000461  0.000009
 17  -2123.57777650  -0.0000024869  0.000116  0.001718  0.000285  0.000006
 18  -2123.57777766  -0.0000011647  0.000059  0.000589  0.000235  0.000003
 19  -2123.57777823  -0.0000005645  0.000041  0.000769  0.000176  0.000003
 20  -2123.57777848  -0.0000002577  0.000020  0.000481  0.000095  0.000002
 21  -2123.57777860  -0.0000001158  0.000021  0.000639  0.000114  0.000002
 22  -2123.57777870  -0.0000001023  0.000018  0.000636  0.000109  0.000002
 23  -2123.57777877  -0.0000000677  0.000011  0.000401  0.000070  0.000001
 24  -2123.57777881  -0.0000000376  0.000006  0.000337  0.000050  0.000001
 25  -2123.57777884  -0.0000000280  0.000006  0.000167  0.000031  0.000001
 26  -2123.57777885  -0.0000000159  0.000005  0.000126  0.000027  0.000001
 27  -2123.57777886  -0.0000000102  0.000003  0.000099  0.000021  0.000000
                  ***Gradient check signals convergence***
              ***Rediagonalizing the Fockian in SOSCF/NRSCF***

               *****************************************************
               *                     SUCCESS                       *
               *           SCF CONVERGED AFTER  28 CYCLES          *
               *****************************************************


----------------
TOTAL SCF ENERGY
----------------

Total Energy       :        -2123.57777887 Eh          -57785.48912 eV

Components:
Nuclear Repulsion  :         6233.16871884 Eh          169613.14381 eV
Electronic Energy  :        -8356.74649770 Eh         -227398.63293 eV
One Electron Energy:       -15307.01645711 Eh         -416525.09352 eV
Two Electron Energy:         6950.26995941 Eh          189126.46060 eV

Virial components:
Potential Energy   :        -4245.89131759 Eh         -115536.57652 eV
Kinetic Energy     :         2122.31353873 Eh           57751.08740 eV
Virial Ratio       :            2.00059569


---------------
SCF CONVERGENCE
---------------

  Last Energy change         ...   -4.6603e-09  Tolerance :   1.0000e-08
  Last MAX-Density change    ...    1.1226e-05  Tolerance :   1.0000e-07
  Last RMS-Density change    ...    2.2813e-07  Tolerance :   5.0000e-09
  Last Orbital Gradient      ...    1.9762e-06  Tolerance :   1.0000e-05
  Last Orbital Rotation      ...    6.1942e-05  Tolerance :   1.0000e-05

             **** THE GBW FILE WAS UPDATED (/scratch/chu_02/allen/tmpyp4_amber_gaff2/conf1/conf1/Conf340.orca.gbw) ****
             **** DENSITY /scratch/chu_02/allen/tmpyp4_amber_gaff2/conf1/conf1/Conf340.orca.scfp WAS UPDATED ****
             **** ENERGY FILE WAS UPDATED (/scratch/chu_02/allen/tmpyp4_amber_gaff2/conf1/conf1/Conf340.orca.en.tmp) ****
             **** THE GBW FILE WAS UPDATED (/scratch/chu_02/allen/tmpyp4_amber_gaff2/conf1/conf1/Conf340.orca.gbw) ****
             **** DENSITY /scratch/chu_02/allen/tmpyp4_amber_gaff2/conf1/conf1/Conf340.orca.scfp WAS UPDATED ****
----------------
ORBITAL ENERGIES
----------------

  NO   OCC          E(Eh)            E(eV) 
   0   2.0000     -15.677849      -426.6160 
   1   2.0000     -15.636018      -425.4777 
   2   2.0000     -15.629856      -425.3100 
   3   2.0000     -15.587737      -424.1639 
   4   2.0000     -15.525597      -422.4730 
   5   2.0000     -15.515519      -422.1987 
   6   2.0000     -15.453018      -420.4980 
   7   2.0000     -15.441527      -420.1853 
   8   2.0000     -11.328101      -308.2533 
   9   2.0000     -11.326732      -308.2160 
  10   2.0000     -11.326415      -308.2074 
  11   2.0000     -11.300611      -307.5053 
  12   2.0000     -11.297107      -307.4099 
  13   2.0000     -11.294606      -307.3419 
  14   2.0000     -11.289409      -307.2004 
  15   2.0000     -11.288549      -307.1770 
  16   2.0000     -11.284956      -307.0793 
  17   2.0000     -11.280252      -306.9513 
  18   2.0000     -11.270608      -306.6888 
  19   2.0000     -11.262046      -306.4558 
  20   2.0000     -11.261077      -306.4295 
  21   2.0000     -11.253388      -306.2202 
  22   2.0000     -11.249990      -306.1278 
  23   2.0000     -11.239742      -305.8489 
  24   2.0000     -11.234691      -305.7115 
  25   2.0000     -11.232749      -305.6586 
  26   2.0000     -11.232136      -305.6420 
  27   2.0000     -11.228276      -305.5369 
  28   2.0000     -11.227948      -305.5280 
  29   2.0000     -11.211592      -305.0829 
  30   2.0000     -11.210102      -305.0424 
  31   2.0000     -11.195637      -304.6488 
  32   2.0000     -11.190808      -304.5174 
  33   2.0000     -11.189633      -304.4854 
  34   2.0000     -11.188238      -304.4474 
  35   2.0000     -11.186841      -304.4094 
  36   2.0000     -11.185590      -304.3754 
  37   2.0000     -11.184070      -304.3340 
  38   2.0000     -11.183063      -304.3066 
  39   2.0000     -11.174774      -304.0811 
  40   2.0000     -11.173870      -304.0565 
  41   2.0000     -11.169294      -303.9319 
  42   2.0000     -11.169235      -303.9303 
  43   2.0000     -11.160646      -303.6966 
  44   2.0000     -11.160379      -303.6894 
  45   2.0000     -11.158251      -303.6314 
  46   2.0000     -11.155545      -303.5578 
  47   2.0000     -11.154984      -303.5425 
  48   2.0000     -11.146294      -303.3061 
  49   2.0000     -11.136470      -303.0388 
  50   2.0000     -11.131435      -302.9017 
  51   2.0000     -11.120247      -302.5973 
  52   2.0000      -1.358728       -36.9729 
  53   2.0000      -1.323003       -36.0008 
  54   2.0000      -1.317910       -35.8622 
  55   2.0000      -1.281500       -34.8714 
  56   2.0000      -1.226630       -33.3783 
  57   2.0000      -1.209862       -32.9220 
  58   2.0000      -1.172315       -31.9003 
  59   2.0000      -1.151869       -31.3440 
  60   2.0000      -1.142267       -31.0827 
  61   2.0000      -1.111684       -30.2505 
  62   2.0000      -1.107610       -30.1396 
  63   2.0000      -1.080552       -29.4033 
  64   2.0000      -1.077888       -29.3308 
  65   2.0000      -1.047135       -28.4940 
  66   2.0000      -1.042643       -28.3718 
  67   2.0000      -1.040293       -28.3078 
  68   2.0000      -1.015245       -27.6262 
  69   2.0000      -1.011904       -27.5353 
  70   2.0000      -1.008858       -27.4524 
  71   2.0000      -0.993960       -27.0470 
  72   2.0000      -0.985893       -26.8275 
  73   2.0000      -0.981353       -26.7040 
  74   2.0000      -0.971878       -26.4462 
  75   2.0000      -0.961077       -26.1522 
  76   2.0000      -0.953756       -25.9530 
  77   2.0000      -0.945690       -25.7335 
  78   2.0000      -0.935312       -25.4511 
  79   2.0000      -0.917897       -24.9772 
  80   2.0000      -0.909126       -24.7386 
  81   2.0000      -0.895256       -24.3612 
  82   2.0000      -0.875744       -23.8302 
  83   2.0000      -0.873435       -23.7674 
  84   2.0000      -0.868868       -23.6431 
  85   2.0000      -0.857498       -23.3337 
  86   2.0000      -0.839265       -22.8376 
  87   2.0000      -0.836384       -22.7592 
  88   2.0000      -0.825015       -22.4498 
  89   2.0000      -0.797222       -21.6935 
  90   2.0000      -0.789968       -21.4961 
  91   2.0000      -0.753029       -20.4910 
  92   2.0000      -0.747192       -20.3321 
  93   2.0000      -0.733784       -19.9673 
  94   2.0000      -0.725264       -19.7354 
  95   2.0000      -0.722592       -19.6627 
  96   2.0000      -0.717066       -19.5124 
  97   2.0000      -0.713780       -19.4229 
  98   2.0000      -0.708618       -19.2825 
  99   2.0000      -0.697908       -18.9911 
 100   2.0000      -0.696375       -18.9493 
 101   2.0000      -0.685500       -18.6534 
 102   2.0000      -0.682986       -18.5850 
 103   2.0000      -0.681170       -18.5356 
 104   2.0000      -0.679330       -18.4855 
 105   2.0000      -0.673100       -18.3160 
 106   2.0000      -0.670879       -18.2555 
 107   2.0000      -0.660676       -17.9779 
 108   2.0000      -0.655900       -17.8479 
 109   2.0000      -0.654258       -17.8033 
 110   2.0000      -0.650200       -17.6928 
 111   2.0000      -0.644744       -17.5444 
 112   2.0000      -0.644129       -17.5276 
 113   2.0000      -0.638262       -17.3680 
 114   2.0000      -0.636876       -17.3303 
 115   2.0000      -0.627142       -17.0654 
 116   2.0000      -0.621800       -16.9200 
 117   2.0000      -0.619851       -16.8670 
 118   2.0000      -0.614075       -16.7098 
 119   2.0000      -0.613273       -16.6880 
 120   2.0000      -0.610265       -16.6062 
 121   2.0000      -0.609799       -16.5935 
 122   2.0000      -0.599600       -16.3160 
 123   2.0000      -0.586546       -15.9607 
 124   2.0000      -0.582754       -15.8575 
 125   2.0000      -0.580466       -15.7953 
 126   2.0000      -0.579012       -15.7557 
 127   2.0000      -0.573267       -15.5994 
 128   2.0000      -0.569071       -15.4852 
 129   2.0000      -0.559282       -15.2188 
 130   2.0000      -0.551494       -15.0069 
 131   2.0000      -0.547742       -14.9048 
 132   2.0000      -0.543075       -14.7778 
 133   2.0000      -0.542388       -14.7591 
 134   2.0000      -0.539414       -14.6782 
 135   2.0000      -0.534821       -14.5532 
 136   2.0000      -0.528993       -14.3946 
 137   2.0000      -0.520376       -14.1601 
 138   2.0000      -0.518293       -14.1035 
 139   2.0000      -0.514344       -13.9960 
 140   2.0000      -0.511836       -13.9278 
 141   2.0000      -0.510675       -13.8962 
 142   2.0000      -0.509868       -13.8742 
 143   2.0000      -0.503875       -13.7111 
 144   2.0000      -0.500945       -13.6314 
 145   2.0000      -0.495620       -13.4865 
 146   2.0000      -0.492318       -13.3967 
 147   2.0000      -0.482240       -13.1224 
 148   2.0000      -0.477943       -13.0055 
 149   2.0000      -0.467238       -12.7142 
 150   2.0000      -0.465984       -12.6801 
 151   2.0000      -0.457108       -12.4385 
 152   2.0000      -0.450732       -12.2651 
 153   2.0000      -0.445763       -12.1298 
 154   2.0000      -0.440395       -11.9838 
 155   2.0000      -0.427913       -11.6441 
 156   2.0000      -0.418560       -11.3896 
 157   2.0000      -0.409410       -11.1406 
 158   2.0000      -0.407634       -11.0923 
 159   2.0000      -0.387297       -10.5389 
 160   2.0000      -0.386353       -10.5132 
 161   2.0000      -0.377943       -10.2844 
 162   2.0000      -0.371419       -10.1068 
 163   2.0000      -0.358105        -9.7445 
 164   2.0000      -0.354493        -9.6462 
 165   2.0000      -0.340966        -9.2781 
 166   2.0000      -0.337875        -9.1940 
 167   2.0000      -0.326160        -8.8753 
 168   2.0000      -0.321393        -8.7455 
 169   2.0000      -0.305783        -8.3208 
 170   2.0000      -0.299320        -8.1449 
 171   2.0000      -0.285094        -7.7578 
 172   2.0000      -0.279928        -7.6172 
 173   2.0000      -0.262846        -7.1524 
 174   2.0000      -0.242224        -6.5913 
 175   2.0000      -0.190104        -5.1730 
 176   2.0000      -0.180709        -4.9174 
 177   2.0000      -0.078263        -2.1297 
 178   2.0000      -0.059163        -1.6099 
 179   0.0000       0.028192         0.7671 
 180   0.0000       0.065434         1.7805 
 181   0.0000       0.090744         2.4693 
 182   0.0000       0.107448         2.9238 
 183   0.0000       0.112953         3.0736 
 184   0.0000       0.135759         3.6942 
 185   0.0000       0.140545         3.8244 
 186   0.0000       0.141947         3.8626 
 187   0.0000       0.163863         4.4589 
 188   0.0000       0.164787         4.4841 
 189   0.0000       0.166748         4.5374 
 190   0.0000       0.172376         4.6906 
 191   0.0000       0.181374         4.9354 
 192   0.0000       0.184791         5.0284 
 193   0.0000       0.188818         5.1380 
 194   0.0000       0.203692         5.5427 
 195   0.0000       0.206665         5.6236 
 196   0.0000       0.207045         5.6340 
 197   0.0000       0.209820         5.7095 
 198   0.0000       0.217458         5.9173 
 199   0.0000       0.227844         6.1999 
 200   0.0000       0.234478         6.3805 
 201   0.0000       0.234632         6.3847 
 202   0.0000       0.238329         6.4853 
 203   0.0000       0.240542         6.5455 
 204   0.0000       0.246605         6.7105 
 205   0.0000       0.255371         6.9490 
 206   0.0000       0.256055         6.9676 
 207   0.0000       0.258303         7.0288 
 208   0.0000       0.260044         7.0762 
 209   0.0000       0.260950         7.1008 
 210   0.0000       0.263772         7.1776 
 211   0.0000       0.266393         7.2489 
 212   0.0000       0.269097         7.3225 
 213   0.0000       0.270223         7.3532 
 214   0.0000       0.272556         7.4166 
 215   0.0000       0.276734         7.5303 
 216   0.0000       0.278930         7.5901 
 217   0.0000       0.280462         7.6318 
 218   0.0000       0.286258         7.7895 
 219   0.0000       0.288376         7.8471 
 220   0.0000       0.289354         7.8737 
 221   0.0000       0.292110         7.9487 
 222   0.0000       0.294600         8.0165 
 223   0.0000       0.295664         8.0454 
 224   0.0000       0.298285         8.1167 
 225   0.0000       0.299493         8.1496 
 226   0.0000       0.304737         8.2923 
 227   0.0000       0.309039         8.4094 
 228   0.0000       0.310090         8.4380 
 229   0.0000       0.324328         8.8254 
 230   0.0000       0.327840         8.9210 
 231   0.0000       0.333870         9.0851 
 232   0.0000       0.339893         9.2490 
 233   0.0000       0.347416         9.4537 
 234   0.0000       0.354907         9.6575 
 235   0.0000       0.357982         9.7412 
 236   0.0000       0.375846        10.2273 
 237   0.0000       0.386339        10.5128 
 238   0.0000       0.392383        10.6773 
 239   0.0000       0.396051        10.7771 
 240   0.0000       0.401605        10.9282 
 241   0.0000       0.409079        11.1316 
 242   0.0000       0.412457        11.2235 
 243   0.0000       0.419379        11.4119 
 244   0.0000       0.427878        11.6432 
 245   0.0000       0.434403        11.8207 
 246   0.0000       0.437052        11.8928 
 247   0.0000       0.439728        11.9656 
 248   0.0000       0.442466        12.0401 
 249   0.0000       0.448116        12.1939 
 250   0.0000       0.458829        12.4854 
 251   0.0000       0.467279        12.7153 
 252   0.0000       0.468560        12.7502 
 253   0.0000       0.470419        12.8007 
 254   0.0000       0.472947        12.8696 
 255   0.0000       0.475643        12.9429 
 256   0.0000       0.475916        12.9503 
 257   0.0000       0.479803        13.0561 
 258   0.0000       0.487637        13.2693 
 259   0.0000       0.496075        13.4989 
 260   0.0000       0.503297        13.6954 
 261   0.0000       0.504376        13.7248 
 262   0.0000       0.507520        13.8103 
 263   0.0000       0.511767        13.9259 
 264   0.0000       0.514829        14.0092 
 265   0.0000       0.517195        14.0736 
 266   0.0000       0.524995        14.2858 
 267   0.0000       0.528505        14.3814 
 268   0.0000       0.534289        14.5387 
 269   0.0000       0.536937        14.6108 
 270   0.0000       0.540767        14.7150 
 271   0.0000       0.545181        14.8351 
 272   0.0000       0.557525        15.1710 
 273   0.0000       0.559187        15.2163 
 274   0.0000       0.561454        15.2779 
 275   0.0000       0.565632        15.3916 
 276   0.0000       0.569748        15.5036 
 277   0.0000       0.573517        15.6062 
 278   0.0000       0.577683        15.7196 
 279   0.0000       0.586092        15.9484 
 280   0.0000       0.590107        16.0576 
 281   0.0000       0.591240        16.0885 
 282   0.0000       0.594743        16.1838 
 283   0.0000       0.595720        16.2104 
 284   0.0000       0.598001        16.2724 
 285   0.0000       0.601597        16.3703 
 286   0.0000       0.607821        16.5397 
 287   0.0000       0.611699        16.6452 
 288   0.0000       0.614895        16.7322 
 289   0.0000       0.625936        17.0326 
 290   0.0000       0.626022        17.0349 
 291   0.0000       0.628885        17.1128 
 292   0.0000       0.635749        17.2996 
 293   0.0000       0.638696        17.3798 
 294   0.0000       0.644490        17.5375 
 295   0.0000       0.648586        17.6489 
 296   0.0000       0.653340        17.7783 
 297   0.0000       0.655902        17.8480 
 298   0.0000       0.662202        18.0194 
 299   0.0000       0.665844        18.1185 
 300   0.0000       0.670910        18.2564 
 301   0.0000       0.674527        18.3548 
 302   0.0000       0.677176        18.4269 
 303   0.0000       0.677646        18.4397 
 304   0.0000       0.680695        18.5226 
 305   0.0000       0.684485        18.6258 
 306   0.0000       0.689465        18.7613 
 307   0.0000       0.691838        18.8259 
 308   0.0000       0.696237        18.9456 
 309   0.0000       0.698978        19.0201 
 310   0.0000       0.701570        19.0907 
 311   0.0000       0.704503        19.1705 
 312   0.0000       0.707884        19.2625 
 313   0.0000       0.710542        19.3348 
 314   0.0000       0.711946        19.3730 
 315   0.0000       0.714432        19.4407 
 316   0.0000       0.717036        19.5115 
 317   0.0000       0.719012        19.5653 
 318   0.0000       0.721508        19.6332 
 319   0.0000       0.723983        19.7006 
 320   0.0000       0.728110        19.8129 
 321   0.0000       0.729455        19.8495 
 322   0.0000       0.730812        19.8864 
 323   0.0000       0.733136        19.9496 
 324   0.0000       0.737724        20.0745 
 325   0.0000       0.741345        20.1730 
 326   0.0000       0.744111        20.2483 
 327   0.0000       0.748633        20.3713 
 328   0.0000       0.753065        20.4919 
 329   0.0000       0.753466        20.5029 
 330   0.0000       0.757333        20.6081 
 331   0.0000       0.758842        20.6491 
 332   0.0000       0.761225        20.7140 
 333   0.0000       0.764151        20.7936 
 334   0.0000       0.768704        20.9175 
 335   0.0000       0.771888        21.0041 
 336   0.0000       0.775955        21.1148 
 337   0.0000       0.781960        21.2782 
 338   0.0000       0.785845        21.3839 
 339   0.0000       0.788254        21.4495 
 340   0.0000       0.790520        21.5111 
 341   0.0000       0.794249        21.6126 
 342   0.0000       0.796648        21.6779 
 343   0.0000       0.803071        21.8527 
 344   0.0000       0.805696        21.9241 
 345   0.0000       0.807463        21.9722 
 346   0.0000       0.808105        21.9896 
 347   0.0000       0.812956        22.1216 
 348   0.0000       0.816897        22.2289 
 349   0.0000       0.817120        22.2350 
 350   0.0000       0.818602        22.2753 
 351   0.0000       0.819022        22.2867 
 352   0.0000       0.823614        22.4117 
 353   0.0000       0.826855        22.4999 
 354   0.0000       0.828710        22.5503 
 355   0.0000       0.830888        22.6096 
 356   0.0000       0.832829        22.6624 
 357   0.0000       0.836349        22.7582 
 358   0.0000       0.838475        22.8161 
 359   0.0000       0.840013        22.8579 
 360   0.0000       0.841548        22.8997 
 361   0.0000       0.842727        22.9318 
 362   0.0000       0.844364        22.9763 
 363   0.0000       0.847946        23.0738 
 364   0.0000       0.848295        23.0833 
 365   0.0000       0.855266        23.2730 
 366   0.0000       0.856987        23.3198 
 367   0.0000       0.862905        23.4808 
 368   0.0000       0.864718        23.5302 
 369   0.0000       0.866218        23.5710 
 370   0.0000       0.870545        23.6887 
 371   0.0000       0.871355        23.7108 
 372   0.0000       0.874104        23.7856 
 373   0.0000       0.877606        23.8809 
 374   0.0000       0.879065        23.9206 
 375   0.0000       0.881167        23.9778 
 376   0.0000       0.887564        24.1519 
 377   0.0000       0.888573        24.1793 
 378   0.0000       0.891887        24.2695 
 379   0.0000       0.894958        24.3530 
 380   0.0000       0.897359        24.4184 
 381   0.0000       0.898147        24.4398 
 382   0.0000       0.899831        24.4856 
 383   0.0000       0.901959        24.5435 
 384   0.0000       0.904814        24.6213 
 385   0.0000       0.905755        24.6468 
 386   0.0000       0.908227        24.7141 
 387   0.0000       0.909578        24.7509 
 388   0.0000       0.912604        24.8332 
 389   0.0000       0.915283        24.9061 
 390   0.0000       0.920554        25.0496 
 391   0.0000       0.924516        25.1573 
 392   0.0000       0.925551        25.1855 
 393   0.0000       0.927486        25.2382 
 394   0.0000       0.929272        25.2868 
 395   0.0000       0.930801        25.3284 
 396   0.0000       0.935410        25.4538 
 397   0.0000       0.939928        25.5767 
 398   0.0000       0.942405        25.6441 
 399   0.0000       0.945755        25.7353 
 400   0.0000       0.946004        25.7421 
 401   0.0000       0.952052        25.9067 
 402   0.0000       0.953465        25.9451 
 403   0.0000       0.953873        25.9562 
 404   0.0000       0.960547        26.1378 
 405   0.0000       0.964553        26.2468 
 406   0.0000       0.968135        26.3443 
 407   0.0000       0.975315        26.5397 
 408   0.0000       0.977737        26.6056 
 409   0.0000       0.980423        26.6787 
 410   0.0000       0.982884        26.7456 
 411   0.0000       0.986279        26.8380 
 412   0.0000       0.992576        27.0094 
 413   0.0000       1.001582        27.2544 
 414   0.0000       1.004549        27.3352 
 415   0.0000       1.010245        27.4902 
 416   0.0000       1.011549        27.5256 
 417   0.0000       1.015954        27.6455 
 418   0.0000       1.019745        27.7487 
 419   0.0000       1.025933        27.9170 
 420   0.0000       1.031227        28.0611 
 421   0.0000       1.035029        28.1646 
 422   0.0000       1.045267        28.4432 
 423   0.0000       1.048405        28.5286 
 424   0.0000       1.051914        28.6240 
 425   0.0000       1.063814        28.9478 
 426   0.0000       1.070051        29.1176 
 427   0.0000       1.071836        29.1661 
 428   0.0000       1.078077        29.3360 
 429   0.0000       1.080603        29.4047 
 430   0.0000       1.082954        29.4687 
 431   0.0000       1.085000        29.5243 
 432   0.0000       1.092710        29.7341 
 433   0.0000       1.097722        29.8705 
 434   0.0000       1.099830        29.9279 
 435   0.0000       1.104162        30.0458 
 436   0.0000       1.110207        30.2103 
 437   0.0000       1.112679        30.2775 
 438   0.0000       1.114134        30.3171 
 439   0.0000       1.118526        30.4366 
 440   0.0000       1.121340        30.5132 
 441   0.0000       1.123362        30.5682 
 442   0.0000       1.127623        30.6842 
 443   0.0000       1.131118        30.7793 
 444   0.0000       1.133059        30.8321 
 445   0.0000       1.135742        30.9051 
 446   0.0000       1.141413        31.0594 
 447   0.0000       1.148783        31.2600 
 448   0.0000       1.149750        31.2863 
 449   0.0000       1.154244        31.4086 
 450   0.0000       1.156908        31.4811 
 451   0.0000       1.159234        31.5444 
 452   0.0000       1.162881        31.6436 
 453   0.0000       1.166643        31.7460 
 454   0.0000       1.168055        31.7844 
 455   0.0000       1.174161        31.9505 
 456   0.0000       1.176711        32.0199 
 457   0.0000       1.182616        32.1806 
 458   0.0000       1.185396        32.2563 
 459   0.0000       1.191589        32.4248 
 460   0.0000       1.197750        32.5924 
 461   0.0000       1.199353        32.6360 
 462   0.0000       1.202578        32.7238 
 463   0.0000       1.204615        32.7792 
 464   0.0000       1.207053        32.8456 
 465   0.0000       1.211631        32.9702 
 466   0.0000       1.214447        33.0468 
 467   0.0000       1.217826        33.1387 
 468   0.0000       1.223657        33.2974 
 469   0.0000       1.228072        33.4175 
 470   0.0000       1.231266        33.5045 
 471   0.0000       1.234617        33.5956 
 472   0.0000       1.236132        33.6369 
 473   0.0000       1.238714        33.7071 
 474   0.0000       1.241933        33.7947 
 475   0.0000       1.242976        33.8231 
 476   0.0000       1.249263        33.9942 
 477   0.0000       1.252404        34.0796 
 478   0.0000       1.254406        34.1341 
 479   0.0000       1.254946        34.1488 
 480   0.0000       1.259524        34.2734 
 481   0.0000       1.264203        34.4007 
 482   0.0000       1.271151        34.5898 
 483   0.0000       1.273552        34.6551 
 484   0.0000       1.274420        34.6787 
 485   0.0000       1.280059        34.8322 
 486   0.0000       1.283166        34.9167 
 487   0.0000       1.284546        34.9543 
 488   0.0000       1.289716        35.0949 
 489   0.0000       1.293921        35.2094 
 490   0.0000       1.296886        35.2901 
 491   0.0000       1.300623        35.3917 
 492   0.0000       1.302032        35.4301 
 493   0.0000       1.307476        35.5782 
 494   0.0000       1.310729        35.6667 
 495   0.0000       1.314485        35.7690 
 496   0.0000       1.318440        35.8766 
 497   0.0000       1.321647        35.9639 
 498   0.0000       1.324758        36.0485 
 499   0.0000       1.327302        36.1177 
 500   0.0000       1.329341        36.1732 
 501   0.0000       1.335742        36.3474 
 502   0.0000       1.341641        36.5079 
 503   0.0000       1.343102        36.5477 
 504   0.0000       1.345175        36.6041 
 505   0.0000       1.348849        36.7040 
 506   0.0000       1.351970        36.7890 
 507   0.0000       1.355126        36.8749 
 508   0.0000       1.358591        36.9692 
[...]
 76 H s       :     0.885619  s :     0.885619
      pz      :     0.022112  p :     0.079778
      px      :     0.043608
      py      :     0.014058
 77 H s       :     0.884690  s :     0.884690
      pz      :     0.047970  p :     0.079279
      px      :     0.015023
      py      :     0.016286
 78 H s       :     0.885081  s :     0.885081
      pz      :     0.025876  p :     0.079240
      px      :     0.020458
      py      :     0.032907
 79 H s       :     0.910471  s :     0.910471
      pz      :     0.021807  p :     0.086341
      px      :     0.021665
      py      :     0.042869
 80 H s       :     0.864733  s :     0.864733
      pz      :     0.039371  p :     0.084815
      px      :     0.030282
      py      :     0.015162
 81 H s       :     0.886980  s :     0.886980
      pz      :     0.037811  p :     0.084107
      px      :     0.016189
      py      :     0.030107
 82 H s       :     0.916177  s :     0.916177
      pz      :     0.021972  p :     0.086722
      px      :     0.031635
      py      :     0.033114
 83 H s       :     0.873730  s :     0.873730
      pz      :     0.039243  p :     0.084060
      px      :     0.015282
      py      :     0.029535
 84 H s       :     0.887006  s :     0.887006
      pz      :     0.035749  p :     0.083444
      px      :     0.031686
      py      :     0.016009
 85 H s       :     0.893120  s :     0.893120
      pz      :     0.022484  p :     0.079772
      px      :     0.014080
      py      :     0.043208
 86 H s       :     0.891192  s :     0.891192
      pz      :     0.024723  p :     0.078812
      px      :     0.032967
      py      :     0.021122
 87 H s       :     0.890006  s :     0.890006
      pz      :     0.048003  p :     0.078725
      px      :     0.015586
      py      :     0.015136
 88 H s       :     0.910661  s :     0.910661
      pz      :     0.021671  p :     0.087039
      px      :     0.042912
      py      :     0.022456
 89 H s       :     0.871194  s :     0.871194
      pz      :     0.037951  p :     0.083839
      px      :     0.030484
      py      :     0.015405


                      *****************************
                      * MAYER POPULATION ANALYSIS *
                      *****************************

  NA   - Mulliken gross atomic population
  ZA   - Total nuclear charge
  QA   - Mulliken gross atomic charge
  VA   - Mayer's total valence
  BVA  - Mayer's bonded valence
  FA   - Mayer's free valence

  ATOM       NA         ZA         QA         VA         BVA        FA
  0 C      5.7832     6.0000     0.2168     3.8475     3.8475     0.0000
  1 N      7.4565     7.0000    -0.4565     3.3334     3.3334    -0.0000
  2 C      6.0732     6.0000    -0.0732     3.9235     3.9235    -0.0000
  3 N      7.3391     7.0000    -0.3391     3.4588     3.4588    -0.0000
  4 C      6.0579     6.0000    -0.0579     4.0685     4.0685    -0.0000
  5 N      7.5645     7.0000    -0.5645     3.0965     3.0965     0.0000
  6 C      6.1160     6.0000    -0.1160     3.9715     3.9715    -0.0000
  7 N      7.3407     7.0000    -0.3407     3.4328     3.4328     0.0000
  8 C      5.7928     6.0000     0.2072     3.8419     3.8419    -0.0000
  9 N      7.5625     7.0000    -0.5625     3.0776     3.0776     0.0000
 10 C      5.8809     6.0000     0.1191     3.9099     3.9099     0.0000
 11 N      7.4381     7.0000    -0.4381     3.3802     3.3802     0.0000
 12 C      6.0713     6.0000    -0.0713     3.8769     3.8769    -0.0000
 13 N      7.4298     7.0000    -0.4298     3.4263     3.4263    -0.0000
 14 C      5.7841     6.0000     0.2159     3.7875     3.7875    -0.0000
 15 N      7.4413     7.0000    -0.4413     3.3704     3.3704     0.0000
 16 C      5.7684     6.0000     0.2316     3.7770     3.7770    -0.0000
 17 C      6.1274     6.0000    -0.1274     3.9771     3.9771    -0.0000
 18 C      6.1557     6.0000    -0.1557     3.7515     3.7515     0.0000
 19 C      5.7976     6.0000     0.2024     3.8663     3.8663     0.0000
 20 C      5.7857     6.0000     0.2143     3.8287     3.8287    -0.0000
 21 C      6.0850     6.0000    -0.0850     3.8714     3.8714    -0.0000
 22 C      6.0893     6.0000    -0.0893     3.9819     3.9819    -0.0000
 23 C      6.0401     6.0000    -0.0401     3.9924     3.9924    -0.0000
 24 C      5.8052     6.0000     0.1948     3.8212     3.8212     0.0000
 25 C      5.8857     6.0000     0.1143     3.8908     3.8908     0.0000
 26 C      6.0846     6.0000    -0.0846     3.9067     3.9067     0.0000
 27 C      5.7873     6.0000     0.2127     3.8614     3.8614    -0.0000
 28 C      6.0612     6.0000    -0.0612     3.9888     3.9888    -0.0000
 29 C      6.1821     6.0000    -0.1821     3.7466     3.7466    -0.0000
 30 C      5.7543     6.0000     0.2457     3.7987     3.7987    -0.0000
 31 C      5.7697     6.0000     0.2303     3.8178     3.8178    -0.0000
 32 C      6.0613     6.0000    -0.0613     3.9235     3.9235    -0.0000
 33 C      6.0613     6.0000    -0.0613     3.9719     3.9719     0.0000
 34 C      6.0502     6.0000    -0.0502     3.9840     3.9840     0.0000
 35 C      5.7734     6.0000     0.2266     3.8167     3.8167     0.0000
 36 C      5.8915     6.0000     0.1085     3.8754     3.8754    -0.0000
 37 C      6.0643     6.0000    -0.0643     3.9176     3.9176    -0.0000
 38 C      5.7679     6.0000     0.2321     3.8019     3.8019    -0.0000
 39 C      6.0586     6.0000    -0.0586     3.9833     3.9833     0.0000
 40 C      6.1810     6.0000    -0.1810     3.7272     3.7272    -0.0000
 41 C      5.7753     6.0000     0.2247     3.8866     3.8866    -0.0000
 42 C      5.8029     6.0000     0.1971     3.8260     3.8260    -0.0000
 43 C      6.0726     6.0000    -0.0726     3.8999     3.8999     0.0000
 44 C      6.0907     6.0000    -0.0907     3.9858     3.9858     0.0000
 45 C      6.0613     6.0000    -0.0613     3.9920     3.9920    -0.0000
 46 C      5.7896     6.0000     0.2104     3.8287     3.8287     0.0000
 47 C      5.8844     6.0000     0.1156     3.8936     3.8936     0.0000
 48 C      6.0674     6.0000    -0.0674     3.9091     3.9091     0.0000
 49 C      5.7620     6.0000     0.2380     3.8952     3.8952    -0.0000
 50 C      6.0465     6.0000    -0.0465     3.9904     3.9904     0.0000
 51 C      6.1948     6.0000    -0.1948     3.7368     3.7368    -0.0000
 52 H      0.9623     1.0000     0.0377     0.9858     0.9858     0.0000
 53 H      1.0176     1.0000    -0.0176     0.9988     0.9988    -0.0000
 54 H      0.9470     1.0000     0.0530     1.0225     1.0225     0.0000
 55 H      0.9641     1.0000     0.0359     0.9868     0.9868    -0.0000
 56 H      0.9513     1.0000     0.0487     0.9695     0.9695    -0.0000
 57 H      0.9517     1.0000     0.0483     0.9824     0.9824     0.0000
 58 H      0.9538     1.0000     0.0462     0.9849     0.9849    -0.0000
 59 H      1.0010     1.0000    -0.0010     1.0019     1.0019    -0.0000
 60 H      0.9513     1.0000     0.0487     1.0166     1.0166    -0.0000
 61 H      0.8291     1.0000     0.1709     1.0420     1.0420     0.0000
 62 H      0.8243     1.0000     0.1757     1.0436     1.0436     0.0000
 63 H      0.9440     1.0000     0.0560     0.9852     0.9852    -0.0000
 64 H      1.0062     1.0000    -0.0062     0.9955     0.9955    -0.0000
 65 H      0.9530     1.0000     0.0470     1.0099     1.0099    -0.0000
 66 H      0.9438     1.0000     0.0562     0.9854     0.9854    -0.0000
 67 H      0.9369     1.0000     0.0631     0.9720     0.9720     0.0000
 68 H      0.9425     1.0000     0.0575     0.9868     0.9868    -0.0000
 69 H      0.9431     1.0000     0.0569     0.9828     0.9828    -0.0000
 70 H      1.0293     1.0000    -0.0293     0.9935     0.9935     0.0000
 71 H      0.9544     1.0000     0.0456     1.0059     1.0059    -0.0000
 72 H      0.9291     1.0000     0.0709     0.9836     0.9836    -0.0000
 73 H      1.0080     1.0000    -0.0080     1.0008     1.0008    -0.0000
 74 H      0.9400     1.0000     0.0600     1.0101     1.0101    -0.0000
 75 H      0.9298     1.0000     0.0702     0.9839     0.9839    -0.0000
 76 H      0.9254     1.0000     0.0746     0.9721     0.9721    -0.0000
 77 H      0.9323     1.0000     0.0677     0.9855     0.9855    -0.0000
 78 H      0.9331     1.0000     0.0669     0.9854     0.9854    -0.0000
 79 H      1.0161     1.0000    -0.0161     0.9977     0.9977    -0.0000
 80 H      0.9393     1.0000     0.0607     1.0072     1.0072     0.0000
 81 H      0.9460     1.0000     0.0540     0.9857     0.9857     0.0000
 82 H      1.0252     1.0000    -0.0252     0.9933     0.9933     0.0000
 83 H      0.9588     1.0000     0.0412     1.0083     1.0083    -0.0000
 84 H      0.9465     1.0000     0.0535     0.9853     0.9853     0.0000
 85 H      0.9397     1.0000     0.0603     0.9716     0.9716     0.0000
 86 H      0.9448     1.0000     0.0552     0.9839     0.9839     0.0000
 87 H      0.9431     1.0000     0.0569     0.9856     0.9856     0.0000
 88 H      1.0147     1.0000    -0.0147     0.9967     0.9967     0.0000
 89 H      0.9532     1.0000     0.0468     1.0073     1.0073     0.0000

  Mayer bond orders larger than 0.100000
B(  0-C ,  1-N ) :   1.0973 B(  0-C , 17-C ) :   1.7117 B(  0-C , 52-H ) :   0.9645 
B(  1-N ,  8-C ) :   1.0839 B(  1-N , 10-C ) :   0.9784 B(  2-C , 12-C ) :   1.4976 
B(  2-C , 16-C ) :   1.3639 B(  2-C , 53-H ) :   0.9748 B(  3-N , 14-C ) :   1.2191 
B(  3-N , 16-C ) :   1.1877 B(  3-N , 61-H ) :   0.8993 B(  4-C ,  6-C ) :   1.2126 
B(  4-C , 17-C ) :   1.2107 B(  4-C , 18-C ) :   1.4567 B(  5-N , 19-C ) :   1.4554 
B(  5-N , 27-C ) :   1.3757 B(  6-C ,  8-C ) :   1.7167 B(  6-C , 54-H ) :   0.9377 
B(  7-N , 30-C ) :   1.1944 B(  7-N , 38-C ) :   1.1909 B(  7-N , 62-H ) :   0.8967 
B(  8-C , 55-H ) :   0.9661 B(  9-N , 41-C ) :   1.3925 B(  9-N , 49-C ) :   1.4276 
B( 10-C , 56-H ) :   0.9772 B( 10-C , 57-H ) :   0.9831 B( 10-C , 58-H ) :   0.9835 
B( 11-N , 20-C ) :   1.1320 B( 11-N , 24-C ) :   1.1088 B( 11-N , 25-C ) :   0.9594 
B( 12-C , 14-C ) :   1.3581 B( 12-C , 59-H ) :   0.9649 B( 13-N , 31-C ) :   1.1610 
B( 13-N , 35-C ) :   1.1574 B( 13-N , 36-C ) :   0.9421 B( 14-C , 18-C ) :   1.1226 
B( 15-N , 42-C ) :   1.1068 B( 15-N , 46-C ) :   1.1226 B( 15-N , 47-C ) :   0.9620 
B( 16-C , 51-C ) :   1.1686 B( 17-C , 60-H ) :   0.9377 B( 18-C , 19-C ) :   1.1222 
B( 19-C , 21-C ) :   1.2495 B( 20-C , 28-C ) :   1.6269 B( 20-C , 63-H ) :   0.9702 
B( 21-C , 26-C ) :   1.5977 B( 21-C , 64-H ) :   0.9638 B( 22-C , 23-C ) :   1.2907 
B( 22-C , 28-C ) :   1.2657 B( 22-C , 29-C ) :   1.2226 B( 23-C , 24-C ) :   1.6184 
B( 23-C , 65-H ) :   0.9704 B( 24-C , 66-H ) :   0.9695 B( 25-C , 67-H ) :   0.9760 
B( 25-C , 68-H ) :   0.9828 B( 25-C , 69-H ) :   0.9823 B( 26-C , 27-C ) :   1.2481 
B( 26-C , 70-H ) :   0.9689 B( 27-C , 29-C ) :   1.2095 B( 28-C , 71-H ) :   0.9719 
B( 29-C , 30-C ) :   1.2460 B( 30-C , 32-C ) :   1.2789 B( 31-C , 39-C ) :   1.5896 
B( 31-C , 72-H ) :   0.9681 B( 32-C , 37-C ) :   1.5803 B( 32-C , 73-H ) :   0.9785 
B( 33-C , 34-C ) :   1.3070 B( 33-C , 39-C ) :   1.3019 B( 33-C , 40-C ) :   1.1776 
B( 34-C , 35-C ) :   1.5865 B( 34-C , 74-H ) :   0.9696 B( 35-C , 75-H ) :   0.9682 
B( 36-C , 76-H ) :   0.9767 B( 36-C , 77-H ) :   0.9816 B( 36-C , 78-H ) :   0.9824 
B( 37-C , 38-C ) :   1.2840 B( 37-C , 79-H ) :   0.9766 B( 38-C , 40-C ) :   1.2343 
B( 39-C , 80-H ) :   0.9706 B( 40-C , 41-C ) :   1.2494 B( 41-C , 43-C ) :   1.1870 
B( 42-C , 50-C ) :   1.6351 B( 42-C , 81-H ) :   0.9697 B( 43-C , 48-C ) :   1.6654 
B( 43-C , 82-H ) :   0.9721 B( 44-C , 45-C ) :   1.2623 B( 44-C , 50-C ) :   1.2704 
B( 44-C , 51-C ) :   1.2642 B( 45-C , 46-C ) :   1.6363 B( 45-C , 83-H ) :   0.9718 
B( 46-C , 84-H ) :   0.9701 B( 47-C , 85-H ) :   0.9762 B( 47-C , 86-H ) :   0.9829 
B( 47-C , 87-H ) :   0.9825 B( 48-C , 49-C ) :   1.1905 B( 48-C , 88-H ) :   0.9749 
B( 49-C , 51-C ) :   1.2408 B( 50-C , 89-H ) :   0.9709 

-------
TIMINGS
-------

Total SCF time: 0 days 0 hours 44 min 21 sec 

Total time                  ....    2661.298 sec
Sum of individual times     ....    2658.263 sec  ( 99.9%)

Fock matrix formation       ....    2640.387 sec  ( 99.2%)
Diagonalization             ....       4.766 sec  (  0.2%)
Density matrix formation    ....       0.496 sec  (  0.0%)
Population analysis         ....       0.341 sec  (  0.0%)
Initial guess               ....       2.335 sec  (  0.1%)
Orbital Transformation      ....       0.000 sec  (  0.0%)
Orbital Orthonormalization  ....       0.000 sec  (  0.0%)
DIIS solution               ....       2.652 sec  (  0.1%)
SOSCF solution              ....       5.897 sec  (  0.2%)

Maximum memory used throughout the entire SCF-calculation: 304.2 MB


           ************************************************************
           *        Program running with 8 parallel MPI-processes     *
           *              working on a common directory               *
           ************************************************************

------------------------------------------------------------------------------
                                ORCA  MP2 
------------------------------------------------------------------------------

Freezing NCore=104 chemical core electrons

----------
MP2 ENERGY (disk based algorithm)
----------

Dimension of the basis                    ...  918
Memory devoted to MP2                     ... 7000 MB   
Data format for buffers                   ... DOUBLE
Compression type for matrix containers    ... UNCOMPRESSED

-------------------------------
PARTIAL EXCHANGE TRANSFORMATION
-------------------------------

Transformation type                        ... one-operator
Generation of integrals (i,mue|j,nue)      ... ON
Generation of integrals (mue,kappa|nue,tau)... OFF
Generation of integrals (i,mue|a,nue)      ... OFF
Dimension of the basis                     ...  918
Number of internal MOs                     ...  127 (  52- 178)
Pair cutoff                                ... 2.500e-12 Eh
Number of AO pairs in the trafo            ... 421821
Total Number of distinct AO pairs          ... 421821
Memory devoted for trafo                   ... 7000.0 MB 
Max. Number of MO pairs treated together   ... 1088      
Number Format for Storage                  ... Double (8 Byte)
Integral package used                      ... LIBINT

Starting integral evaluation:
    ... done with AO integral generation
Closing buffer AOK     (38.26 GB; CompressionRatio= 1.32)
Collecting buffer AOK 
Number of MO pairs included in the trafo   ... 8128
------------------------
SORTING OF (i,mue|j,nue)
------------------------

IBATCH = 1 of  1
Closing buffer KAO     (51.03 GB; CompressionRatio= 1.00)
Collecting buffer KAO 
N(AO-Batches) Done                         ... 174905995 
N(AO-Batches) Skipped                      ... 167343690 
N(IJ)-pairs Skipped                        ...         0 
TOTAL TIME for half transformation         ...  1161.538 sec
AO-integral generation                     ...   252.598 sec
Half transformation                        ...   467.804 sec
K-integral sorting                         ...   146.407 sec

Finished integral transformation - now doing MP2 part

OPERATOR COMBINATION   0   0: ij=( 52..178, 52..178)
Process 5:   Internal MO 132
Process 2:   Internal MO  84
Process 0:   Internal MO  54
Process 0:   Internal MO  57
Process 1:   Internal MO  69
Process 0:   Internal MO  60
Process 4:   Internal MO 117
Process 0:   Internal MO  63
Process 1:   Internal MO  72
Process 3:   Internal MO 102
Process 2:   Internal MO  87
Process 0:   Internal MO  66
Process 7:   Internal MO 165
Process 1:   Internal MO  75
Process 6:   Internal MO 150
Process 2:   Internal MO  90
Process 1:   Internal MO  78
Process 5:   Internal MO 135
Process 3:   Internal MO 105
Process 4:   Internal MO 120
Process 1:   Internal MO  81
Process 2:   Internal MO  93
Process 3:   Internal MO 108
Process 2:   Internal MO  96
Process 7:   Internal MO 168
Process 4:   Internal MO 123
Process 6:   Internal MO 153
Process 5:   Internal MO 138
Process 3:   Internal MO 111
Process 2:   Internal MO  99
Process 4:   Internal MO 126
Process 5:   Internal MO 141
Process 3:   Internal MO 114
Process 6:   Internal MO 156
Process 7:   Internal MO 171
Process 4:   Internal MO 129
Process 5:   Internal MO 144
Process 6:   Internal MO 159
Process 7:   Internal MO 174
Process 5:   Internal MO 147
Process 6:   Internal MO 162
Process 7:   Internal MO 177
-----------------------------------------------
 MP2 CORRELATION ENERGY   :     -7.283355484 Eh
-----------------------------------------------


-------
TIMINGS
-------
Total time                : 1318.132 sec
Integral trafo            : 1171.193 sec ( 88.9%)
K(i,j)                    :    9.443 sec (  0.7%)
T(i,j)                    :    0.141 sec (  0.0%)

---------------------------------------
MP2 TOTAL ENERGY:    -2130.861134351 Eh
---------------------------------------

Maximum memory used throughout the entire MP2-calculation: 6735.8 MB

-------------------------   --------------------
FINAL SINGLE POINT ENERGY     -2130.861134350600
-------------------------   --------------------


                            ***************************************
                            *     ORCA property calculations      *
                            ***************************************


  WARNING: The energy has been calculated at the MP2 level but the densities
           used in the property calculations are still SCF densities
           MP2 response densities have not been calculated 
           use %mp2 Density relaxed end
           or  %mp2 Density unrelaxed end

                                    ---------------------
                                    Active property flags
                                    ---------------------
   (+) Dipole Moment


------------------------------------------------------------------------------
                       ORCA ELECTRIC PROPERTIES CALCULATION
------------------------------------------------------------------------------

Dipole Moment Calculation                       ... on
Quadrupole Moment Calculation                   ... off
Polarizability Calculation                      ... off
GBWName                                         ... /scratch/chu_02/allen/tmpyp4_amber_gaff2/conf1/conf1/Conf340.orca.gbw
Electron density                                ... /scratch/chu_02/allen/tmpyp4_amber_gaff2/conf1/conf1/Conf340.orca.scfp
The origin for moment calculation is the CENTER OF MASS  = (-0.001386, -0.005021  0.001022)

-------------
DIPOLE MOMENT
-------------
                                X             Y             Z
Electronic contribution:      2.54467      -4.30757      -0.06806
Nuclear contribution   :     -0.01794       0.17622       0.07837
                        -----------------------------------------
Total Dipole Moment    :      2.52673      -4.13135       0.01031
                        -----------------------------------------
Magnitude (a.u.)       :      4.84278
Magnitude (Debye)      :     12.30938



--------------------
Rotational spectrum 
--------------------
 
Rotational constants in cm-1:     0.001503     0.001477     0.000760 
Rotational constants in MHz :    45.052930    44.274610    22.792709 

 Dipole components along the rotational axes: 
x,y,z [a.u.] :     3.308753    -3.536176     0.012865 
x,y,z [Debye]:     8.410183    -8.988246     0.032701 

 

Timings for individual modules:

Sum of individual times         ...     3984.822 sec (=  66.414 min)
GTO integral calculation        ...        2.916 sec (=   0.049 min)   0.1 %
SCF iterations                  ...     2662.528 sec (=  44.375 min)  66.8 %
MP2 module                      ...     1319.377 sec (=  21.990 min)  33.1 %
                             ****ORCA TERMINATED NORMALLY****
TOTAL RUN TIME: 0 days 1 hours 6 minutes 27 seconds 71 msec
# of primitive gaussian functions

