
                                 *****************
                                 * O   R   C   A *
                                 *****************

                                            #,                                       
                                            ###                                      
                                            ####                                     
                                            #####                                    
                                            ######                                   
                                           ########,                                 
                                     ,,################,,,,,                         
                               ,,#################################,,                 
                          ,,##########################################,,             
                       ,#########################################, ''#####,          
                    ,#############################################,,   '####,        
                  ,##################################################,,,,####,       
                ,###########''''           ''''###############################       
              ,#####''   ,,,,##########,,,,          '''####'''          '####       
            ,##' ,,,,###########################,,,                        '##       
           ' ,,###''''                  '''############,,,                           
         ,,##''                                '''############,,,,        ,,,,,,###''
      ,#''                                            '''#######################'''  
     '                                                          ''''####''''         
             ,#######,   #######,   ,#######,      ##                                
            ,#'     '#,  ##    ##  ,#'     '#,    #''#        ######   ,####,        
            ##       ##  ##   ,#'  ##            #'  '#       #        #'  '#        
            ##       ##  #######   ##           ,######,      #####,   #    #        
            '#,     ,#'  ##    ##  '#,     ,#' ,#      #,         ##   #,  ,#        
             '#######'   ##     ##  '#######'  #'      '#     #####' # '####'        



                  #######################################################
                  #                        -***-                        #
                  #          Department of theory and spectroscopy      #
                  #    Directorship and core code : Frank Neese         #
                  #        Max Planck Institute fuer Kohlenforschung    #
                  #                Kaiser Wilhelm Platz 1               #
                  #                 D-45470 Muelheim/Ruhr               #
                  #                      Germany                        #
                  #                                                     #
                  #                  All rights reserved                #
                  #                        -***-                        #
                  #######################################################


                         Program Version 5.0.4 -  RELEASE  -


 With contributions from (in alphabetic order):
   Daniel Aravena         : Magnetic Suceptibility
   Michael Atanasov       : Ab Initio Ligand Field Theory (pilot matlab implementation)
   Alexander A. Auer      : GIAO ZORA, VPT2 properties, NMR spectrum
   Ute Becker             : Parallelization
   Giovanni Bistoni       : ED, misc. LED, open-shell LED, HFLD
   Martin Brehm           : Molecular dynamics
   Dmytro Bykov           : SCF Hessian
   Vijay G. Chilkuri      : MRCI spin determinant printing, contributions to CSF-ICE
   Dipayan Datta          : RHF DLPNO-CCSD density
   Achintya Kumar Dutta   : EOM-CC, STEOM-CC
   Dmitry Ganyushin       : Spin-Orbit,Spin-Spin,Magnetic field MRCI
   Miquel Garcia          : C-PCM and meta-GGA Hessian, CC/C-PCM, Gaussian charge scheme
   Yang Guo               : DLPNO-NEVPT2, F12-NEVPT2, CIM, IAO-localization
   Andreas Hansen         : Spin unrestricted coupled pair/coupled cluster methods
   Benjamin Helmich-Paris : MC-RPA, TRAH-SCF, COSX integrals
   Lee Huntington         : MR-EOM, pCC
   Robert Izsak           : Overlap fitted RIJCOSX, COSX-SCS-MP3, EOM
   Marcus Kettner         : VPT2
   Christian Kollmar      : KDIIS, OOCD, Brueckner-CCSD(T), CCSD density, CASPT2, CASPT2-K
   Simone Kossmann        : Meta GGA functionals, TD-DFT gradient, OOMP2, MP2 Hessian
   Martin Krupicka        : Initial AUTO-CI
   Lucas Lang             : DCDCAS
   Marvin Lechner         : AUTO-CI (C++ implementation), FIC-MRCC
   Dagmar Lenk            : GEPOL surface, SMD
   Dimitrios Liakos       : Extrapolation schemes; Compound Job, initial MDCI parallelization
   Dimitrios Manganas     : Further ROCIS development; embedding schemes
   Dimitrios Pantazis     : SARC Basis sets
   Anastasios Papadopoulos: AUTO-CI, single reference methods and gradients
   Taras Petrenko         : DFT Hessian,TD-DFT gradient, ASA, ECA, R-Raman, ABS, FL, XAS/XES, NRVS
   Peter Pinski           : DLPNO-MP2, DLPNO-MP2 Gradient
   Christoph Reimann      : Effective Core Potentials
   Marius Retegan         : Local ZFS, SOC
   Christoph Riplinger    : Optimizer, TS searches, QM/MM, DLPNO-CCSD(T), (RO)-DLPNO pert. Triples
   Tobias Risthaus        : Range-separated hybrids, TD-DFT gradient, RPA, STAB
   Michael Roemelt        : Original ROCIS implementation
   Masaaki Saitow         : Open-shell DLPNO-CCSD energy and density
   Barbara Sandhoefer     : DKH picture change effects
   Avijit Sen             : IP-ROCIS
   Kantharuban Sivalingam : CASSCF convergence, NEVPT2, FIC-MRCI
   Bernardo de Souza      : ESD, SOC TD-DFT
   Georgi Stoychev        : AutoAux, RI-MP2 NMR, DLPNO-MP2 response
   Willem Van den Heuvel  : Paramagnetic NMR
   Boris Wezisla          : Elementary symmetry handling
   Frank Wennmohs         : Technical directorship


 We gratefully acknowledge several colleagues who have allowed us to
 interface, adapt or use parts of their codes:
   Stefan Grimme, W. Hujo, H. Kruse, P. Pracht,  : VdW corrections, initial TS optimization,
                  C. Bannwarth, S. Ehlert          DFT functionals, gCP, sTDA/sTD-DF
   Ed Valeev, F. Pavosevic, A. Kumar             : LibInt (2-el integral package), F12 methods
   Garnet Chan, S. Sharma, J. Yang, R. Olivares  : DMRG
   Ulf Ekstrom                                   : XCFun DFT Library
   Mihaly Kallay                                 : mrcc  (arbitrary order and MRCC methods)
   Jiri Pittner, Ondrej Demel                    : Mk-CCSD
   Frank Weinhold                                : gennbo (NPA and NBO analysis)
   Christopher J. Cramer and Donald G. Truhlar   : smd solvation model
   Lars Goerigk                                  : TD-DFT with DH, B97 family of functionals
   V. Asgeirsson, H. Jonsson                     : NEB implementation
   FAccTs GmbH                                   : IRC, NEB, NEB-TS, DLPNO-Multilevel, CI-OPT
                                                   MM, QMMM, 2- and 3-layer-ONIOM, Crystal-QMMM,
                                                   LR-CPCM, SF, NACMEs, symmetry and pop. for TD-DFT,
                                                   nearIR, NL-DFT gradient (VV10), updates on ESD,
                                                   ML-optimized integration grids
   S Lehtola, MJT Oliveira, MAL Marques          : LibXC Library
   Liviu Ungur et al                             : ANISO software


 Your calculation uses the libint2 library for the computation of 2-el integrals
 For citations please refer to: http://libint.valeyev.net

 Your ORCA version has been built with support for libXC version: 5.1.0
 For citations please refer to: https://tddft.org/programs/libxc/

 This ORCA versions uses:
   CBLAS   interface :  Fast vector & matrix operations
   LAPACKE interface :  Fast linear algebra routines
   SCALAPACK package :  Parallel linear algebra routines
   Shared memory     :  Shared parallel matrices
   BLAS/LAPACK       :  OpenBLAS 0.3.15  USE64BITINT DYNAMIC_ARCH NO_AFFINITY Sandybridge SINGLE_THREADED
        Core in use  :  Sandybridge
   Copyright (c) 2011-2014, The OpenBLAS Project


================================================================================

----- Orbital basis set information -----
Your calculation utilizes the basis: cc-pVDZ 
       H, B-Ne : Obtained from the ccRepo (grant-hill.group.shef.ac.uk/ccrepo) Feb. 2017
                 T. H. Dunning, Jr., J. Chem. Phys. 90, 1007 (1989)
            He : Obtained from the ccRepo (grant-hill.group.shef.ac.uk/ccrepo) Feb. 2017
                 D. E. Woon, T. H. Dunning, Jr., J. Chem. Phys. 100, 2975 (1994)
  Li-Be, Na-Mg : Obtained from the ccRepo (grant-hill.group.shef.ac.uk/ccrepo) Feb. 2017
                 B. P. Prascher, D. E. Woon, K. A. Peterson, T. H. Dunning, Jr., A. K. Wilson, Theor. Chem. Acc. 128, 69 (2011)
         Al-Ar : Obtained from the ccRepo (grant-hill.group.shef.ac.uk/ccrepo) Feb. 2017
                 D. E. Woon, T. H. Dunning, Jr., J. Chem. Phys. 98, 1358 (1993)
            Ca : Obtained from the Peterson Research Group Website (tyr0.chem.wsu.edu/~kipeters) Feb. 2017
                 J. Koput, K. A. Peterson, J. Phys. Chem. 106, 9595 (2002)
         Sc-Zn : Obtained from the ccRepo (grant-hill.group.shef.ac.uk/ccrepo) Feb. 2017
                 N. B. Balabanov, K. A. Peterson, J. Chem. Phys. 123, 064107 (2005)
                 N. B. Balabanov, K. A. Peterson, J. Chem. Phys. 125, 074110 (2006)
         Ga-Kr : Obtained from the ccRepo (grant-hill.group.shef.ac.uk/ccrepo) Feb. 2017
                 A. K. Wilson, D. E. Woon, K. A. Peterson, T. H. Dunning, Jr., J. Chem. Phys. 110, 7667 (1999)

================================================================================
                                        WARNINGS
                       Please study these warnings very carefully!
================================================================================


WARNING: No MP2 level density has been requested!
         To caclulate MP2 level properties use
         %mp2 Density relaxed end
         or
         %mp2 Density unrelaxed end

WARNING: Post HF methods need fully converged wavefunctions
  ===> : Setting SCFConvForced true
         You can overwrite this default with %scf ConvForced false 


INFO   : the flag for use of the SHARK integral package has been found!

================================================================================
                                       INPUT FILE
================================================================================
NAME = /scratch/allen/tmpyp4_amber_gaff2/2.Mdgx/conf11/conf11/Conf170.orca
|  1> ! PAL2
|  2> ! mp2 cc-pvdz TightSCF  NoKeepInts
|  3> 
|  4> %scf
|  5>   MaxCore 2000
|  6> end
|  7> %mp2
|  8>   MaxCore 2000
|  9> end
| 10> * xyz 0 1
| 11>    C       -4.93600         5.20000        -0.16300
| 12>    C        1.47400         4.04100         0.05700
| 13>    C       -2.80200         4.09300         0.04900
| 14>    C       -2.23200         5.35100         0.30000
| 15>    C       -3.02500         6.48100         0.31500
| 16>    C       -5.18400         7.62100         0.14200
| 17>    C        0.13200         4.30700         0.06100
| 18>    C       -0.56900         3.05600         0.04700
| 19>    C        1.64900         2.61800         0.02300
| 20>    C       -4.18500         4.04000        -0.18200
| 21>    N       -4.35600         6.39600         0.08200
| 22>    N        0.38800         2.06700         0.02500
| 23>    N       -2.01000         0.39500        -0.07500
| 24>    N       -0.38800        -2.07400        -0.02700
| 25>    N        2.01000        -0.40100         0.06500
| 26>    C       -1.96000         2.86100         0.02400
| 27>    C       -2.62300         1.61500        -0.01800
| 28>    C       -5.57300        -4.32900         1.06600
| 29>    C       -4.07300         1.47100         0.05600
| 30>    C       -4.10600        -2.75600        -0.02600
| 31>    C       -4.99500        -2.75700        -1.11100
| 32>    C       -6.13200        -3.54200        -1.07600
| 33>    C       -7.65100        -5.11300         0.04000
| 34>    C       -4.32400         0.14100         0.03700
| 35>    C       -3.02500        -0.52000        -0.04800
| 36>    C       -4.42200        -3.56600         1.07500
| 37>    N       -6.40700        -4.31300         0.00100
| 38>    C       -2.86700        -1.92200        -0.04000
| 39>    C       -1.65000        -2.62400        -0.02700
| 40>    C        3.56800        -6.14200        -1.04000
| 41>    C       -1.47600        -4.04900        -0.03400
| 42>    C        2.80300        -4.09900        -0.00800
| 43>    C        3.65700        -4.38400         1.06900
| 44>    C        4.42700        -5.53000         1.05900
| 45>    C        5.24500        -7.58800         0.01400
| 46>    C       -0.13400        -4.31500        -0.02200
| 47>    C        0.56800        -3.06400        -0.02700
| 48>    C        2.77500        -5.01200        -1.07400
| 49>    N        4.37600        -6.39100         0.01700
| 50>    C        1.95900        -2.86900        -0.00900
| 51>    C        2.62100        -1.62200         0.00900
| 52>    C        5.54300         4.33900        -1.13000
| 53>    C        4.07000        -1.47900        -0.09400
| 54>    C        4.10400         2.75100        -0.02100
| 55>    C        5.02700         2.72900         1.03600
| 56>    C        6.16600         3.50900         0.97800
| 57>    C        7.61900         5.15300        -0.11500
| 58>    C        4.32100        -0.14800        -0.09200
| 59>    C        3.02500         0.51400         0.01500
| 60>    C        4.38700         3.58200        -1.11500
| 61>    C        2.86600         1.91600         0.01300
| 62>    N        6.41300         4.29600        -0.09500
| 63>    H       -6.00300         5.20800        -0.34700
| 64>    H        2.27400         4.76600         0.08100
| 65>    H       -1.17200         5.45500         0.49500
| 66>    H       -2.63300         7.47000         0.51200
| 67>    H       -5.48200         7.79900         1.17800
| 68>    H       -4.59600         8.46100        -0.22800
| 69>    H       -6.06600         7.47900        -0.48200
| 70>    H       -0.33200         5.28200         0.06900
| 71>    H       -4.68200         3.10100        -0.39500
| 72>    H        0.18200         1.07200         0.00500
| 73>    H       -0.18300        -1.08000        -0.02100
| 74>    H       -5.86400        -4.96200         1.89500
| 75>    H       -4.79400         2.27200         0.13900
| 76>    H       -4.80000        -2.16000        -1.99400
| 77>    H       -6.84100        -3.58200        -1.89300
| 78>    H       -8.42800        -4.53600         0.54600
| 79>    H       -7.95600        -5.33700        -0.98100
| 80>    H       -7.45600        -6.03700         0.58400
| 81>    H       -5.28700        -0.34400         0.10000
| 82>    H       -3.78000        -3.60100         1.94700
| 83>    H        3.58700        -6.86800        -1.84300
| 84>    H       -2.27600        -4.77400        -0.05000
| 85>    H        3.71400        -3.72400         1.92600
| 86>    H        5.09200        -5.79500         1.87100
| 87>    H        6.20500        -7.32900        -0.43900
| 88>    H        5.39300        -7.91700         1.04200
| 89>    H        4.75900        -8.37300        -0.56400
| 90>    H        0.32900        -5.29000        -0.00800
| 91>    H        2.14600        -4.84200        -1.94000
| 92>    H        5.80800         4.98600        -1.95600
| 93>    H        4.78800        -2.28100        -0.18500
| 94>    H        4.86000         2.11400         1.91200
| 95>    H        6.90100         3.53100         1.77200
| 96>    H        7.38300         6.10900         0.35600
| 97>    H        8.41400         4.65200         0.43500
| 98>    H        7.92100         5.31000        -1.15000
| 99>    H        5.28300         0.33600        -0.17900
|100>    H        3.72000         3.63200        -1.96700
|101> *
|102> 
|103>                          ****END OF INPUT****
================================================================================

                       ****************************
                       * Single Point Calculation *
                       ****************************

---------------------------------
CARTESIAN COORDINATES (ANGSTROEM)
---------------------------------
  C     -4.936000    5.200000   -0.163000
  C      1.474000    4.041000    0.057000
  C     -2.802000    4.093000    0.049000
  C     -2.232000    5.351000    0.300000
  C     -3.025000    6.481000    0.315000
  C     -5.184000    7.621000    0.142000
  C      0.132000    4.307000    0.061000
  C     -0.569000    3.056000    0.047000
  C      1.649000    2.618000    0.023000
  C     -4.185000    4.040000   -0.182000
  N     -4.356000    6.396000    0.082000
  N      0.388000    2.067000    0.025000
  N     -2.010000    0.395000   -0.075000
  N     -0.388000   -2.074000   -0.027000
  N      2.010000   -0.401000    0.065000
  C     -1.960000    2.861000    0.024000
  C     -2.623000    1.615000   -0.018000
  C     -5.573000   -4.329000    1.066000
  C     -4.073000    1.471000    0.056000
  C     -4.106000   -2.756000   -0.026000
  C     -4.995000   -2.757000   -1.111000
  C     -6.132000   -3.542000   -1.076000
  C     -7.651000   -5.113000    0.040000
  C     -4.324000    0.141000    0.037000
  C     -3.025000   -0.520000   -0.048000
  C     -4.422000   -3.566000    1.075000
  N     -6.407000   -4.313000    0.001000
  C     -2.867000   -1.922000   -0.040000
  C     -1.650000   -2.624000   -0.027000
  C      3.568000   -6.142000   -1.040000
  C     -1.476000   -4.049000   -0.034000
  C      2.803000   -4.099000   -0.008000
  C      3.657000   -4.384000    1.069000
  C      4.427000   -5.530000    1.059000
  C      5.245000   -7.588000    0.014000
  C     -0.134000   -4.315000   -0.022000
  C      0.568000   -3.064000   -0.027000
  C      2.775000   -5.012000   -1.074000
  N      4.376000   -6.391000    0.017000
  C      1.959000   -2.869000   -0.009000
  C      2.621000   -1.622000    0.009000
  C      5.543000    4.339000   -1.130000
  C      4.070000   -1.479000   -0.094000
  C      4.104000    2.751000   -0.021000
  C      5.027000    2.729000    1.036000
  C      6.166000    3.509000    0.978000
  C      7.619000    5.153000   -0.115000
  C      4.321000   -0.148000   -0.092000
  C      3.025000    0.514000    0.015000
  C      4.387000    3.582000   -1.115000
  C      2.866000    1.916000    0.013000
  N      6.413000    4.296000   -0.095000
  H     -6.003000    5.208000   -0.347000
  H      2.274000    4.766000    0.081000
  H     -1.172000    5.455000    0.495000
  H     -2.633000    7.470000    0.512000
  H     -5.482000    7.799000    1.178000
  H     -4.596000    8.461000   -0.228000
  H     -6.066000    7.479000   -0.482000
  H     -0.332000    5.282000    0.069000
  H     -4.682000    3.101000   -0.395000
  H      0.182000    1.072000    0.005000
  H     -0.183000   -1.080000   -0.021000
  H     -5.864000   -4.962000    1.895000
  H     -4.794000    2.272000    0.139000
  H     -4.800000   -2.160000   -1.994000
  H     -6.841000   -3.582000   -1.893000
  H     -8.428000   -4.536000    0.546000
  H     -7.956000   -5.337000   -0.981000
  H     -7.456000   -6.037000    0.584000
  H     -5.287000   -0.344000    0.100000
  H     -3.780000   -3.601000    1.947000
  H      3.587000   -6.868000   -1.843000
  H     -2.276000   -4.774000   -0.050000
  H      3.714000   -3.724000    1.926000
  H      5.092000   -5.795000    1.871000
  H      6.205000   -7.329000   -0.439000
  H      5.393000   -7.917000    1.042000
  H      4.759000   -8.373000   -0.564000
  H      0.329000   -5.290000   -0.008000
  H      2.146000   -4.842000   -1.940000
  H      5.808000    4.986000   -1.956000
  H      4.788000   -2.281000   -0.185000
  H      4.860000    2.114000    1.912000
  H      6.901000    3.531000    1.772000
  H      7.383000    6.109000    0.356000
  H      8.414000    4.652000    0.435000
  H      7.921000    5.310000   -1.150000
  H      5.283000    0.336000   -0.179000
  H      3.720000    3.632000   -1.967000

----------------------------
CARTESIAN COORDINATES (A.U.)
----------------------------
  NO LB      ZA    FRAG     MASS         X           Y           Z
   0 C     6.0000    0    12.011   -9.327688    9.826576   -0.308025
   1 C     6.0000    0    12.011    2.785456    7.636383    0.107714
   2 C     6.0000    0    12.011   -5.295013    7.734649    0.092597
   3 C     6.0000    0    12.011   -4.217869   10.111925    0.566918
   4 C     6.0000    0    12.011   -5.716422   12.247315    0.595264
   5 C     6.0000    0    12.011   -9.796340   14.401603    0.268341
   6 C     6.0000    0    12.011    0.249444    8.139050    0.115273
   7 C     6.0000    0    12.011   -1.075254    5.775003    0.088817
   8 C     6.0000    0    12.011    3.116158    4.947303    0.043464
   9 C     6.0000    0    12.011   -7.908504    7.634494   -0.343930
  10 N     7.0000    0    14.007   -8.231647   12.086688    0.154958
  11 N     7.0000    0    14.007    0.733214    3.906064    0.047243
  12 N     7.0000    0    14.007   -3.798350    0.746442   -0.141729
  13 N     7.0000    0    14.007   -0.733214   -3.919292   -0.051023
  14 N     7.0000    0    14.007    3.798350   -0.757780    0.122832
  15 C     6.0000    0    12.011   -3.703863    5.406506    0.045353
  16 C     6.0000    0    12.011   -4.956752    3.051908   -0.034015
  17 C     6.0000    0    12.011  -10.531444   -8.180624    2.014448
  18 C     6.0000    0    12.011   -7.696855    2.779787    0.105825
  19 C     6.0000    0    12.011   -7.759216   -5.208085   -0.049133
  20 C     6.0000    0    12.011   -9.439182   -5.209975   -2.099486
  21 C     6.0000    0    12.011  -11.587801   -6.693410   -2.033345
  22 C     6.0000    0    12.011  -14.458295   -9.662170    0.075589
  23 C     6.0000    0    12.011   -8.171176    0.266451    0.069920
  24 C     6.0000    0    12.011   -5.716422   -0.982658   -0.090707
  25 C     6.0000    0    12.011   -8.356369   -6.738763    2.031456
  26 N     7.0000    0    14.007  -12.107475   -8.150389    0.001890
  27 C     6.0000    0    12.011   -5.417845   -3.632054   -0.075589
  28 C     6.0000    0    12.011   -3.118048   -4.958641   -0.051023
  29 C     6.0000    0    12.011    6.742543  -11.606698   -1.965315
  30 C     6.0000    0    12.011   -2.789236   -7.651501   -0.064251
  31 C     6.0000    0    12.011    5.296902   -7.745987   -0.015118
  32 C     6.0000    0    12.011    6.910728   -8.284559    2.020117
  33 C     6.0000    0    12.011    8.365818  -10.450186    2.001220
  34 C     6.0000    0    12.011    9.911614  -14.339242    0.026456
  35 C     6.0000    0    12.011   -0.253223   -8.154168   -0.041574
  36 C     6.0000    0    12.011    1.073364   -5.790121   -0.051023
  37 C     6.0000    0    12.011    5.243990   -9.471307   -2.029566
  38 N     7.0000    0    14.007    8.269442  -12.077240    0.032125
  39 C     6.0000    0    12.011    3.701973   -5.421624   -0.017008
  40 C     6.0000    0    12.011    4.952972   -3.065136    0.017008
  41 C     6.0000    0    12.011   10.474752    8.199522   -2.135391
  42 C     6.0000    0    12.011    7.691185   -2.794905   -0.177634
  43 C     6.0000    0    12.011    7.755436    5.198637   -0.039684
  44 C     6.0000    0    12.011    9.499653    5.157063    1.957756
  45 C     6.0000    0    12.011   11.652051    6.631049    1.848152
  46 C     6.0000    0    12.011   14.397823    9.737759   -0.217319
  47 C     6.0000    0    12.011    8.165507   -0.279679   -0.173855
  48 C     6.0000    0    12.011    5.716422    0.971319    0.028346
  49 C     6.0000    0    12.011    8.290229    6.768999   -2.107045
  50 C     6.0000    0    12.011    5.415955    3.620715    0.024566
  51 N     7.0000    0    14.007   12.118814    8.118263   -0.179524
  52 H     1.0000    0     1.008  -11.344026    9.841694   -0.655735
  53 H     1.0000    0     1.008    4.297237    9.006435    0.153068
  54 H     1.0000    0     1.008   -2.214759   10.308456    0.935414
  55 H     1.0000    0     1.008   -4.975649   14.116254    0.967540
  56 H     1.0000    0     1.008  -10.359479   14.737974    2.226097
  57 H     1.0000    0     1.008   -8.685181   15.988973   -0.430858
  58 H     1.0000    0     1.008  -11.463079   14.133262   -0.910848
  59 H     1.0000    0     1.008   -0.627389    9.981533    0.130391
  60 H     1.0000    0     1.008   -8.847698    5.860041   -0.746442
  61 H     1.0000    0     1.008    0.343930    2.025786    0.009449
  62 H     1.0000    0     1.008   -0.345820   -2.040904   -0.039684
  63 H     1.0000    0     1.008  -11.081354   -9.376821    3.581031
  64 H     1.0000    0     1.008   -9.059347    4.293458    0.262672
  65 H     1.0000    0     1.008   -9.070685   -4.081808   -3.768114
  66 H     1.0000    0     1.008  -12.927616   -6.768999   -3.577252
  67 H     1.0000    0     1.008  -15.926612   -8.571798    1.031790
  68 H     1.0000    0     1.008  -15.034661  -10.085468   -1.853821
  69 H     1.0000    0     1.008  -14.089798  -11.408277    1.103600
  70 H     1.0000    0     1.008   -9.990982   -0.650066    0.188973
  71 H     1.0000    0     1.008   -7.143165   -6.804904    3.679297
  72 H     1.0000    0     1.008    6.778448  -12.978639   -3.482765
  73 H     1.0000    0     1.008   -4.301017   -9.021553   -0.094486
  74 H     1.0000    0     1.008    7.018443   -7.037340    3.639613
  75 H     1.0000    0     1.008    9.622485  -10.950963    3.535678
  76 H     1.0000    0     1.008   11.725751  -13.849803   -0.829590
  77 H     1.0000    0     1.008   10.191293  -14.960962    1.969095
  78 H     1.0000    0     1.008    8.993207  -15.822677   -1.065806
  79 H     1.0000    0     1.008    0.621720   -9.996651   -0.015118
  80 H     1.0000    0     1.008    4.055352   -9.150054   -3.666069
  81 H     1.0000    0     1.008   10.975529    9.422175   -3.696304
  82 H     1.0000    0     1.008    9.048009   -4.310465   -0.349599
  83 H     1.0000    0     1.008    9.184069    3.994881    3.613156
  84 H     1.0000    0     1.008   13.041000    6.672623    3.348595
  85 H     1.0000    0     1.008   13.951848   11.544337    0.672743
  86 H     1.0000    0     1.008   15.900156    8.791006    0.822031
  87 H     1.0000    0     1.008   14.968521   10.034446   -2.173185
  88 H     1.0000    0     1.008    9.983423    0.634948   -0.338261
  89 H     1.0000    0     1.008    7.029781    6.863485   -3.717091

--------------------------------
INTERNAL COORDINATES (ANGSTROEM)
--------------------------------
 C      0   0   0     0.000000000000     0.00000000     0.00000000
 C      1   0   0     6.517651494212     0.00000000     0.00000000
 C      1   2   0     2.413368807290    17.41372508     0.00000000
 C      3   1   2     1.403732524379    87.91903584    20.20216457
 C      4   3   1     1.380570172067   120.14756842     0.18211818
 C      5   4   3     2.447613123024   152.51440594     1.54218275
 C      2   1   3     1.368114030335     2.31165275   256.11208261
 C      7   2   4     1.434084376876   108.05010202   201.66833250
 C      2   1   3     1.434123425651   107.19685165    12.74230332
 C      1   2   7     1.382013748123    46.90355045   242.50064195
 N      1   2   7     1.351606821528    74.28827863    55.08567852
 N      9   2   1     1.376127174356   106.58526707   357.06207816
 N     12   9   2     2.925062050624   168.53581413   171.12065651
 N     13  12   9     2.954513327098    91.55032014    11.12112580
 N     14  13  12     2.925371258490    88.43092389   359.84326247
 C      8   7   2     1.404790019896   127.24786865   181.11170171
 C     13  12   9     1.366535034311    81.72106996   188.00453233
 C     14  13  12     5.758810554272    80.56209567   166.76250791
 C     17  13  12     1.459010623676   111.08861209   183.82872609
 C     18  14  13     2.412235892279    27.27532823    36.33507194
 C     20  18  14     1.402692767501    87.95206320   148.94598259
 C     21  20  18     1.382106725257   120.14573887   359.70382047
 C     18  14  13     2.446510985056   144.15733107    82.80075377
 C     19  17  13     1.353610726908   106.29293361   359.75308708
 C     13  12   9     1.366813447402   172.21332906    33.46711076
 C     18  14  13     1.380960173213    15.08449437   309.23336894
 N     22  21  20     1.352773077792   120.73759875     0.27865223
 C     25  13  17     1.410897586645   125.60330303   182.37774668
 C     14  13  12     1.376642291955    80.24689249   177.85461986
 C     14  13  12     5.764089607215   164.51507311   312.20821879
 C     29  14  13     1.435600919476   106.58649366   178.76395472
 C     30  14  13     2.413316804732    27.10625047    82.12560436
 C     32  30  14     1.403734305344    87.90059683   149.76154742
 C     33  32  30     1.380694028378   120.14881443   359.74174632
 C     34  33  32     2.448777858443   152.49203239     2.45173620
 C     31  29  14     1.368160809262   108.16950133     0.70383075
 C     14  13  12     1.376239804685   169.26375223   353.09862627
 C     30  14  13     1.380907310430    14.68948582   353.70041132
 N     34  33  32     1.352658863128   120.85575621     0.19603406
 C     37  14  29     1.404717053360   126.01551127   180.90772073
 C     15  14  13     1.366491126938    81.61824056   183.09049352
 C      2   1   3     4.249062720177   156.91220668   138.34556154
 C     41  15  14     1.459677704153   111.05201287   175.08990246
 C     42   2   1     2.412953791518    41.78584867   207.41980027
 C     44  42   2     1.403446472082    87.95153797   233.97558675
 C     45  44  42     1.381696421071   120.11137308     0.19721020
 C     42   2   1     2.450019795838   135.97209175   117.73464937
 C     43  41  15     1.354461516618   106.26758155     0.30894352
 C     15  14  13     1.367461151185   171.87382904   332.35056460
 C     42   2   1     1.381886391857    32.59078432   256.27507946
 C      9   2   1     1.404988612053   126.98745415   178.06641569
 N     42   2   1     1.352765315936   113.57249190   145.47123856
 H      1   2   7     1.082778370674   167.47500836   206.19360128
 H      2   1   3     1.079907866440   127.58480316   190.83860873
 H      4   3   1     1.082793147374   121.05031741   179.52255277
 H      5   4   3     1.081939924395   122.82385626   179.46156080
 H      6   5   4     1.092604228438   104.44445376   100.18425674
 H      6   5   4     1.090066053044    84.66912119   209.58304816
 H      6   5   4     1.089708217827   133.92623058   322.40913445
 H     55   4   3     0.957603780277   139.57519386    59.98352962
 H     10   1   2     1.083558489423   118.73964958   189.12582516
 H     12   9   2     1.016297692608   125.29023241   180.00180175
 H     14  13  12     1.014936943854    44.97226959   359.42596618
 H     18  14  13     1.082871645210   128.03556573   234.20482432
 H     61  10   1     0.992441937848   132.05671952   241.53298939
 H     21  20  18     1.083569563987   121.05669627   180.67006309
 H     22  21  20     1.082483256222   122.73097286   180.59748951
 H     23  18  14     1.092105306278   103.92715769   234.93429879
 H     23  18  14     1.088871893291   134.19244188    12.25587044
 H     23  18  14     1.089833473518    84.85857450   125.45241208
 H     24  19  17     1.080075460327   127.28078426   178.44613241
 H     26  18  14     1.083408048706   118.76995697   244.94906660
 H     30  14  13     1.082703098730   127.99711412   279.66882698
 H     31  29  14     1.079759695488   125.22293469   180.92530585
 H     33  32  30     1.083188810873   121.01964473   180.74284758
 H     34  33  32     1.082494341787   122.70821597   180.59516895
 H     35  34  33     1.092652735319   105.73575241    97.19771933
 H     35  34  33     1.089462711615    84.05943581   206.43036958
 H     35  34  33     1.089268102902   133.08365142   318.50306270
 H     36  31  29     1.079439669458   126.61599965   178.98859863
 H     38  30  73     1.083742127999   118.77264435   359.90091293
 H     42   2   1     1.082178358682   119.31790784     2.10276901
 H     43  41  15     1.080281907652   126.36969097   182.06329380
 H     45  44  42     1.083277434455   121.10105945   179.58025624
 H     46  45  44     1.082194529648   122.72144639   179.46906377
 H     47  42   2     1.091546151109   106.65128841   315.16475048
 H     47  42   2     1.088818625851   132.46019523    94.52397119
 H     47  42   2     1.089531091801    83.63838232   206.04504406
 H     48  43  41     1.080402239909   127.23657387   181.62955349
 H     50  42   2     1.083186502870   118.77001737    94.71359229

---------------------------
INTERNAL COORDINATES (A.U.)
---------------------------
 C      0   0   0     0.000000000000     0.00000000     0.00000000
 C      1   0   0    12.316576360403     0.00000000     0.00000000
 C      1   2   0     4.560606105926    17.41372508     0.00000000
 C      3   1   2     2.652670036355    87.91903584    20.20216457
 C      4   3   1     2.608899533866   120.14756842     0.18211818
 C      5   4   3     4.625318484307   152.51440594     1.54218275
 C      2   1   3     2.585360837309     2.31165275   256.11208261
 C      7   2   4     2.710026725231   108.05010202   201.66833250
 C      2   1   3     2.710100516721   107.19685165    12.74230332
 C      1   2   7     2.611627497266    46.90355045   242.50064195
 N      1   2   7     2.554166733427    74.28827863    55.08567852
 N      9   2   1     2.600503484979   106.58526707   357.06207816
 N     12   9   2     5.527566200405   168.53581413   171.12065651
 N     13  12   9     5.583221047236    91.55032014    11.12112580
 N     14  13  12     5.528150518591    88.43092389   359.84326247
 C      8   7   2     2.654668413270   127.24786865   181.11170171
 C     13  12   9     2.582376967257    81.72106996   188.00453233
 C     14  13  12    10.882574804710    80.56209567   166.76250791
 C     17  13  12     2.757130505230   111.08861209   183.82872609
 C     18  14  13     4.558465206823    27.27532823    36.33507194
 C     20  18  14     2.650705180609    87.95206320   148.94598259
 C     21  20  18     2.611803198586   120.14573887   359.70382047
 C     18  14  13     4.623235745386   144.15733107    82.80075377
 C     19  17  13     2.557953565794   106.29293361   359.75308708
 C     13  12   9     2.582903091751   172.21332906    33.46711076
 C     18  14  13     2.609636529225    15.08449437   309.23336894
 N     22  21  20     2.556370638369   120.73759875     0.27865223
 C     25  13  17     2.666210041769   125.60330303   182.37774668
 C     14  13  12     2.601476916169    80.24689249   177.85461986
 C     14  13  12    10.892550769017   164.51507311   312.20821879
 C     29  14  13     2.712892575415   106.58649366   178.76395472
 C     30  14  13     4.560507835333    27.10625047    82.12560436
 C     32  30  14     2.652673401891    87.90059683   149.76154742
 C     33  32  30     2.609133588376   120.14881443   359.74174632
 C     34  33  32     4.627519515267   152.49203239     2.45173620
 C     31  29  14     2.585449236669   108.16950133     0.70383075
 C     14  13  12     2.600716325456   169.26375223   353.09862627
 C     30  14  13     2.609536633043    14.68948582   353.70041132
 N     34  33  32     2.556154803934   120.85575621     0.19603406
 C     37  14  29     2.654530526499   126.01551127   180.90772073
 C     15  14  13     2.582293994346    81.61824056   183.09049352
 C      2   1   3     8.029564866989   156.91220668   138.34556154
 C     41  15  14     2.758391104639   111.05201287   175.08990246
 C     42   2   1     4.559821839776    41.78584867   207.41980027
 C     44  42   2     2.652129475853    87.95153797   233.97558675
 C     45  44  42     2.611027836043   120.11137308     0.19721020
 C     42   2   1     4.629866436820   135.97209175   117.73464937
 C     43  41  15     2.559561325344   106.26758155     0.30894352
 C     15  14  13     2.584127074516   171.87382904   332.35056460
 C     42   2   1     2.611386828803    32.59078432   256.27507946
 C      9   2   1     2.655043698059   126.98745415   178.06641569
 N     42   2   1     2.556355970587   113.57249190   145.47123856
 H      1   2   7     2.046154584308   167.47500836   206.19360128
 H      2   1   3     2.040730117440   127.58480316   190.83860873
 H      4   3   1     2.046182508223   121.05031741   179.52255277
 H      5   4   3     2.044570150462   122.82385626   179.46156080
 H      6   5   4     2.064722764512   104.44445376   100.18425674
 H      6   5   4     2.059926308139    84.66912119   209.58304816
 H      6   5   4     2.059250097577   133.92623058   322.40913445
 H     55   4   3     1.809608889530   139.57519386    59.98352962
 H     10   1   2     2.047628795094   118.73964958   189.12582516
 H     12   9   2     1.920524309565   125.29023241   180.00180175
 H     14  13  12     1.917952867083    44.97226959   359.42596618
 H     18  14  13     2.046330847636   128.03556573   234.20482432
 H     61  10   1     1.875443466351   132.05671952   241.53298939
 H     21  20  18     2.047649722989   121.05669627   180.67006309
 H     22  21  20     2.045596898814   122.73097286   180.59748951
 H     23  18  14     2.063779938267   103.92715769   234.93429879
 H     23  18  14     2.057669673245   134.19244188    12.25587044
 H     23  18  14     2.059486796529    84.85857450   125.45241208
 H     24  19  17     2.041046823986   127.28078426   178.44613241
 H     26  18  14     2.047344503340   118.76995697   244.94906660
 H     30  14  13     2.046012340948   127.99711412   279.66882698
 H     31  29  14     2.040450114918   125.22293469   180.92530585
 H     33  32  30     2.046930203877   121.01964473   180.74284758
 H     34  33  32     2.045617847496   122.70821597   180.59516895
 H     35  34  33     2.064814429233   105.73575241    97.19771933
 H     35  34  33     2.058786158072    84.05943581   206.43036958
 H     35  34  33     2.058418400901   133.08365142   318.50306270
 H     36  31  29     2.039845353366   126.61599965   178.98859863
 H     38  30  73     2.047975821711   118.77264435   359.90091293
 H     42   2   1     2.045020725966   119.31790784     2.10276901
 H     43  41  15     2.041436952892   126.36969097   182.06329380
 H     45  44  42     2.047097678177   121.10105945   179.58025624
 H     46  45  44     2.045051284662   122.72144639   179.46906377
 H     47  42   2     2.062723288131   106.65128841   315.16475048
 H     47  42   2     2.057569012371   132.46019523    94.52397119
 H     47  42   2     2.058915377895    83.63838232   206.04504406
 H     48  43  41     2.041664347903   127.23657387   181.62955349
 H     50  42   2     2.046925842384   118.77001737    94.71359229

---------------------
BASIS SET INFORMATION
---------------------
There are 3 groups of distinct atoms

 Group   1 Type C   : 17s4p1d contracted to 3s2p1d pattern {881/31/1}
 Group   2 Type N   : 17s4p1d contracted to 3s2p1d pattern {881/31/1}
 Group   3 Type H   : 4s1p contracted to 2s1p pattern {31/1}

Atom   0C    basis set group =>   1
Atom   1N    basis set group =>   2
Atom   2C    basis set group =>   1
Atom   3N    basis set group =>   2
Atom   4C    basis set group =>   1
Atom   5N    basis set group =>   2
Atom   6C    basis set group =>   1
Atom   7N    basis set group =>   2
Atom   8C    basis set group =>   1
Atom   9N    basis set group =>   2
Atom  10C    basis set group =>   1
Atom  11N    basis set group =>   2
Atom  12C    basis set group =>   1
Atom  13N    basis set group =>   2
Atom  14C    basis set group =>   1
Atom  15N    basis set group =>   2
Atom  16C    basis set group =>   1
Atom  17C    basis set group =>   1
Atom  18C    basis set group =>   1
Atom  19C    basis set group =>   1
Atom  20C    basis set group =>   1
Atom  21C    basis set group =>   1
Atom  22C    basis set group =>   1
Atom  23C    basis set group =>   1
Atom  24C    basis set group =>   1
Atom  25C    basis set group =>   1
Atom  26C    basis set group =>   1
Atom  27C    basis set group =>   1
Atom  28C    basis set group =>   1
Atom  29C    basis set group =>   1
Atom  30C    basis set group =>   1
Atom  31C    basis set group =>   1
Atom  32C    basis set group =>   1
Atom  33C    basis set group =>   1
Atom  34C    basis set group =>   1
Atom  35C    basis set group =>   1
Atom  36C    basis set group =>   1
Atom  37C    basis set group =>   1
Atom  38C    basis set group =>   1
Atom  39C    basis set group =>   1
Atom  40C    basis set group =>   1
Atom  41C    basis set group =>   1
Atom  42C    basis set group =>   1
Atom  43C    basis set group =>   1
Atom  44C    basis set group =>   1
Atom  45C    basis set group =>   1
Atom  46C    basis set group =>   1
Atom  47C    basis set group =>   1
Atom  48C    basis set group =>   1
Atom  49C    basis set group =>   1
Atom  50C    basis set group =>   1
Atom  51C    basis set group =>   1
Atom  52H    basis set group =>   3
Atom  53H    basis set group =>   3
Atom  54H    basis set group =>   3
Atom  55H    basis set group =>   3
Atom  56H    basis set group =>   3
Atom  57H    basis set group =>   3
Atom  58H    basis set group =>   3
Atom  59H    basis set group =>   3
Atom  60H    basis set group =>   3
Atom  61H    basis set group =>   3
Atom  62H    basis set group =>   3
Atom  63H    basis set group =>   3
Atom  64H    basis set group =>   3
Atom  65H    basis set group =>   3
Atom  66H    basis set group =>   3
Atom  67H    basis set group =>   3
Atom  68H    basis set group =>   3
Atom  69H    basis set group =>   3
Atom  70H    basis set group =>   3
Atom  71H    basis set group =>   3
Atom  72H    basis set group =>   3
Atom  73H    basis set group =>   3
Atom  74H    basis set group =>   3
Atom  75H    basis set group =>   3
Atom  76H    basis set group =>   3
Atom  77H    basis set group =>   3
Atom  78H    basis set group =>   3
Atom  79H    basis set group =>   3
Atom  80H    basis set group =>   3
Atom  81H    basis set group =>   3
Atom  82H    basis set group =>   3
Atom  83H    basis set group =>   3
Atom  84H    basis set group =>   3
Atom  85H    basis set group =>   3
Atom  86H    basis set group =>   3
Atom  87H    basis set group =>   3
Atom  88H    basis set group =>   3
Atom  89H    basis set group =>   3


           ************************************************************
           *        Program running with 16 parallel MPI-processes    *
           *              working on a common directory               *
           ************************************************************
------------------------------------------------------------------------------
                           ORCA GTO INTEGRAL CALCULATION
------------------------------------------------------------------------------
------------------------------------------------------------------------------
                   ___                                                        
                  /   \      - P O W E R E D   B Y -                         
                 /     \                                                     
                 |  |  |   _    _      __       _____    __    __             
                 |  |  |  | |  | |    /  \     |  _  \  |  |  /  |          
                  \  \/   | |  | |   /    \    | | | |  |  | /  /          
                 / \  \   | |__| |  /  /\  \   | |_| |  |  |/  /          
                |  |  |   |  __  | /  /__\  \  |    /   |      \           
                |  |  |   | |  | | |   __   |  |    \   |  |\   \          
                \     /   | |  | | |  |  |  |  | |\  \  |  | \   \       
                 \___/    |_|  |_| |__|  |__|  |_| \__\ |__|  \__/        
                                                                              
                      - O R C A' S   B I G   F R I E N D -                    
                                      &                                       
                       - I N T E G R A L  F E E D E R -                       
                                                                              
 v1 FN, 2020, v2 2021                                                         
------------------------------------------------------------------------------


Reading SHARK input file /scratch/allen/tmpyp4_amber_gaff2/conf1/conf1/Conf170.orca.SHARKINP.tmp ... ok
----------------------
SHARK INTEGRAL PACKAGE
----------------------

Number of atoms                             ...     90
Number of basis functions                   ...   1230
Number of shells                            ...    738
Maximum angular momentum                    ...      2
Integral batch strategy                     ... SHARK/LIBINT Hybrid
RI-J (if used) integral strategy            ... SPLIT-RIJ (Revised 2003 algorithm where possible)
Printlevel                                  ...      1
Contraction scheme used                     ... PARTIAL GENERAL contraction
Coulomb Range Separation                    ... NOT USED
Exchange Range Separation                   ... NOT USED
Finite Nucleus Model                        ... NOT USED
Auxiliary Coulomb fitting basis             ... NOT available
Auxiliary J/K fitting basis                 ... NOT available
Auxiliary Correlation fitting basis         ... NOT available
Auxiliary 'external' fitting basis          ... NOT available
Integral threshold                          ...     2.500000e-11
Primitive cut-off                           ...     2.500000e-12
Primitive pair pre-selection threshold      ...     2.500000e-12

Calculating pre-screening integrals         ... done (  0.1 sec) Dimension = 738
Calculating pre-screening integrals (ORCA)  ... done (  0.3 sec) Dimension = 426
Organizing shell pair data                  ... done (  0.7 sec)
Shell pair information
Total number of shell pairs                 ...    272691
Shell pairs after pre-screening             ...     71719
Total number of primitive shell pairs       ...    422091
Primitive shell pairs kept                  ...     92636
          la=0 lb=0:  29440 shell pairs
          la=1 lb=0:  26035 shell pairs
          la=1 lb=1:   4699 shell pairs
          la=2 lb=0:   7890 shell pairs
          la=2 lb=1:   3126 shell pairs
          la=2 lb=2:    529 shell pairs

Calculating one electron integrals          ... done (  0.2 sec)
Calculating Nuclear repulsion               ... done (  0.0 sec) ENN=   6235.029706318966 Eh

SHARK setup successfully completed in   2.4 seconds

Maximum memory used throughout the entire GTOINT-calculation: 99.1 MB


           ************************************************************
           *        Program running with 16 parallel MPI-processes    *
           *              working on a common directory               *
           ************************************************************
-------------------------------------------------------------------------------
                                 ORCA SCF
-------------------------------------------------------------------------------

------------
SCF SETTINGS
------------
Hamiltonian:
 Ab initio Hamiltonian  Method          .... Hartree-Fock(GTOs)


General Settings:
 Integral files         IntName         .... /scratch/allen/tmpyp4_amber_gaff2/conf1/conf1/Conf170.orca
 Hartree-Fock type      HFTyp           .... RHF
 Total Charge           Charge          ....    0
 Multiplicity           Mult            ....    1
 Number of Electrons    NEL             ....  358
 Basis Dimension        Dim             ....  918
 Nuclear Repulsion      ENuc            ....   6235.0297063190 Eh

Convergence Acceleration:
 DIIS                   CNVDIIS         .... on
   Start iteration      DIISMaxIt       ....    12
   Startup error        DIISStart       ....  0.200000
   # of expansion vecs  DIISMaxEq       ....     5
   Bias factor          DIISBfac        ....   1.050
   Max. coefficient     DIISMaxC        ....  10.000
 Trust-Rad. Augm. Hess. CNVTRAH         .... auto
   Auto Start mean grad. ratio tolernc. ....  1.125000
   Auto Start start iteration           ....    20
   Auto Start num. interpolation iter.  ....    10
   Max. Number of Micro iterations      ....    16
   Max. Number of Macro iterations      .... Maxiter - #DIIS iter
   Number of Davidson start vectors     ....     2
   Converg. threshold I  (grad. norm)   ....   1.000e-05
   Converg. threshold II (energy diff.) ....   1.000e-08
   Grad. Scal. Fac. for Micro threshold ....   0.100
   Minimum threshold for Micro iter.    ....   0.010
   NR start threshold (gradient norm)   ....   0.001
   Initial trust radius                 ....   0.400
   Minimum AH scaling param. (alpha)    ....   1.000
   Maximum AH scaling param. (alpha)    .... 1000.000
   Orbital update algorithm             .... Taylor
   White noise on init. David. guess    .... on
   Maximum white noise                  ....   0.010
   Quad. conv. algorithm                .... NR
 SOSCF                  CNVSOSCF        .... on
   Start iteration      SOSCFMaxIt      ....   150
   Startup grad/error   SOSCFStart      ....  0.003300
 Level Shifting         CNVShift        .... on
   Level shift para.    LevelShift      ....    0.2500
   Turn off err/grad.   ShiftErr        ....    0.0010
 Zerner damping         CNVZerner       .... off
 Static damping         CNVDamp         .... on
   Fraction old density DampFac         ....    0.7000
   Max. Damping (<1)    DampMax         ....    0.9800
   Min. Damping (>=0)   DampMin         ....    0.0000
   Turn off err/grad.   DampErr         ....    0.1000
 Fernandez-Rico         CNVRico         .... off

SCF Procedure:
 Maximum # iterations   MaxIter         ....   125
 SCF integral mode      SCFMode         .... Direct
   Integral package                     .... SHARK and LIBINT hybrid scheme
 Reset frequency        DirectResetFreq ....    20
 Integral Threshold     Thresh          ....  2.500e-11 Eh
 Primitive CutOff       TCut            ....  2.500e-12 Eh

Convergence Tolerance:
 Convergence Check Mode ConvCheckMode   .... Total+1el-Energy
 Convergence forced     ConvForced      .... 1
 Energy Change          TolE            ....  1.000e-08 Eh
 1-El. energy change                    ....  1.000e-05 Eh
 Orbital Gradient       TolG            ....  1.000e-05
 Orbital Rotation angle TolX            ....  1.000e-05
 DIIS Error             TolErr          ....  5.000e-07


Diagonalization of the overlap matrix:
Smallest eigenvalue                        ... 1.713e-04
Time for diagonalization                   ...    0.445 sec
Threshold for overlap eigenvalues          ... 1.000e-08
Number of eigenvalues below threshold      ... 0
Time for construction of square roots      ...    0.268 sec
Total time needed                          ...    0.720 sec

Time for model grid setup =    1.296 sec

------------------------------
INITIAL GUESS: MODEL POTENTIAL
------------------------------
Loading Hartree-Fock densities                     ... done
Calculating cut-offs                               ... done
Initializing the effective Hamiltonian             ... done
Setting up the integral package (SHARK)            ... done
Starting the Coulomb interaction                   ... done (   1.4 sec)
Reading the grid                                   ... done
Mapping shells                                     ... done
Starting the XC term evaluation                    ... done (   0.2 sec)
Transforming the Hamiltonian                       ... done (   0.3 sec)
Diagonalizing the Hamiltonian                      ... done (   0.4 sec)
Back transforming the eigenvectors                 ... done (   0.1 sec)
Now organizing SCF variables                       ... done
                      ------------------
                      INITIAL GUESS DONE (   3.8 sec)
                      ------------------
--------------
SCF ITERATIONS
--------------
ITER       Energy         Delta-E        Max-DP      RMS-DP      [F,P]     Damp
               ***  Starting incremental Fock matrix formation  ***
  0  -2121.6110207302   0.000000000000 0.08049370  0.00128001  0.2311551 0.7000
  1  -2122.2531353175  -0.642114587252 0.06104135  0.00104412  0.1434632 0.7000
                               ***Turning on DIIS***
  2  -2122.6538347135  -0.400699396056 0.14206866  0.00236733  0.0803130 0.0000
  3  -2118.0464693423   4.607365371216 0.06917692  0.00071073  0.0434150 0.0000
  4  -2123.3519899428  -5.305520600554 0.02134825  0.00023496  0.0092738 0.0000
  5  -2123.4824638944  -0.130473951596 0.00963149  0.00013482  0.0048309 0.0000
  6  -2123.4665937113   0.015870183126 0.00601493  0.00008610  0.0022358 0.0000
  7  -2123.5585426039  -0.091948892614 0.00374217  0.00006755  0.0016343 0.0000
  8  -2123.5648652675  -0.006322663538 0.00335645  0.00006449  0.0015308 0.0000
  9  -2123.5383214055   0.026543862017 0.00269512  0.00004602  0.0012330 0.0000
 10  -2123.5458757663  -0.007554360873 0.00544547  0.00009666  0.0009666 0.0000
                      *** Initiating the SOSCF procedure ***
                           *** Shutting down DIIS ***
                      *** Re-Reading the Fockian *** 
                      *** Removing any level shift *** 
ITER      Energy       Delta-E        Grad      Rot      Max-DP    RMS-DP
 11  -2123.44088504   0.1049907282  0.000182  0.000182  0.000244  0.000005
               *** Restarting incremental Fock matrix formation ***
 12  -2123.50612076  -0.0652357173  0.000914  0.006297  0.001515  0.000035
 13  -2123.50623299  -0.0001122335  0.001120  0.030616  0.006915  0.000139
 14  -2123.50641745  -0.0001844594  0.000402  0.002091  0.000625  0.000013
 15  -2123.50643251  -0.0000150642  0.000154  0.001808  0.000478  0.000012
 16  -2123.50643870  -0.0000061861  0.000138  0.002096  0.000497  0.000008
 17  -2123.50644104  -0.0000023395  0.000108  0.001637  0.000272  0.000006
 18  -2123.50644198  -0.0000009447  0.000053  0.000580  0.000200  0.000003
 19  -2123.50644249  -0.0000005078  0.000039  0.000951  0.000197  0.000004
 20  -2123.50644277  -0.0000002819  0.000020  0.000574  0.000094  0.000002
 21  -2123.50644289  -0.0000001193  0.000023  0.000772  0.000114  0.000002
 22  -2123.50644301  -0.0000001149  0.000017  0.000809  0.000128  0.000002
 23  -2123.50644309  -0.0000000789  0.000012  0.000408  0.000069  0.000001
 24  -2123.50644313  -0.0000000395  0.000006  0.000341  0.000054  0.000001
 25  -2123.50644315  -0.0000000293  0.000007  0.000118  0.000033  0.000001
 26  -2123.50644317  -0.0000000158  0.000005  0.000079  0.000028  0.000000
 27  -2123.50644318  -0.0000000069  0.000003  0.000068  0.000019  0.000000
                 **** Energy Check signals convergence ****
              ***Rediagonalizing the Fockian in SOSCF/NRSCF***

               *****************************************************
               *                     SUCCESS                       *
               *           SCF CONVERGED AFTER  28 CYCLES          *
               *****************************************************


----------------
TOTAL SCF ENERGY
----------------

Total Energy       :        -2123.50644318 Eh          -57783.54798 eV

Components:
Nuclear Repulsion  :         6235.02970632 Eh          169663.78385 eV
Electronic Energy  :        -8358.53614950 Eh         -227447.33183 eV
One Electron Energy:       -15310.57495597 Eh         -416621.92520 eV
Two Electron Energy:         6952.03880647 Eh          189174.59337 eV

Virial components:
Potential Energy   :        -4246.02733067 Eh         -115540.27762 eV
Kinetic Energy     :         2122.52088749 Eh           57756.72964 eV
Virial Ratio       :            2.00046433


---------------
SCF CONVERGENCE
---------------

  Last Energy change         ...   -5.5916e-09  Tolerance :   1.0000e-08
  Last MAX-Density change    ...    9.6932e-06  Tolerance :   1.0000e-07
  Last RMS-Density change    ...    1.9226e-07  Tolerance :   5.0000e-09
  Last Orbital Gradient      ...    1.7287e-06  Tolerance :   1.0000e-05
  Last Orbital Rotation      ...    5.0054e-05  Tolerance :   1.0000e-05

             **** THE GBW FILE WAS UPDATED (/scratch/allen/tmpyp4_amber_gaff2/conf1/conf1/Conf170.orca.gbw) ****
             **** DENSITY /scratch/allen/tmpyp4_amber_gaff2/conf1/conf1/Conf170.orca.scfp WAS UPDATED ****
             **** ENERGY FILE WAS UPDATED (/scratch/allen/tmpyp4_amber_gaff2/conf1/conf1/Conf170.orca.en.tmp) ****
             **** THE GBW FILE WAS UPDATED (/scratch/allen/tmpyp4_amber_gaff2/conf1/conf1/Conf170.orca.gbw) ****
             **** DENSITY /scratch/allen/tmpyp4_amber_gaff2/conf1/conf1/Conf170.orca.scfp WAS UPDATED ****
----------------
ORBITAL ENERGIES
----------------

  NO   OCC          E(Eh)            E(eV) 
   0   2.0000     -15.680233      -426.6808 
   1   2.0000     -15.635314      -425.4585 
   2   2.0000     -15.630749      -425.3343 
   3   2.0000     -15.587499      -424.1574 
   4   2.0000     -15.525504      -422.4705 
   5   2.0000     -15.515401      -422.1955 
   6   2.0000     -15.453569      -420.5130 
   7   2.0000     -15.440102      -420.1465 
   8   2.0000     -11.329930      -308.3031 
   9   2.0000     -11.328556      -308.2657 
  10   2.0000     -11.328194      -308.2558 
  11   2.0000     -11.300143      -307.4925 
  12   2.0000     -11.297695      -307.4259 
  13   2.0000     -11.294127      -307.3288 
  14   2.0000     -11.290321      -307.2252 
  15   2.0000     -11.287725      -307.1546 
  16   2.0000     -11.285591      -307.0966 
  17   2.0000     -11.282463      -307.0114 
  18   2.0000     -11.269533      -306.6596 
  19   2.0000     -11.263668      -306.5000 
  20   2.0000     -11.262681      -306.4731 
  21   2.0000     -11.250557      -306.1432 
  22   2.0000     -11.248925      -306.0988 
  23   2.0000     -11.239039      -305.8298 
  24   2.0000     -11.235584      -305.7358 
  25   2.0000     -11.232121      -305.6416 
  26   2.0000     -11.231465      -305.6237 
  27   2.0000     -11.228936      -305.5549 
  28   2.0000     -11.228650      -305.5471 
  29   2.0000     -11.211731      -305.0867 
  30   2.0000     -11.210246      -305.0463 
  31   2.0000     -11.193434      -304.5888 
  32   2.0000     -11.191679      -304.5411 
  33   2.0000     -11.191214      -304.5284 
  34   2.0000     -11.187996      -304.4408 
  35   2.0000     -11.187940      -304.4393 
  36   2.0000     -11.186606      -304.4030 
  37   2.0000     -11.175315      -304.0958 
  38   2.0000     -11.174090      -304.0625 
  39   2.0000     -11.173140      -304.0366 
  40   2.0000     -11.172543      -304.0203 
  41   2.0000     -11.169864      -303.9474 
  42   2.0000     -11.169239      -303.9304 
  43   2.0000     -11.161594      -303.7224 
  44   2.0000     -11.160512      -303.6930 
  45   2.0000     -11.157032      -303.5983 
  46   2.0000     -11.156101      -303.5730 
  47   2.0000     -11.152274      -303.4688 
  48   2.0000     -11.146085      -303.3004 
  49   2.0000     -11.134728      -302.9913 
  50   2.0000     -11.129929      -302.8608 
  51   2.0000     -11.117265      -302.5161 
  52   2.0000      -1.360746       -37.0278 
  53   2.0000      -1.322366       -35.9834 
  54   2.0000      -1.318691       -35.8834 
  55   2.0000      -1.280115       -34.8337 
  56   2.0000      -1.226708       -33.3804 
  57   2.0000      -1.210081       -32.9280 
  58   2.0000      -1.173187       -31.9240 
  59   2.0000      -1.150970       -31.3195 
  60   2.0000      -1.143932       -31.1280 
  61   2.0000      -1.111096       -30.2345 
  62   2.0000      -1.108281       -30.1579 
  63   2.0000      -1.082410       -29.4539 
  64   2.0000      -1.076848       -29.3025 
  65   2.0000      -1.046494       -28.4765 
  66   2.0000      -1.043383       -28.3919 
  67   2.0000      -1.041378       -28.3373 
  68   2.0000      -1.015216       -27.6254 
  69   2.0000      -1.013034       -27.5661 
  70   2.0000      -1.008801       -27.4509 
  71   2.0000      -0.994111       -27.0511 
  72   2.0000      -0.985376       -26.8135 
  73   2.0000      -0.982067       -26.7234 
  74   2.0000      -0.973201       -26.4821 
  75   2.0000      -0.961782       -26.1714 
  76   2.0000      -0.954429       -25.9713 
  77   2.0000      -0.945805       -25.7367 
  78   2.0000      -0.936998       -25.4970 
  79   2.0000      -0.916839       -24.9485 
  80   2.0000      -0.910855       -24.7856 
  81   2.0000      -0.897326       -24.4175 
  82   2.0000      -0.877059       -23.8660 
  83   2.0000      -0.873265       -23.7627 
  84   2.0000      -0.869936       -23.6722 
  85   2.0000      -0.859961       -23.4007 
  86   2.0000      -0.841514       -22.8988 
  87   2.0000      -0.837596       -22.7922 
  88   2.0000      -0.827747       -22.5241 
  89   2.0000      -0.796546       -21.6751 
  90   2.0000      -0.788827       -21.4651 
  91   2.0000      -0.765148       -20.8207 
  92   2.0000      -0.753207       -20.4958 
  93   2.0000      -0.734125       -19.9766 
  94   2.0000      -0.727290       -19.7906 
  95   2.0000      -0.724476       -19.7140 
  96   2.0000      -0.718906       -19.5624 
  97   2.0000      -0.717164       -19.5150 
  98   2.0000      -0.712071       -19.3764 
  99   2.0000      -0.698645       -19.0111 
 100   2.0000      -0.697297       -18.9744 
 101   2.0000      -0.691445       -18.8152 
 102   2.0000      -0.685537       -18.6544 
 103   2.0000      -0.684501       -18.6262 
 104   2.0000      -0.679304       -18.4848 
 105   2.0000      -0.674213       -18.3463 
 106   2.0000      -0.672408       -18.2972 
 107   2.0000      -0.660492       -17.9729 
 108   2.0000      -0.657772       -17.8989 
 109   2.0000      -0.653701       -17.7881 
 110   2.0000      -0.651258       -17.7216 
 111   2.0000      -0.646467       -17.5913 
 112   2.0000      -0.645512       -17.5653 
 113   2.0000      -0.638004       -17.3610 
 114   2.0000      -0.635864       -17.3027 
 115   2.0000      -0.627683       -17.0801 
 116   2.0000      -0.622395       -16.9362 
 117   2.0000      -0.620455       -16.8834 
 118   2.0000      -0.613639       -16.6980 
 119   2.0000      -0.613043       -16.6817 
 120   2.0000      -0.611823       -16.6485 
 121   2.0000      -0.610612       -16.6156 
 122   2.0000      -0.600595       -16.3430 
 123   2.0000      -0.588520       -16.0144 
 124   2.0000      -0.582460       -15.8496 
 125   2.0000      -0.580792       -15.8042 
 126   2.0000      -0.579835       -15.7781 
 127   2.0000      -0.571484       -15.5509 
 128   2.0000      -0.568083       -15.4583 
 129   2.0000      -0.559702       -15.2303 
 130   2.0000      -0.554502       -15.0888 
 131   2.0000      -0.548156       -14.9161 
 132   2.0000      -0.543054       -14.7772 
 133   2.0000      -0.541306       -14.7297 
 134   2.0000      -0.539281       -14.6746 
 135   2.0000      -0.535415       -14.5694 
 136   2.0000      -0.531194       -14.4545 
 137   2.0000      -0.518274       -14.1030 
 138   2.0000      -0.517858       -14.0916 
 139   2.0000      -0.514043       -13.9878 
 140   2.0000      -0.511854       -13.9282 
 141   2.0000      -0.510568       -13.8933 
 142   2.0000      -0.509036       -13.8516 
 143   2.0000      -0.504808       -13.7365 
 144   2.0000      -0.501401       -13.6438 
 145   2.0000      -0.495469       -13.4824 
 146   2.0000      -0.489569       -13.3219 
 147   2.0000      -0.481455       -13.1011 
 148   2.0000      -0.476748       -12.9730 
 149   2.0000      -0.467774       -12.7288 
 150   2.0000      -0.466137       -12.6842 
 151   2.0000      -0.456468       -12.4211 
 152   2.0000      -0.451184       -12.2773 
 153   2.0000      -0.445293       -12.1170 
 154   2.0000      -0.438649       -11.9363 
 155   2.0000      -0.427498       -11.6328 
 156   2.0000      -0.409249       -11.1362 
 157   2.0000      -0.396510       -10.7896 
 158   2.0000      -0.391677       -10.6581 
 159   2.0000      -0.387841       -10.5537 
 160   2.0000      -0.381047       -10.3688 
 161   2.0000      -0.376926       -10.2567 
 162   2.0000      -0.370186       -10.0733 
 163   2.0000      -0.357544        -9.7293 
 164   2.0000      -0.355131        -9.6636 
 165   2.0000      -0.341591        -9.2952 
 166   2.0000      -0.337818        -9.1925 
 167   2.0000      -0.325218        -8.8496 
 168   2.0000      -0.320372        -8.7178 
 169   2.0000      -0.305984        -8.3263 
 170   2.0000      -0.299202        -8.1417 
 171   2.0000      -0.285257        -7.7622 
 172   2.0000      -0.278501        -7.5784 
 173   2.0000      -0.263219        -7.1626 
 174   2.0000      -0.241658        -6.5758 
 175   2.0000      -0.190077        -5.1723 
 176   2.0000      -0.181177        -4.9301 
 177   2.0000      -0.080051        -2.1783 
 178   2.0000      -0.059700        -1.6245 
 179   0.0000       0.028242         0.7685 
 180   0.0000       0.065145         1.7727 
 181   0.0000       0.090232         2.4553 
 182   0.0000       0.105950         2.8831 
 183   0.0000       0.115664         3.1474 
 184   0.0000       0.136263         3.7079 
 185   0.0000       0.139982         3.8091 
 186   0.0000       0.140737         3.8297 
 187   0.0000       0.164195         4.4680 
 188   0.0000       0.164716         4.4821 
 189   0.0000       0.166227         4.5233 
 190   0.0000       0.173863         4.7311 
 191   0.0000       0.180127         4.9015 
 192   0.0000       0.183559         4.9949 
 193   0.0000       0.189570         5.1585 
 194   0.0000       0.204134         5.5548 
 195   0.0000       0.206132         5.6091 
 196   0.0000       0.207499         5.6463 
 197   0.0000       0.209302         5.6954 
 198   0.0000       0.216326         5.8865 
 199   0.0000       0.229284         6.2391 
 200   0.0000       0.233449         6.3525 
 201   0.0000       0.233925         6.3654 
 202   0.0000       0.238507         6.4901 
 203   0.0000       0.240137         6.5344 
 204   0.0000       0.245905         6.6914 
 205   0.0000       0.254677         6.9301 
 206   0.0000       0.256187         6.9712 
 207   0.0000       0.257467         7.0060 
 208   0.0000       0.259351         7.0573 
 209   0.0000       0.260215         7.0808 
 210   0.0000       0.263953         7.1825 
 211   0.0000       0.266541         7.2530 
 212   0.0000       0.268707         7.3119 
 213   0.0000       0.270615         7.3638 
 214   0.0000       0.272728         7.4213 
 215   0.0000       0.276570         7.5259 
 216   0.0000       0.278808         7.5868 
 217   0.0000       0.281204         7.6519 
 218   0.0000       0.285210         7.7609 
 219   0.0000       0.288016         7.8373 
 220   0.0000       0.288993         7.8639 
 221   0.0000       0.292349         7.9552 
 222   0.0000       0.294559         8.0154 
 223   0.0000       0.295936         8.0528 
 224   0.0000       0.298076         8.1111 
 225   0.0000       0.301081         8.1928 
 226   0.0000       0.304361         8.2821 
 227   0.0000       0.308610         8.3977 
 228   0.0000       0.314201         8.5498 
 229   0.0000       0.324513         8.8305 
 230   0.0000       0.328036         8.9263 
 231   0.0000       0.334411         9.0998 
 232   0.0000       0.344161         9.3651 
 233   0.0000       0.356127         9.6907 
 234   0.0000       0.363401         9.8886 
 235   0.0000       0.365550         9.9471 
 236   0.0000       0.375572        10.2198 
 237   0.0000       0.390934        10.6379 
 238   0.0000       0.395867        10.7721 
 239   0.0000       0.399599        10.8736 
 240   0.0000       0.406963        11.0740 
 241   0.0000       0.411023        11.1845 
 242   0.0000       0.412129        11.2146 
 243   0.0000       0.420439        11.4407 
 244   0.0000       0.428264        11.6537 
 245   0.0000       0.435367        11.8469 
 246   0.0000       0.437102        11.8942 
 247   0.0000       0.440605        11.9895 
 248   0.0000       0.441818        12.0225 
 249   0.0000       0.448574        12.2063 
 250   0.0000       0.456031        12.4092 
 251   0.0000       0.464299        12.6342 
 252   0.0000       0.467188        12.7128 
 253   0.0000       0.470289        12.7972 
 254   0.0000       0.471495        12.8300 
 255   0.0000       0.474250        12.9050 
 256   0.0000       0.477559        12.9950 
 257   0.0000       0.480682        13.0800 
 258   0.0000       0.490034        13.3345 
 259   0.0000       0.494728        13.4622 
 260   0.0000       0.504533        13.7290 
 261   0.0000       0.504795        13.7362 
 262   0.0000       0.506321        13.7777 
 263   0.0000       0.511731        13.9249 
 264   0.0000       0.516655        14.0589 
 265   0.0000       0.522097        14.2070 
 266   0.0000       0.525327        14.2949 
 267   0.0000       0.527299        14.3485 
 268   0.0000       0.532297        14.4845 
 269   0.0000       0.536156        14.5895 
 270   0.0000       0.543545        14.7906 
 271   0.0000       0.547936        14.9101 
 272   0.0000       0.557766        15.1776 
 273   0.0000       0.560333        15.2474 
 274   0.0000       0.560674        15.2567 
 275   0.0000       0.566351        15.4112 
 276   0.0000       0.572663        15.5830 
 277   0.0000       0.573727        15.6119 
 278   0.0000       0.579756        15.7760 
 279   0.0000       0.586052        15.9473 
 280   0.0000       0.591228        16.0881 
 281   0.0000       0.593457        16.1488 
 282   0.0000       0.594915        16.1885 
 283   0.0000       0.595612        16.2074 
 284   0.0000       0.597949        16.2710 
 285   0.0000       0.598734        16.2924 
 286   0.0000       0.604587        16.4517 
 287   0.0000       0.610117        16.6021 
 288   0.0000       0.617125        16.7928 
 289   0.0000       0.625002        17.0072 
 290   0.0000       0.626061        17.0360 
 291   0.0000       0.629094        17.1185 
 292   0.0000       0.631947        17.1962 
 293   0.0000       0.636113        17.3095 
 294   0.0000       0.645284        17.5591 
 295   0.0000       0.648870        17.6566 
 296   0.0000       0.653114        17.7721 
 297   0.0000       0.655298        17.8316 
 298   0.0000       0.661255        17.9937 
 299   0.0000       0.664556        18.0835 
 300   0.0000       0.670596        18.2478 
 301   0.0000       0.675302        18.3759 
 302   0.0000       0.676926        18.4201 
 303   0.0000       0.679326        18.4854 
 304   0.0000       0.680999        18.5309 
 305   0.0000       0.684832        18.6352 
 306   0.0000       0.689136        18.7523 
 307   0.0000       0.692783        18.8516 
 308   0.0000       0.695484        18.9251 
 309   0.0000       0.700004        19.0481 
 310   0.0000       0.702821        19.1247 
 311   0.0000       0.704678        19.1753 
 312   0.0000       0.707372        19.2486 
 313   0.0000       0.710580        19.3359 
 314   0.0000       0.710711        19.3394 
 315   0.0000       0.714578        19.4447 
 316   0.0000       0.716719        19.5029 
 317   0.0000       0.719033        19.5659 
 318   0.0000       0.724400        19.7119 
 319   0.0000       0.727026        19.7834 
 320   0.0000       0.728533        19.8244 
 321   0.0000       0.730111        19.8673 
 322   0.0000       0.731257        19.8985 
 323   0.0000       0.734336        19.9823 
 324   0.0000       0.736577        20.0433 
 325   0.0000       0.741724        20.1833 
 326   0.0000       0.745057        20.2740 
 327   0.0000       0.748569        20.3696 
 328   0.0000       0.750374        20.4187 
 329   0.0000       0.753429        20.5019 
 330   0.0000       0.759128        20.6569 
 331   0.0000       0.762414        20.7463 
 332   0.0000       0.766503        20.8576 
 333   0.0000       0.768304        20.9066 
 334   0.0000       0.770240        20.9593 
 335   0.0000       0.776432        21.1278 
 336   0.0000       0.777666        21.1614 
 337   0.0000       0.782484        21.2925 
 338   0.0000       0.786303        21.3964 
 339   0.0000       0.790397        21.5078 
 340   0.0000       0.792803        21.5733 
 341   0.0000       0.797742        21.7077 
 342   0.0000       0.798862        21.7381 
 343   0.0000       0.805404        21.9162 
 344   0.0000       0.806204        21.9379 
 345   0.0000       0.807988        21.9865 
 346   0.0000       0.809349        22.0235 
 347   0.0000       0.811216        22.0743 
 348   0.0000       0.816000        22.2045 
 349   0.0000       0.816603        22.2209 
 350   0.0000       0.818440        22.2709 
 351   0.0000       0.821859        22.3639 
 352   0.0000       0.823538        22.4096 
 353   0.0000       0.827980        22.5305 
 354   0.0000       0.829991        22.5852 
 355   0.0000       0.832326        22.6488 
 356   0.0000       0.836122        22.7520 
 357   0.0000       0.836379        22.7590 
 358   0.0000       0.838445        22.8153 
 359   0.0000       0.841540        22.8995 
 360   0.0000       0.842814        22.9341 
 361   0.0000       0.844342        22.9757 
 362   0.0000       0.846583        23.0367 
 363   0.0000       0.849360        23.1123 
 364   0.0000       0.851460        23.1694 
 365   0.0000       0.854903        23.2631 
 366   0.0000       0.858573        23.3630 
 367   0.0000       0.864245        23.5173 
 368   0.0000       0.864678        23.5291 
 369   0.0000       0.868112        23.6225 
 370   0.0000       0.869571        23.6622 
 371   0.0000       0.872415        23.7396 
 372   0.0000       0.877433        23.8762 
 373   0.0000       0.878444        23.9037 
 374   0.0000       0.879014        23.9192 
 375   0.0000       0.884367        24.0648 
 376   0.0000       0.889599        24.2072 
 377   0.0000       0.890493        24.2315 
 378   0.0000       0.892753        24.2931 
 379   0.0000       0.895303        24.3624 
 380   0.0000       0.895684        24.3728 
 381   0.0000       0.898533        24.4503 
 382   0.0000       0.898949        24.4616 
 383   0.0000       0.901597        24.5337 
 384   0.0000       0.906231        24.6598 
 385   0.0000       0.906764        24.6743 
 386   0.0000       0.909729        24.7550 
 387   0.0000       0.911170        24.7942 
 388   0.0000       0.914385        24.8817 
 389   0.0000       0.917363        24.9627 
 390   0.0000       0.920503        25.0482 
 391   0.0000       0.926702        25.2169 
 392   0.0000       0.927450        25.2372 
 393   0.0000       0.928627        25.2692 
 394   0.0000       0.930064        25.3083 
 395   0.0000       0.933988        25.4151 
 396   0.0000       0.935237        25.4491 
 397   0.0000       0.940479        25.5917 
 398   0.0000       0.942337        25.6423 
 399   0.0000       0.945781        25.7360 
 400   0.0000       0.948690        25.8152 
 401   0.0000       0.952482        25.9183 
 402   0.0000       0.955399        25.9977 
 403   0.0000       0.957442        26.0533 
 404   0.0000       0.960810        26.1450 
 405   0.0000       0.965086        26.2613 
 406   0.0000       0.968794        26.3622 
 407   0.0000       0.979802        26.6618 
 408   0.0000       0.981502        26.7080 
 409   0.0000       0.985861        26.8266 
 410   0.0000       0.987771        26.8786 
 411   0.0000       0.992374        27.0039 
 412   0.0000       0.997394        27.1405 
 413   0.0000       1.003461        27.3056 
 414   0.0000       1.009222        27.4623 
 415   0.0000       1.014011        27.5927 
 416   0.0000       1.015799        27.6413 
 417   0.0000       1.021811        27.8049 
 418   0.0000       1.023533        27.8518 
 419   0.0000       1.030066        28.0295 
 420   0.0000       1.035179        28.1687 
 421   0.0000       1.038593        28.2615 
 422   0.0000       1.050007        28.5721 
 423   0.0000       1.051872        28.6229 
 424   0.0000       1.053807        28.6756 
 425   0.0000       1.072558        29.1858 
 426   0.0000       1.077138        29.3104 
 427   0.0000       1.078354        29.3435 
 428   0.0000       1.082079        29.4449 
 429   0.0000       1.082966        29.4690 
 430   0.0000       1.087796        29.6004 
 431   0.0000       1.093620        29.7589 
 432   0.0000       1.096732        29.8436 
 433   0.0000       1.101609        29.9763 
 434   0.0000       1.107132        30.1266 
 435   0.0000       1.111154        30.2360 
 436   0.0000       1.112947        30.2848 
 437   0.0000       1.115044        30.3419 
 438   0.0000       1.120481        30.4898 
 439   0.0000       1.122511        30.5451 
 440   0.0000       1.124176        30.5904 
 441   0.0000       1.127901        30.6917 
 442   0.0000       1.133498        30.8441 
 443   0.0000       1.134864        30.8812 
 444   0.0000       1.136390        30.9227 
 445   0.0000       1.138169        30.9712 
 446   0.0000       1.146622        31.2012 
 447   0.0000       1.151226        31.3265 
 448   0.0000       1.153368        31.3847 
 449   0.0000       1.154644        31.4195 
 450   0.0000       1.163469        31.6596 
 451   0.0000       1.164872        31.6978 
 452   0.0000       1.165611        31.7179 
 453   0.0000       1.167231        31.7620 
 454   0.0000       1.169914        31.8350 
 455   0.0000       1.174220        31.9522 
 456   0.0000       1.182044        32.1651 
 457   0.0000       1.186752        32.2932 
 458   0.0000       1.193317        32.4718 
 459   0.0000       1.198386        32.6098 
 460   0.0000       1.201632        32.6981 
 461   0.0000       1.203463        32.7479 
 462   0.0000       1.205550        32.8047 
 463   0.0000       1.206810        32.8390 
 464   0.0000       1.211070        32.9549 
 465   0.0000       1.214960        33.0607 
 466   0.0000       1.220767        33.2188 
 467   0.0000       1.224807        33.3287 
 468   0.0000       1.226155        33.3654 
 469   0.0000       1.230422        33.4815 
 470   0.0000       1.236573        33.6489 
 471   0.0000       1.238123        33.6910 
 472   0.0000       1.239096        33.7175 
 473   0.0000       1.241444        33.7814 
 474   0.0000       1.242986        33.8234 
 475   0.0000       1.247016        33.9330 
 476   0.0000       1.249576        34.0027 
 477   0.0000       1.252854        34.0919 
 478   0.0000       1.255176        34.1551 
 479   0.0000       1.258016        34.2324 
 480   0.0000       1.262508        34.3546 
 481   0.0000       1.269745        34.5515 
 482   0.0000       1.271160        34.5900 
 483   0.0000       1.272895        34.6372 
 484   0.0000       1.273789        34.6615 
 485   0.0000       1.281509        34.8716 
 486   0.0000       1.285958        34.9927 
 487   0.0000       1.288702        35.0674 
 488   0.0000       1.291466        35.1426 
 489   0.0000       1.297325        35.3020 
 490   0.0000       1.298126        35.3238 
 491   0.0000       1.302743        35.4494 
 492   0.0000       1.304903        35.5082 
 493   0.0000       1.309205        35.6253 
 494   0.0000       1.313224        35.7346 
 495   0.0000       1.317766        35.8582 
 496   0.0000       1.319531        35.9063 
 497   0.0000       1.324337        36.0370 
 498   0.0000       1.327166        36.1140 
 499   0.0000       1.328931        36.1620 
 500   0.0000       1.333203        36.2783 
 501   0.0000       1.338546        36.4237 
 502   0.0000       1.342666        36.5358 
 503   0.0000       1.345937        36.6248 
 504   0.0000       1.349333        36.7172 
 505   0.0000       1.351452        36.7749 
 506   0.0000       1.353603        36.8334 
 507   0.0000       1.356287        36.9064 
 508   0.0000       1.359999        37.0074 
 509   0.0000       1.363446        37.1013 
[...]
      pz      :     0.022122  p :     0.079789
      px      :     0.043623
      py      :     0.014043
 77 H s       :     0.884412  s :     0.884412
      pz      :     0.047989  p :     0.079303
      px      :     0.015024
      py      :     0.016290
 78 H s       :     0.884785  s :     0.884785
      pz      :     0.025887  p :     0.079269
      px      :     0.020452
      py      :     0.032930
 79 H s       :     0.910680  s :     0.910680
      pz      :     0.021789  p :     0.086306
      px      :     0.021658
      py      :     0.042859
 80 H s       :     0.864312  s :     0.864312
      pz      :     0.039402  p :     0.084856
      px      :     0.030303
      py      :     0.015151
 81 H s       :     0.886883  s :     0.886883
      pz      :     0.037821  p :     0.084123
      px      :     0.016187
      py      :     0.030116
 82 H s       :     0.916198  s :     0.916198
      pz      :     0.021962  p :     0.086718
      px      :     0.031654
      py      :     0.033102
 83 H s       :     0.873615  s :     0.873615
      pz      :     0.039258  p :     0.084083
      px      :     0.015280
      py      :     0.029546
 84 H s       :     0.886848  s :     0.886848
      pz      :     0.035756  p :     0.083424
      px      :     0.031689
      py      :     0.015978
 85 H s       :     0.892963  s :     0.892963
      pz      :     0.022486  p :     0.079778
      px      :     0.014074
      py      :     0.043217
 86 H s       :     0.891112  s :     0.891112
      pz      :     0.024726  p :     0.078817
      px      :     0.032972
      py      :     0.021119
 87 H s       :     0.889916  s :     0.889916
      pz      :     0.048012  p :     0.078734
      px      :     0.015585
      py      :     0.015137
 88 H s       :     0.910518  s :     0.910518
      pz      :     0.021639  p :     0.087034
      px      :     0.042936
      py      :     0.022459
 89 H s       :     0.871051  s :     0.871051
      pz      :     0.037958  p :     0.083850
      px      :     0.030499
      py      :     0.015392


                      *****************************
                      * MAYER POPULATION ANALYSIS *
                      *****************************

  NA   - Mulliken gross atomic population
  ZA   - Total nuclear charge
  QA   - Mulliken gross atomic charge
  VA   - Mayer's total valence
  BVA  - Mayer's bonded valence
  FA   - Mayer's free valence

  ATOM       NA         ZA         QA         VA         BVA        FA
  0 C      5.7825     6.0000     0.2175     3.8466     3.8466    -0.0000
  1 N      7.4561     7.0000    -0.4561     3.3435     3.3435     0.0000
  2 C      6.0780     6.0000    -0.0780     3.9243     3.9243    -0.0000
  3 N      7.3414     7.0000    -0.3414     3.4565     3.4565    -0.0000
  4 C      6.0731     6.0000    -0.0731     4.1284     4.1284    -0.0000
  5 N      7.5679     7.0000    -0.5679     3.0957     3.0957    -0.0000
  6 C      6.1184     6.0000    -0.1184     3.9420     3.9420    -0.0000
  7 N      7.3410     7.0000    -0.3410     3.4321     3.4321    -0.0000
  8 C      5.7801     6.0000     0.2199     3.8506     3.8506     0.0000
  9 N      7.5625     7.0000    -0.5625     3.0771     3.0771     0.0000
 10 C      5.8809     6.0000     0.1191     3.9095     3.9095     0.0000
 11 N      7.4382     7.0000    -0.4382     3.3797     3.3797    -0.0000
 12 C      6.0479     6.0000    -0.0479     3.8347     3.8347     0.0000
 13 N      7.4292     7.0000    -0.4292     3.4290     3.4290    -0.0000
 14 C      5.7907     6.0000     0.2093     3.7990     3.7990    -0.0000
 15 N      7.4412     7.0000    -0.4412     3.3714     3.3714    -0.0000
 16 C      5.7655     6.0000     0.2345     3.7762     3.7762    -0.0000
 17 C      6.1176     6.0000    -0.1176     3.9381     3.9381    -0.0000
 18 C      6.1571     6.0000    -0.1571     3.7469     3.7469    -0.0000
 19 C      5.7970     6.0000     0.2030     3.8711     3.8711     0.0000
 20 C      5.7855     6.0000     0.2145     3.8288     3.8288    -0.0000
 21 C      6.0630     6.0000    -0.0630     3.8393     3.8393    -0.0000
 22 C      6.0893     6.0000    -0.0893     3.9822     3.9822    -0.0000
 23 C      6.0396     6.0000    -0.0396     3.9925     3.9925    -0.0000
 24 C      5.8060     6.0000     0.1940     3.8210     3.8210    -0.0000
 25 C      5.8856     6.0000     0.1144     3.8910     3.8910     0.0000
 26 C      6.0920     6.0000    -0.0920     3.9106     3.9106    -0.0000
 27 C      5.7846     6.0000     0.2154     3.8610     3.8610     0.0000
 28 C      6.0617     6.0000    -0.0617     3.9887     3.9887    -0.0000
 29 C      6.1832     6.0000    -0.1832     3.7472     3.7472    -0.0000
 30 C      5.7539     6.0000     0.2461     3.7994     3.7994    -0.0000
 31 C      5.7690     6.0000     0.2310     3.8170     3.8170     0.0000
 32 C      6.0613     6.0000    -0.0613     3.9235     3.9235     0.0000
 33 C      6.0599     6.0000    -0.0599     3.9709     3.9709     0.0000
 34 C      6.0507     6.0000    -0.0507     3.9834     3.9834    -0.0000
 35 C      5.7717     6.0000     0.2283     3.8162     3.8162    -0.0000
 36 C      5.8918     6.0000     0.1082     3.8745     3.8745    -0.0000
 37 C      6.0643     6.0000    -0.0643     3.9177     3.9177    -0.0000
 38 C      5.7685     6.0000     0.2315     3.8018     3.8018    -0.0000
 39 C      6.0581     6.0000    -0.0581     3.9829     3.9829     0.0000
 40 C      6.1811     6.0000    -0.1811     3.7263     3.7263    -0.0000
 41 C      5.7746     6.0000     0.2254     3.8873     3.8873    -0.0000
 42 C      5.8030     6.0000     0.1970     3.8257     3.8257    -0.0000
 43 C      6.0727     6.0000    -0.0727     3.8999     3.8999    -0.0000
 44 C      6.0902     6.0000    -0.0902     3.9858     3.9858     0.0000
 45 C      6.0617     6.0000    -0.0617     3.9919     3.9919     0.0000
 46 C      5.7888     6.0000     0.2112     3.8287     3.8287     0.0000
 47 C      5.8845     6.0000     0.1155     3.8933     3.8933    -0.0000
 48 C      6.0668     6.0000    -0.0668     3.9093     3.9093     0.0000
 49 C      5.7617     6.0000     0.2383     3.8962     3.8962    -0.0000
 50 C      6.0461     6.0000    -0.0461     3.9903     3.9903     0.0000
 51 C      6.1951     6.0000    -0.1951     3.7376     3.7376    -0.0000
 52 H      0.9646     1.0000     0.0354     0.9858     0.9858     0.0000
 53 H      1.0180     1.0000    -0.0180     0.9993     0.9993    -0.0000
 54 H      0.9559     1.0000     0.0441     1.0141     1.0141     0.0000
 55 H      0.9664     1.0000     0.0336     0.9864     0.9864     0.0000
 56 H      0.9507     1.0000     0.0493     0.9695     0.9695    -0.0000
 57 H      0.9527     1.0000     0.0473     0.9823     0.9823     0.0000
 58 H      0.9535     1.0000     0.0465     0.9848     0.9848     0.0000
 59 H      1.0138     1.0000    -0.0138     0.9983     0.9983     0.0000
 60 H      0.9527     1.0000     0.0473     1.0259     1.0259    -0.0000
 61 H      0.8290     1.0000     0.1710     1.0422     1.0422    -0.0000
 62 H      0.8243     1.0000     0.1757     1.0437     1.0437    -0.0000
 63 H      0.9442     1.0000     0.0558     0.9852     0.9852     0.0000
 64 H      1.0188     1.0000    -0.0188     0.9946     0.9946    -0.0000
 65 H      0.9529     1.0000     0.0471     1.0101     1.0101    -0.0000
 66 H      0.9440     1.0000     0.0560     0.9855     0.9855    -0.0000
 67 H      0.9371     1.0000     0.0629     0.9720     0.9720    -0.0000
 68 H      0.9426     1.0000     0.0574     0.9868     0.9868     0.0000
 69 H      0.9434     1.0000     0.0566     0.9828     0.9828     0.0000
 70 H      1.0301     1.0000    -0.0301     0.9940     0.9940    -0.0000
 71 H      0.9547     1.0000     0.0453     1.0058     1.0058    -0.0000
 72 H      0.9284     1.0000     0.0716     0.9835     0.9835     0.0000
 73 H      1.0079     1.0000    -0.0079     1.0009     1.0009     0.0000
 74 H      0.9393     1.0000     0.0607     1.0101     1.0101    -0.0000
 75 H      0.9290     1.0000     0.0710     0.9838     0.9838    -0.0000
 76 H      0.9247     1.0000     0.0753     0.9721     0.9721     0.0000
 77 H      0.9318     1.0000     0.0682     0.9855     0.9855    -0.0000
 78 H      0.9325     1.0000     0.0675     0.9854     0.9854    -0.0000
 79 H      1.0165     1.0000    -0.0165     0.9975     0.9975    -0.0000
 80 H      0.9385     1.0000     0.0615     1.0072     1.0072     0.0000
 81 H      0.9458     1.0000     0.0542     0.9856     0.9856    -0.0000
 82 H      1.0252     1.0000    -0.0252     0.9933     0.9933    -0.0000
 83 H      0.9585     1.0000     0.0415     1.0083     1.0083     0.0000
 84 H      0.9462     1.0000     0.0538     0.9852     0.9852     0.0000
 85 H      0.9394     1.0000     0.0606     0.9716     0.9716    -0.0000
 86 H      0.9447     1.0000     0.0553     0.9839     0.9839     0.0000
 87 H      0.9429     1.0000     0.0571     0.9856     0.9856    -0.0000
 88 H      1.0144     1.0000    -0.0144     0.9968     0.9968     0.0000
 89 H      0.9529     1.0000     0.0471     1.0074     1.0074    -0.0000

  Mayer bond orders larger than 0.100000
B(  0-C ,  1-N ) :   1.0932 B(  0-C , 17-C ) :   1.7204 B(  0-C , 52-H ) :   0.9616 
B(  1-N ,  8-C ) :   1.0960 B(  1-N , 10-C ) :   0.9778 B(  2-C , 12-C ) :   1.4840 
B(  2-C , 16-C ) :   1.3749 B(  2-C , 53-H ) :   0.9728 B(  3-N , 14-C ) :   1.2219 
B(  3-N , 16-C ) :   1.1813 B(  3-N , 61-H ) :   0.8987 B(  4-C ,  6-C ) :   1.2184 
B(  4-C , 17-C ) :   1.2188 B(  4-C , 18-C ) :   1.4768 B(  5-N , 19-C ) :   1.4584 
B(  5-N , 27-C ) :   1.3706 B(  6-C ,  8-C ) :   1.7200 B(  6-C , 54-H ) :   0.8887 
B(  7-N , 30-C ) :   1.1947 B(  7-N , 38-C ) :   1.1899 B(  7-N , 62-H ) :   0.8966 
B(  8-C , 55-H ) :   0.9626 B(  9-N , 41-C ) :   1.3929 B(  9-N , 49-C ) :   1.4267 
B( 10-C , 56-H ) :   0.9775 B( 10-C , 57-H ) :   0.9831 B( 10-C , 58-H ) :   0.9834 
B( 11-N , 20-C ) :   1.1323 B( 11-N , 24-C ) :   1.1078 B( 11-N , 25-C ) :   0.9597 
B( 12-C , 14-C ) :   1.3604 B( 12-C , 59-H ) :   0.9282 B( 13-N , 31-C ) :   1.1628 
B( 13-N , 35-C ) :   1.1604 B( 13-N , 36-C ) :   0.9410 B( 14-C , 18-C ) :   1.1153 
B( 15-N , 42-C ) :   1.1069 B( 15-N , 46-C ) :   1.1239 B( 15-N , 47-C ) :   0.9616 
B( 16-C , 51-C ) :   1.1664 B( 17-C , 60-H ) :   0.8912 B( 18-C , 19-C ) :   1.1149 
B( 19-C , 21-C ) :   1.2522 B( 20-C , 28-C ) :   1.6274 B( 20-C , 63-H ) :   0.9702 
B( 21-C , 26-C ) :   1.5843 B( 21-C , 64-H ) :   0.9314 B( 22-C , 23-C ) :   1.2908 
B( 22-C , 28-C ) :   1.2648 B( 22-C , 29-C ) :   1.2242 B( 23-C , 24-C ) :   1.6187 
B( 23-C , 65-H ) :   0.9703 B( 24-C , 66-H ) :   0.9695 B( 25-C , 67-H ) :   0.9761 
B( 25-C , 68-H ) :   0.9828 B( 25-C , 69-H ) :   0.9823 B( 26-C , 27-C ) :   1.2594 
B( 26-C , 70-H ) :   0.9669 B( 27-C , 29-C ) :   1.2064 B( 28-C , 71-H ) :   0.9720 
B( 29-C , 30-C ) :   1.2483 B( 30-C , 32-C ) :   1.2772 B( 31-C , 39-C ) :   1.5871 
B( 31-C , 72-H ) :   0.9681 B( 32-C , 37-C ) :   1.5818 B( 32-C , 73-H ) :   0.9786 
B( 33-C , 34-C ) :   1.3082 B( 33-C , 39-C ) :   1.3043 B( 33-C , 40-C ) :   1.1743 
B( 34-C , 35-C ) :   1.5843 B( 34-C , 74-H ) :   0.9696 B( 35-C , 75-H ) :   0.9681 
B( 36-C , 76-H ) :   0.9768 B( 36-C , 77-H ) :   0.9815 B( 36-C , 78-H ) :   0.9823 
B( 37-C , 38-C ) :   1.2830 B( 37-C , 79-H ) :   0.9765 B( 38-C , 40-C ) :   1.2355 
B( 39-C , 80-H ) :   0.9705 B( 40-C , 41-C ) :   1.2507 B( 41-C , 43-C ) :   1.1850 
B( 42-C , 50-C ) :   1.6343 B( 42-C , 81-H ) :   0.9697 B( 43-C , 48-C ) :   1.6677 
B( 43-C , 82-H ) :   0.9720 B( 44-C , 45-C ) :   1.2625 B( 44-C , 50-C ) :   1.2714 
B( 44-C , 51-C ) :   1.2632 B( 45-C , 46-C ) :   1.6355 B( 45-C , 83-H ) :   0.9719 
B( 46-C , 84-H ) :   0.9700 B( 47-C , 85-H ) :   0.9762 B( 47-C , 86-H ) :   0.9829 
B( 47-C , 87-H ) :   0.9825 B( 48-C , 49-C ) :   1.1885 B( 48-C , 88-H ) :   0.9749 
B( 49-C , 51-C ) :   1.2443 B( 50-C , 89-H ) :   0.9708 

-------
TIMINGS
-------

Total SCF time: 0 days 0 hours 28 min 30 sec 

Total time                  ....    1710.242 sec
Sum of individual times     ....    1705.469 sec  ( 99.7%)

Fock matrix formation       ....    1677.563 sec  ( 98.1%)
Diagonalization             ....       8.815 sec  (  0.5%)
Density matrix formation    ....       0.552 sec  (  0.0%)
Population analysis         ....       0.607 sec  (  0.0%)
Initial guess               ....       2.515 sec  (  0.1%)
Orbital Transformation      ....       0.000 sec  (  0.0%)
Orbital Orthonormalization  ....       0.000 sec  (  0.0%)
DIIS solution               ....       3.985 sec  (  0.2%)
SOSCF solution              ....      10.135 sec  (  0.6%)

Maximum memory used throughout the entire SCF-calculation: 302.7 MB


           ************************************************************
           *        Program running with 16 parallel MPI-processes    *
           *              working on a common directory               *
           ************************************************************

------------------------------------------------------------------------------
                                ORCA  MP2 
------------------------------------------------------------------------------

Freezing NCore=104 chemical core electrons

----------
MP2 ENERGY (disk based algorithm)
----------

Dimension of the basis                    ...  918
Memory devoted to MP2                     ... 2000 MB   
Data format for buffers                   ... DOUBLE
Compression type for matrix containers    ... UNCOMPRESSED

-------------------------------
PARTIAL EXCHANGE TRANSFORMATION
-------------------------------

Transformation type                        ... one-operator
Generation of integrals (i,mue|j,nue)      ... ON
Generation of integrals (mue,kappa|nue,tau)... OFF
Generation of integrals (i,mue|a,nue)      ... OFF
Dimension of the basis                     ...  918
Number of internal MOs                     ...  127 (  52- 178)
Pair cutoff                                ... 2.500e-12 Eh
Number of AO pairs in the trafo            ... 421821
Total Number of distinct AO pairs          ... 421821
Memory devoted for trafo                   ... 2000.0 MB 
Max. Number of MO pairs treated together   ...  311      
Number Format for Storage                  ... Double (8 Byte)
Integral package used                      ... LIBINT

Starting integral evaluation:
    ... done with AO integral generation
Closing buffer AOK     (38.24 GB; CompressionRatio= 1.33)
Collecting buffer AOK 
Number of MO pairs included in the trafo   ... 8128
------------------------
SORTING OF (i,mue|j,nue)
------------------------

IBATCH = 1 of  2
IBATCH = 2 of  2
Closing buffer KAO     (51.03 GB; CompressionRatio= 1.00)
Collecting buffer KAO 
N(AO-Batches) Done                         ...  86248423 
N(AO-Batches) Skipped                      ...  82338638 
N(IJ)-pairs Skipped                        ...         0 
TOTAL TIME for half transformation         ...  2633.279 sec
AO-integral generation                     ...   212.228 sec
Half transformation                        ...   423.457 sec
K-integral sorting                         ...  1775.631 sec
Process 13:   Internal MO 156
Process 10:   Internal MO 132
Process  4:   Internal MO  84
Process  7:   Internal MO 108

Finished integral transformation - now doing MP2 part

Process  1:   Internal MO  60
OPERATOR COMBINATION   0   0: ij=( 52..178, 52..178)
Process  0:   Internal MO  54
Process  2:   Internal MO  69
Process  1:   Internal MO  63
Process  0:   Internal MO  57
Process  5:   Internal MO  93
Process  3:   Internal MO  78
Process  8:   Internal MO 117
Process  1:   Internal MO  66
Process  2:   Internal MO  72
Process  4:   Internal MO  87
Process 11:   Internal MO 141
Process 14:   Internal MO 165
Process  9:   Internal MO 126
Process  2:   Internal MO  75
Process  3:   Internal MO  81
Process  5:   Internal MO  96
Process  7:   Internal MO 111
Process  4:   Internal MO  90
Process 12:   Internal MO 150
Process 10:   Internal MO 135
Process  6:   Internal MO 102
Process 15:   Internal MO 174
Process  8:   Internal MO 120
Process  5:   Internal MO  99
Process  7:   Internal MO 114
Process  9:   Internal MO 129
Process 11:   Internal MO 144
Process  6:   Internal MO 105
Process 13:   Internal MO 159
Process 12:   Internal MO 153
Process 14:   Internal MO 168
Process  8:   Internal MO 123
Process 10:   Internal MO 138
Process 15:   Internal MO 177
Process 11:   Internal MO 147
Process 13:   Internal MO 162
Process 14:   Internal MO 171
-----------------------------------------------
 MP2 CORRELATION ENERGY   :     -7.288881950 Eh
-----------------------------------------------


-------
TIMINGS
-------
Total time                : 2964.795 sec
Integral trafo            : 2635.386 sec ( 88.9%)
K(i,j)                    :    9.039 sec (  0.3%)
T(i,j)                    :    0.323 sec (  0.0%)

---------------------------------------
MP2 TOTAL ENERGY:    -2130.795325133 Eh
---------------------------------------

Maximum memory used throughout the entire MP2-calculation: 2275.3 MB

-------------------------   --------------------
FINAL SINGLE POINT ENERGY     -2130.795325133162
-------------------------   --------------------


                            ***************************************
                            *     ORCA property calculations      *
                            ***************************************


  WARNING: The energy has been calculated at the MP2 level but the densities
           used in the property calculations are still SCF densities
           MP2 response densities have not been calculated 
           use %mp2 Density relaxed end
           or  %mp2 Density unrelaxed end

                                    ---------------------
                                    Active property flags
                                    ---------------------
   (+) Dipole Moment


------------------------------------------------------------------------------
                       ORCA ELECTRIC PROPERTIES CALCULATION
------------------------------------------------------------------------------

Dipole Moment Calculation                       ... on
Quadrupole Moment Calculation                   ... off
Polarizability Calculation                      ... off
GBWName                                         ... /scratch/allen/tmpyp4_amber_gaff2/conf1/conf1/Conf170.orca.gbw
Electron density                                ... /scratch/allen/tmpyp4_amber_gaff2/conf1/conf1/Conf170.orca.scfp
The origin for moment calculation is the CENTER OF MASS  = ( 0.003446, -0.001776  0.000844)

-------------
DIPOLE MOMENT
-------------
                                X             Y             Z
Electronic contribution:      2.69440      -4.47532      -0.21482
Nuclear contribution   :      0.05514       0.22386       0.21200
                        -----------------------------------------
Total Dipole Moment    :      2.74954      -4.25146      -0.00282
                        -----------------------------------------
Magnitude (a.u.)       :      5.06309
Magnitude (Debye)      :     12.86936



--------------------
Rotational spectrum 
--------------------
 
Rotational constants in cm-1:     0.001501     0.001479     0.000760 
Rotational constants in MHz :    45.007724    44.353434    22.783966 

 Dipole components along the rotational axes: 
x,y,z [a.u.] :     3.463367    -3.693236    -0.000204 
x,y,z [Debye]:     8.803180    -9.387461    -0.000518 

 

Timings for individual modules:

Sum of individual times         ...     4697.453 sec (=  78.291 min)
GTO integral calculation        ...        3.657 sec (=   0.061 min)   0.1 %
SCF iterations                  ...     1711.462 sec (=  28.524 min)  36.4 %
MP2 module                      ...     2982.334 sec (=  49.706 min)  63.5 %
                             ****ORCA TERMINATED NORMALLY****
TOTAL RUN TIME: 0 days 1 hours 18 minutes 20 seconds 923 msec
# of primitive gaussian functions

