
                                 *****************
                                 * O   R   C   A *
                                 *****************

                                            #,                                       
                                            ###                                      
                                            ####                                     
                                            #####                                    
                                            ######                                   
                                           ########,                                 
                                     ,,################,,,,,                         
                               ,,#################################,,                 
                          ,,##########################################,,             
                       ,#########################################, ''#####,          
                    ,#############################################,,   '####,        
                  ,##################################################,,,,####,       
                ,###########''''           ''''###############################       
              ,#####''   ,,,,##########,,,,          '''####'''          '####       
            ,##' ,,,,###########################,,,                        '##       
           ' ,,###''''                  '''############,,,                           
         ,,##''                                '''############,,,,        ,,,,,,###''
      ,#''                                            '''#######################'''  
     '                                                          ''''####''''         
             ,#######,   #######,   ,#######,      ##                                
            ,#'     '#,  ##    ##  ,#'     '#,    #''#        ######   ,####,        
            ##       ##  ##   ,#'  ##            #'  '#       #        #'  '#        
            ##       ##  #######   ##           ,######,      #####,   #    #        
            '#,     ,#'  ##    ##  '#,     ,#' ,#      #,         ##   #,  ,#        
             '#######'   ##     ##  '#######'  #'      '#     #####' # '####'        



                  #######################################################
                  #                        -***-                        #
                  #          Department of theory and spectroscopy      #
                  #    Directorship and core code : Frank Neese         #
                  #        Max Planck Institute fuer Kohlenforschung    #
                  #                Kaiser Wilhelm Platz 1               #
                  #                 D-45470 Muelheim/Ruhr               #
                  #                      Germany                        #
                  #                                                     #
                  #                  All rights reserved                #
                  #                        -***-                        #
                  #######################################################


                         Program Version 5.0.4 -  RELEASE  -


 With contributions from (in alphabetic order):
   Daniel Aravena         : Magnetic Suceptibility
   Michael Atanasov       : Ab Initio Ligand Field Theory (pilot matlab implementation)
   Alexander A. Auer      : GIAO ZORA, VPT2 properties, NMR spectrum
   Ute Becker             : Parallelization
   Giovanni Bistoni       : ED, misc. LED, open-shell LED, HFLD
   Martin Brehm           : Molecular dynamics
   Dmytro Bykov           : SCF Hessian
   Vijay G. Chilkuri      : MRCI spin determinant printing, contributions to CSF-ICE
   Dipayan Datta          : RHF DLPNO-CCSD density
   Achintya Kumar Dutta   : EOM-CC, STEOM-CC
   Dmitry Ganyushin       : Spin-Orbit,Spin-Spin,Magnetic field MRCI
   Miquel Garcia          : C-PCM and meta-GGA Hessian, CC/C-PCM, Gaussian charge scheme
   Yang Guo               : DLPNO-NEVPT2, F12-NEVPT2, CIM, IAO-localization
   Andreas Hansen         : Spin unrestricted coupled pair/coupled cluster methods
   Benjamin Helmich-Paris : MC-RPA, TRAH-SCF, COSX integrals
   Lee Huntington         : MR-EOM, pCC
   Robert Izsak           : Overlap fitted RIJCOSX, COSX-SCS-MP3, EOM
   Marcus Kettner         : VPT2
   Christian Kollmar      : KDIIS, OOCD, Brueckner-CCSD(T), CCSD density, CASPT2, CASPT2-K
   Simone Kossmann        : Meta GGA functionals, TD-DFT gradient, OOMP2, MP2 Hessian
   Martin Krupicka        : Initial AUTO-CI
   Lucas Lang             : DCDCAS
   Marvin Lechner         : AUTO-CI (C++ implementation), FIC-MRCC
   Dagmar Lenk            : GEPOL surface, SMD
   Dimitrios Liakos       : Extrapolation schemes; Compound Job, initial MDCI parallelization
   Dimitrios Manganas     : Further ROCIS development; embedding schemes
   Dimitrios Pantazis     : SARC Basis sets
   Anastasios Papadopoulos: AUTO-CI, single reference methods and gradients
   Taras Petrenko         : DFT Hessian,TD-DFT gradient, ASA, ECA, R-Raman, ABS, FL, XAS/XES, NRVS
   Peter Pinski           : DLPNO-MP2, DLPNO-MP2 Gradient
   Christoph Reimann      : Effective Core Potentials
   Marius Retegan         : Local ZFS, SOC
   Christoph Riplinger    : Optimizer, TS searches, QM/MM, DLPNO-CCSD(T), (RO)-DLPNO pert. Triples
   Tobias Risthaus        : Range-separated hybrids, TD-DFT gradient, RPA, STAB
   Michael Roemelt        : Original ROCIS implementation
   Masaaki Saitow         : Open-shell DLPNO-CCSD energy and density
   Barbara Sandhoefer     : DKH picture change effects
   Avijit Sen             : IP-ROCIS
   Kantharuban Sivalingam : CASSCF convergence, NEVPT2, FIC-MRCI
   Bernardo de Souza      : ESD, SOC TD-DFT
   Georgi Stoychev        : AutoAux, RI-MP2 NMR, DLPNO-MP2 response
   Willem Van den Heuvel  : Paramagnetic NMR
   Boris Wezisla          : Elementary symmetry handling
   Frank Wennmohs         : Technical directorship


 We gratefully acknowledge several colleagues who have allowed us to
 interface, adapt or use parts of their codes:
   Stefan Grimme, W. Hujo, H. Kruse, P. Pracht,  : VdW corrections, initial TS optimization,
                  C. Bannwarth, S. Ehlert          DFT functionals, gCP, sTDA/sTD-DF
   Ed Valeev, F. Pavosevic, A. Kumar             : LibInt (2-el integral package), F12 methods
   Garnet Chan, S. Sharma, J. Yang, R. Olivares  : DMRG
   Ulf Ekstrom                                   : XCFun DFT Library
   Mihaly Kallay                                 : mrcc  (arbitrary order and MRCC methods)
   Jiri Pittner, Ondrej Demel                    : Mk-CCSD
   Frank Weinhold                                : gennbo (NPA and NBO analysis)
   Christopher J. Cramer and Donald G. Truhlar   : smd solvation model
   Lars Goerigk                                  : TD-DFT with DH, B97 family of functionals
   V. Asgeirsson, H. Jonsson                     : NEB implementation
   FAccTs GmbH                                   : IRC, NEB, NEB-TS, DLPNO-Multilevel, CI-OPT
                                                   MM, QMMM, 2- and 3-layer-ONIOM, Crystal-QMMM,
                                                   LR-CPCM, SF, NACMEs, symmetry and pop. for TD-DFT,
                                                   nearIR, NL-DFT gradient (VV10), updates on ESD,
                                                   ML-optimized integration grids
   S Lehtola, MJT Oliveira, MAL Marques          : LibXC Library
   Liviu Ungur et al                             : ANISO software


 Your calculation uses the libint2 library for the computation of 2-el integrals
 For citations please refer to: http://libint.valeyev.net

 Your ORCA version has been built with support for libXC version: 5.1.0
 For citations please refer to: https://tddft.org/programs/libxc/

 This ORCA versions uses:
   CBLAS   interface :  Fast vector & matrix operations
   LAPACKE interface :  Fast linear algebra routines
   SCALAPACK package :  Parallel linear algebra routines
   Shared memory     :  Shared parallel matrices
   BLAS/LAPACK       :  OpenBLAS 0.3.15  USE64BITINT DYNAMIC_ARCH NO_AFFINITY Sandybridge SINGLE_THREADED
        Core in use  :  Sandybridge
   Copyright (c) 2011-2014, The OpenBLAS Project


================================================================================

----- Orbital basis set information -----
Your calculation utilizes the basis: cc-pVDZ 
       H, B-Ne : Obtained from the ccRepo (grant-hill.group.shef.ac.uk/ccrepo) Feb. 2017
                 T. H. Dunning, Jr., J. Chem. Phys. 90, 1007 (1989)
            He : Obtained from the ccRepo (grant-hill.group.shef.ac.uk/ccrepo) Feb. 2017
                 D. E. Woon, T. H. Dunning, Jr., J. Chem. Phys. 100, 2975 (1994)
  Li-Be, Na-Mg : Obtained from the ccRepo (grant-hill.group.shef.ac.uk/ccrepo) Feb. 2017
                 B. P. Prascher, D. E. Woon, K. A. Peterson, T. H. Dunning, Jr., A. K. Wilson, Theor. Chem. Acc. 128, 69 (2011)
         Al-Ar : Obtained from the ccRepo (grant-hill.group.shef.ac.uk/ccrepo) Feb. 2017
                 D. E. Woon, T. H. Dunning, Jr., J. Chem. Phys. 98, 1358 (1993)
            Ca : Obtained from the Peterson Research Group Website (tyr0.chem.wsu.edu/~kipeters) Feb. 2017
                 J. Koput, K. A. Peterson, J. Phys. Chem. 106, 9595 (2002)
         Sc-Zn : Obtained from the ccRepo (grant-hill.group.shef.ac.uk/ccrepo) Feb. 2017
                 N. B. Balabanov, K. A. Peterson, J. Chem. Phys. 123, 064107 (2005)
                 N. B. Balabanov, K. A. Peterson, J. Chem. Phys. 125, 074110 (2006)
         Ga-Kr : Obtained from the ccRepo (grant-hill.group.shef.ac.uk/ccrepo) Feb. 2017
                 A. K. Wilson, D. E. Woon, K. A. Peterson, T. H. Dunning, Jr., J. Chem. Phys. 110, 7667 (1999)

================================================================================
                                        WARNINGS
                       Please study these warnings very carefully!
================================================================================


WARNING: No MP2 level density has been requested!
         To caclulate MP2 level properties use
         %mp2 Density relaxed end
         or
         %mp2 Density unrelaxed end

WARNING: Post HF methods need fully converged wavefunctions
  ===> : Setting SCFConvForced true
         You can overwrite this default with %scf ConvForced false 


INFO   : the flag for use of the SHARK integral package has been found!

================================================================================
                                       INPUT FILE
================================================================================
NAME = /scratch/allen/tmpyp4_amber_gaff2/2.Mdgx/conf11/conf11/Conf319.orca
|  1> ! PAL2
|  2> ! mp2 cc-pvdz TightSCF  NoKeepInts
|  3> 
|  4> %scf
|  5>   MaxCore 2000
|  6> end
|  7> %mp2
|  8>   MaxCore 2000
|  9> end
| 10> * xyz 0 1
| 11>    C       -3.29300         6.30200         0.88900
| 12>    C        1.47400         4.04100         0.05700
| 13>    C       -2.80200         4.09300         0.04900
| 14>    C       -3.94400         4.20200        -0.75900
| 15>    C       -4.71500         5.34700        -0.71900
| 16>    C       -5.21200         7.60300         0.08900
| 17>    C        0.13200         4.30700         0.06100
| 18>    C       -0.56900         3.05600         0.04700
| 19>    C        1.64900         2.61800         0.02300
| 20>    C       -2.48700         5.17900         0.88000
| 21>    N       -4.38700         6.37500         0.09800
| 22>    N        0.38800         2.06700         0.02500
| 23>    N       -2.01000         0.39500        -0.07500
| 24>    N       -0.38800        -2.07400        -0.02700
| 25>    N        2.01000        -0.40100         0.06500
| 26>    C       -1.96000         2.86100         0.02400
| 27>    C       -2.62300         1.61500        -0.01800
| 28>    C       -5.57300        -4.32900         1.06600
| 29>    C       -4.07300         1.47100         0.05600
| 30>    C       -4.10600        -2.75600        -0.02600
| 31>    C       -4.99500        -2.75700        -1.11100
| 32>    C       -6.13200        -3.54200        -1.07600
| 33>    C       -7.65100        -5.11300         0.04000
| 34>    C       -4.32400         0.14100         0.03700
| 35>    C       -3.02500        -0.52000        -0.04800
| 36>    C       -4.42200        -3.56600         1.07500
| 37>    N       -6.40700        -4.31300         0.00100
| 38>    C       -2.86700        -1.92200        -0.04000
| 39>    C       -1.65000        -2.62400        -0.02700
| 40>    C        3.56800        -6.14200        -1.04000
| 41>    C       -1.47600        -4.04900        -0.03400
| 42>    C        2.80300        -4.09900        -0.00800
| 43>    C        3.65700        -4.38400         1.06900
| 44>    C        4.42700        -5.53000         1.05900
| 45>    C        5.24500        -7.58800         0.01400
| 46>    C       -0.13400        -4.31500        -0.02200
| 47>    C        0.56800        -3.06400        -0.02700
| 48>    C        2.77500        -5.01200        -1.07400
| 49>    N        4.37600        -6.39100         0.01700
| 50>    C        1.95900        -2.86900        -0.00900
| 51>    C        2.62100        -1.62200         0.00900
| 52>    C        5.54300         4.33900        -1.13000
| 53>    C        4.07000        -1.47900        -0.09400
| 54>    C        4.10400         2.75100        -0.02100
| 55>    C        5.02700         2.72900         1.03600
| 56>    C        6.16600         3.50900         0.97800
| 57>    C        7.61900         5.15300        -0.11500
| 58>    C        4.32100        -0.14800        -0.09200
| 59>    C        3.02500         0.51400         0.01500
| 60>    C        4.38700         3.58200        -1.11500
| 61>    C        2.86600         1.91600         0.01300
| 62>    N        6.41300         4.29600        -0.09500
| 63>    H       -3.09500         7.15700         1.52300
| 64>    H        2.27400         4.76600         0.08100
| 65>    H       -4.23400         3.40100        -1.42900
| 66>    H       -5.59900         5.48100        -1.33000
| 67>    H       -4.86000         8.26200        -0.70800
| 68>    H       -6.25200         7.32700        -0.08500
| 69>    H       -5.11400         8.09800         1.05500
| 70>    H       -0.33200         5.28200         0.06900
| 71>    H       -1.62600         5.15000         1.53800
| 72>    H        0.18200         1.07200         0.00500
| 73>    H       -0.18300        -1.08000        -0.02100
| 74>    H       -5.86400        -4.96200         1.89500
| 75>    H       -4.79400         2.27200         0.13900
| 76>    H       -4.80000        -2.16000        -1.99400
| 77>    H       -6.84100        -3.58200        -1.89300
| 78>    H       -8.42800        -4.53600         0.54600
| 79>    H       -7.95600        -5.33700        -0.98100
| 80>    H       -7.45600        -6.03700         0.58400
| 81>    H       -5.28700        -0.34400         0.10000
| 82>    H       -3.78000        -3.60100         1.94700
| 83>    H        3.58700        -6.86800        -1.84300
| 84>    H       -2.27600        -4.77400        -0.05000
| 85>    H        3.71400        -3.72400         1.92600
| 86>    H        5.09200        -5.79500         1.87100
| 87>    H        6.20500        -7.32900        -0.43900
| 88>    H        5.39300        -7.91700         1.04200
| 89>    H        4.75900        -8.37300        -0.56400
| 90>    H        0.32900        -5.29000        -0.00800
| 91>    H        2.14600        -4.84200        -1.94000
| 92>    H        5.80800         4.98600        -1.95600
| 93>    H        4.78800        -2.28100        -0.18500
| 94>    H        4.86000         2.11400         1.91200
| 95>    H        6.90100         3.53100         1.77200
| 96>    H        7.38300         6.10900         0.35600
| 97>    H        8.41400         4.65200         0.43500
| 98>    H        7.92100         5.31000        -1.15000
| 99>    H        5.28300         0.33600        -0.17900
|100>    H        3.72000         3.63200        -1.96700
|101> *
|102> 
|103>                          ****END OF INPUT****
================================================================================

                       ****************************
                       * Single Point Calculation *
                       ****************************

---------------------------------
CARTESIAN COORDINATES (ANGSTROEM)
---------------------------------
  C     -3.293000    6.302000    0.889000
  C      1.474000    4.041000    0.057000
  C     -2.802000    4.093000    0.049000
  C     -3.944000    4.202000   -0.759000
  C     -4.715000    5.347000   -0.719000
  C     -5.212000    7.603000    0.089000
  C      0.132000    4.307000    0.061000
  C     -0.569000    3.056000    0.047000
  C      1.649000    2.618000    0.023000
  C     -2.487000    5.179000    0.880000
  N     -4.387000    6.375000    0.098000
  N      0.388000    2.067000    0.025000
  N     -2.010000    0.395000   -0.075000
  N     -0.388000   -2.074000   -0.027000
  N      2.010000   -0.401000    0.065000
  C     -1.960000    2.861000    0.024000
  C     -2.623000    1.615000   -0.018000
  C     -5.573000   -4.329000    1.066000
  C     -4.073000    1.471000    0.056000
  C     -4.106000   -2.756000   -0.026000
  C     -4.995000   -2.757000   -1.111000
  C     -6.132000   -3.542000   -1.076000
  C     -7.651000   -5.113000    0.040000
  C     -4.324000    0.141000    0.037000
  C     -3.025000   -0.520000   -0.048000
  C     -4.422000   -3.566000    1.075000
  N     -6.407000   -4.313000    0.001000
  C     -2.867000   -1.922000   -0.040000
  C     -1.650000   -2.624000   -0.027000
  C      3.568000   -6.142000   -1.040000
  C     -1.476000   -4.049000   -0.034000
  C      2.803000   -4.099000   -0.008000
  C      3.657000   -4.384000    1.069000
  C      4.427000   -5.530000    1.059000
  C      5.245000   -7.588000    0.014000
  C     -0.134000   -4.315000   -0.022000
  C      0.568000   -3.064000   -0.027000
  C      2.775000   -5.012000   -1.074000
  N      4.376000   -6.391000    0.017000
  C      1.959000   -2.869000   -0.009000
  C      2.621000   -1.622000    0.009000
  C      5.543000    4.339000   -1.130000
  C      4.070000   -1.479000   -0.094000
  C      4.104000    2.751000   -0.021000
  C      5.027000    2.729000    1.036000
  C      6.166000    3.509000    0.978000
  C      7.619000    5.153000   -0.115000
  C      4.321000   -0.148000   -0.092000
  C      3.025000    0.514000    0.015000
  C      4.387000    3.582000   -1.115000
  C      2.866000    1.916000    0.013000
  N      6.413000    4.296000   -0.095000
  H     -3.095000    7.157000    1.523000
  H      2.274000    4.766000    0.081000
  H     -4.234000    3.401000   -1.429000
  H     -5.599000    5.481000   -1.330000
  H     -4.860000    8.262000   -0.708000
  H     -6.252000    7.327000   -0.085000
  H     -5.114000    8.098000    1.055000
  H     -0.332000    5.282000    0.069000
  H     -1.626000    5.150000    1.538000
  H      0.182000    1.072000    0.005000
  H     -0.183000   -1.080000   -0.021000
  H     -5.864000   -4.962000    1.895000
  H     -4.794000    2.272000    0.139000
  H     -4.800000   -2.160000   -1.994000
  H     -6.841000   -3.582000   -1.893000
  H     -8.428000   -4.536000    0.546000
  H     -7.956000   -5.337000   -0.981000
  H     -7.456000   -6.037000    0.584000
  H     -5.287000   -0.344000    0.100000
  H     -3.780000   -3.601000    1.947000
  H      3.587000   -6.868000   -1.843000
  H     -2.276000   -4.774000   -0.050000
  H      3.714000   -3.724000    1.926000
  H      5.092000   -5.795000    1.871000
  H      6.205000   -7.329000   -0.439000
  H      5.393000   -7.917000    1.042000
  H      4.759000   -8.373000   -0.564000
  H      0.329000   -5.290000   -0.008000
  H      2.146000   -4.842000   -1.940000
  H      5.808000    4.986000   -1.956000
  H      4.788000   -2.281000   -0.185000
  H      4.860000    2.114000    1.912000
  H      6.901000    3.531000    1.772000
  H      7.383000    6.109000    0.356000
  H      8.414000    4.652000    0.435000
  H      7.921000    5.310000   -1.150000
  H      5.283000    0.336000   -0.179000
  H      3.720000    3.632000   -1.967000

----------------------------
CARTESIAN COORDINATES (A.U.)
----------------------------
  NO LB      ZA    FRAG     MASS         X           Y           Z
   0 C     6.0000    0    12.011   -6.222868   11.909054    1.679967
   1 C     6.0000    0    12.011    2.785456    7.636383    0.107714
   2 C     6.0000    0    12.011   -5.295013    7.734649    0.092597
   3 C     6.0000    0    12.011   -7.453080    7.940629   -1.434302
   4 C     6.0000    0    12.011   -8.910059   10.104366   -1.358713
   5 C     6.0000    0    12.011   -9.849253   14.367588    0.168186
   6 C     6.0000    0    12.011    0.249444    8.139050    0.115273
   7 C     6.0000    0    12.011   -1.075254    5.775003    0.088817
   8 C     6.0000    0    12.011    3.116158    4.947303    0.043464
   9 C     6.0000    0    12.011   -4.699749    9.786892    1.662959
  10 N     7.0000    0    14.007   -8.290229   12.047004    0.185193
  11 N     7.0000    0    14.007    0.733214    3.906064    0.047243
  12 N     7.0000    0    14.007   -3.798350    0.746442   -0.141729
  13 N     7.0000    0    14.007   -0.733214   -3.919292   -0.051023
  14 N     7.0000    0    14.007    3.798350   -0.757780    0.122832
  15 C     6.0000    0    12.011   -3.703863    5.406506    0.045353
  16 C     6.0000    0    12.011   -4.956752    3.051908   -0.034015
  17 C     6.0000    0    12.011  -10.531444   -8.180624    2.014448
  18 C     6.0000    0    12.011   -7.696855    2.779787    0.105825
  19 C     6.0000    0    12.011   -7.759216   -5.208085   -0.049133
  20 C     6.0000    0    12.011   -9.439182   -5.209975   -2.099486
  21 C     6.0000    0    12.011  -11.587801   -6.693410   -2.033345
  22 C     6.0000    0    12.011  -14.458295   -9.662170    0.075589
  23 C     6.0000    0    12.011   -8.171176    0.266451    0.069920
  24 C     6.0000    0    12.011   -5.716422   -0.982658   -0.090707
  25 C     6.0000    0    12.011   -8.356369   -6.738763    2.031456
  26 N     7.0000    0    14.007  -12.107475   -8.150389    0.001890
  27 C     6.0000    0    12.011   -5.417845   -3.632054   -0.075589
  28 C     6.0000    0    12.011   -3.118048   -4.958641   -0.051023
  29 C     6.0000    0    12.011    6.742543  -11.606698   -1.965315
  30 C     6.0000    0    12.011   -2.789236   -7.651501   -0.064251
  31 C     6.0000    0    12.011    5.296902   -7.745987   -0.015118
  32 C     6.0000    0    12.011    6.910728   -8.284559    2.020117
  33 C     6.0000    0    12.011    8.365818  -10.450186    2.001220
  34 C     6.0000    0    12.011    9.911614  -14.339242    0.026456
  35 C     6.0000    0    12.011   -0.253223   -8.154168   -0.041574
  36 C     6.0000    0    12.011    1.073364   -5.790121   -0.051023
  37 C     6.0000    0    12.011    5.243990   -9.471307   -2.029566
  38 N     7.0000    0    14.007    8.269442  -12.077240    0.032125
  39 C     6.0000    0    12.011    3.701973   -5.421624   -0.017008
  40 C     6.0000    0    12.011    4.952972   -3.065136    0.017008
  41 C     6.0000    0    12.011   10.474752    8.199522   -2.135391
  42 C     6.0000    0    12.011    7.691185   -2.794905   -0.177634
  43 C     6.0000    0    12.011    7.755436    5.198637   -0.039684
  44 C     6.0000    0    12.011    9.499653    5.157063    1.957756
  45 C     6.0000    0    12.011   11.652051    6.631049    1.848152
  46 C     6.0000    0    12.011   14.397823    9.737759   -0.217319
  47 C     6.0000    0    12.011    8.165507   -0.279679   -0.173855
  48 C     6.0000    0    12.011    5.716422    0.971319    0.028346
  49 C     6.0000    0    12.011    8.290229    6.768999   -2.107045
  50 C     6.0000    0    12.011    5.415955    3.620715    0.024566
  51 N     7.0000    0    14.007   12.118814    8.118263   -0.179524
  52 H     1.0000    0     1.008   -5.848702   13.524770    2.878053
  53 H     1.0000    0     1.008    4.297237    9.006435    0.153068
  54 H     1.0000    0     1.008   -8.001100    6.426959   -2.700419
  55 H     1.0000    0     1.008  -10.580577   10.357589   -2.513336
  56 H     1.0000    0     1.008   -9.184069   15.612917   -1.337926
  57 H     1.0000    0     1.008  -11.814568   13.846023   -0.160627
  58 H     1.0000    0     1.008   -9.664059   15.303002    1.993661
  59 H     1.0000    0     1.008   -0.627389    9.981533    0.130391
  60 H     1.0000    0     1.008   -3.072695    9.732090    2.906399
  61 H     1.0000    0     1.008    0.343930    2.025786    0.009449
  62 H     1.0000    0     1.008   -0.345820   -2.040904   -0.039684
  63 H     1.0000    0     1.008  -11.081354   -9.376821    3.581031
  64 H     1.0000    0     1.008   -9.059347    4.293458    0.262672
  65 H     1.0000    0     1.008   -9.070685   -4.081808   -3.768114
  66 H     1.0000    0     1.008  -12.927616   -6.768999   -3.577252
  67 H     1.0000    0     1.008  -15.926612   -8.571798    1.031790
  68 H     1.0000    0     1.008  -15.034661  -10.085468   -1.853821
  69 H     1.0000    0     1.008  -14.089798  -11.408277    1.103600
  70 H     1.0000    0     1.008   -9.990982   -0.650066    0.188973
  71 H     1.0000    0     1.008   -7.143165   -6.804904    3.679297
  72 H     1.0000    0     1.008    6.778448  -12.978639   -3.482765
  73 H     1.0000    0     1.008   -4.301017   -9.021553   -0.094486
  74 H     1.0000    0     1.008    7.018443   -7.037340    3.639613
  75 H     1.0000    0     1.008    9.622485  -10.950963    3.535678
  76 H     1.0000    0     1.008   11.725751  -13.849803   -0.829590
  77 H     1.0000    0     1.008   10.191293  -14.960962    1.969095
  78 H     1.0000    0     1.008    8.993207  -15.822677   -1.065806
  79 H     1.0000    0     1.008    0.621720   -9.996651   -0.015118
  80 H     1.0000    0     1.008    4.055352   -9.150054   -3.666069
  81 H     1.0000    0     1.008   10.975529    9.422175   -3.696304
  82 H     1.0000    0     1.008    9.048009   -4.310465   -0.349599
  83 H     1.0000    0     1.008    9.184069    3.994881    3.613156
  84 H     1.0000    0     1.008   13.041000    6.672623    3.348595
  85 H     1.0000    0     1.008   13.951848   11.544337    0.672743
  86 H     1.0000    0     1.008   15.900156    8.791006    0.822031
  87 H     1.0000    0     1.008   14.968521   10.034446   -2.173185
  88 H     1.0000    0     1.008    9.983423    0.634948   -0.338261
  89 H     1.0000    0     1.008    7.029781    6.863485   -3.717091

--------------------------------
INTERNAL COORDINATES (ANGSTROEM)
--------------------------------
 C      0   0   0     0.000000000000     0.00000000     0.00000000
 C      1   0   0     5.341220272559     0.00000000     0.00000000
 C      1   2   0     2.413785823142    51.45332069     0.00000000
 C      3   1   2     1.403178178280    87.92248347   214.13079376
 C      4   3   1     1.380965604206   120.13996732     0.10111467
 C      5   4   3     2.447326909099   152.53009561     1.75293988
 C      2   1   3     1.368114030335    16.62130733    12.23817486
 C      7   2   1     1.434084376876   108.05010202   211.68555470
 C      2   1   3     1.434123425651   122.18320818   336.98126119
 C      1   2   3     1.382333534282    30.08329866    33.96897945
 N      1   2   3     1.351978550126   130.83720028   312.14904904
 N      9   2   1     1.376127174356   106.58526707     9.24834807
 N     12   9   2     2.925062050624   168.53581413   171.12065651
 N     13  12   9     2.954513327098    91.55032014    11.12112580
 N     14  13  12     2.925371258490    88.43092389   359.84326247
 C      8   7   2     1.404790019896   127.24786865   181.11170171
 C     13  12   9     1.366535034311    81.72106996   188.00453233
 C     14  13  12     5.758810554272    80.56209567   166.76250791
 C     17  13  12     1.459010623676   111.08861209   183.82872609
 C     18  14  13     2.412235892279    27.27532823    36.33507194
 C     20  18  14     1.402692767501    87.95206320   148.94598259
 C     21  20  18     1.382106725257   120.14573887   359.70382047
 C     18  14  13     2.446510985056   144.15733107    82.80075377
 C     19  17  13     1.353610726908   106.29293361   359.75308708
 C     13  12   9     1.366813447402   172.21332906    33.46711076
 C     18  14  13     1.380960173213    15.08449437   309.23336894
 N     22  21  20     1.352773077792   120.73759875     0.27865223
 C     25  13  17     1.410897586645   125.60330303   182.37774668
 C     14  13  12     1.376642291955    80.24689249   177.85461986
 C     14  13  12     5.764089607215   164.51507311   312.20821879
 C     29  14  13     1.435600919476   106.58649366   178.76395472
 C     30  14  13     2.413316804732    27.10625047    82.12560436
 C     32  30  14     1.403734305344    87.90059683   149.76154742
 C     33  32  30     1.380694028378   120.14881443   359.74174632
 C     34  33  32     2.448777858443   152.49203239     2.45173620
 C     31  29  14     1.368160809262   108.16950133     0.70383075
 C     14  13  12     1.376239804685   169.26375223   353.09862627
 C     30  14  13     1.380907310430    14.68948582   353.70041132
 N     34  33  32     1.352658863128   120.85575621     0.19603406
 C     37  14  29     1.404717053360   126.01551127   180.90772073
 C     15  14  13     1.366491126938    81.61824056   183.09049352
 C      2   1   3     4.249062720177   150.28461783   143.93423757
 C     41  15  14     1.459677704153   111.05201287   175.08990246
 C     42   2   1     2.412953791518    41.78584867   167.38682143
 C     44  42   2     1.403446472082    87.95153797   233.97558675
 C     45  44  42     1.381696421071   120.11137308     0.19721020
 C     42   2   1     2.450019795838   135.97209175    77.70167054
 C     43  41  15     1.354461516618   106.26758155     0.30894352
 C     15  14  13     1.367461151185   171.87382904   332.35056460
 C     42   2   1     1.381886391857    32.59078432   216.24210063
 C      9   2   1     1.404988612053   126.98745415   190.25268560
 N     42   2   1     1.352765315936   113.57249190   105.43825973
 H      1   2   3     1.082674928129   105.20603752   164.10131166
 H      2   1   3     1.079907866440   111.93216263   166.08012998
 H      4   3   1     1.083790108831   121.08735580   179.56211523
 H      5   4   3     1.082927975444   122.81991131   179.41793173
 H      6   5   4     1.092425741183   104.46430481    99.99512165
 H      6   5   4     1.089977981429    84.70072347   209.42050663
 H      6   5   4     1.089855495008   133.87251881   322.23181965
 H      7   2   1     1.079807853278   126.66122480    31.92396848
 H     10   1   2     1.084032287342   118.74355123    61.52665240
 H     12   9   2     1.016297692608   125.29023241   180.00180175
 H     14  13  12     1.014936943854    44.97226959   359.42596618
 H     18  14  13     1.082871645210   128.03556573   234.20482432
 H     19  17  13     1.080893611786   126.41830519   178.11313280
 H     21  20  18     1.083569563987   121.05669627   180.67006309
 H     22  21  20     1.082483256222   122.73097286   180.59748951
 H     23  18  14     1.092105306278   103.92715769   234.93429879
 H     23  18  14     1.088871893291   134.19244188    12.25587044
 H     23  18  14     1.089833473518    84.85857450   125.45241208
 H     24  19  17     1.080075460327   127.28078426   178.44613241
 H     26  18  14     1.083408048706   118.76995697   244.94906660
 H     30  14  13     1.082703098730   127.99711412   279.66882698
 H     31  29  14     1.079759695488   125.22293469   180.92530585
 H     33  32  30     1.083188810873   121.01964473   180.74284758
 H     34  33  32     1.082494341787   122.70821597   180.59516895
 H     35  34  33     1.092652735319   105.73575241    97.19771933
 H     35  34  33     1.089462711615    84.05943581   206.43036958
 H     35  34  33     1.089268102902   133.08365142   318.50306270
 H     36  31  29     1.079439669458   126.61599965   178.98859863
 H     38  30  73     1.083742127999   118.77264435   359.90091293
 H     42   2   1     1.082178358682   119.31790784   322.06979018
 H     43  41  15     1.080281907652   126.36969097   182.06329380
 H     45  44  42     1.083277434455   121.10105945   179.58025624
 H     46  45  44     1.082194529648   122.72144639   179.46906377
 H     47  42   2     1.091546151109   106.65128841   315.16475048
 H     47  42   2     1.088818625851   132.46019523    94.52397119
 H     47  42   2     1.089531091801    83.63838232   206.04504406
 H     48  43  41     1.080402239909   127.23657387   181.62955349
 H     50  42   2     1.083186502870   118.77001737    94.71359229

---------------------------
INTERNAL COORDINATES (A.U.)
---------------------------
 C      0   0   0     0.000000000000     0.00000000     0.00000000
 C      1   0   0    10.093443536086     0.00000000     0.00000000
 C      1   2   0     4.561394151680    51.45332069     0.00000000
 C      3   1   2     2.651622474043    87.92248347   214.13079376
 C      4   3   1     2.609646792314   120.13996732     0.10111467
 C      5   4   3     4.624777618373   152.53009561     1.75293988
 C      2   1   3     2.585360837309    16.62130733    12.23817486
 C      7   2   1     2.710026725231   108.05010202   211.68555470
 C      2   1   3     2.710100516721   122.18320818   336.98126119
 C      1   2   3     2.612231805528    30.08329866    33.96897945
 N      1   2   3     2.554869198674   130.83720028   312.14904904
 N      9   2   1     2.600503484979   106.58526707     9.24834807
 N     12   9   2     5.527566200405   168.53581413   171.12065651
 N     13  12   9     5.583221047236    91.55032014    11.12112580
 N     14  13  12     5.528150518591    88.43092389   359.84326247
 C      8   7   2     2.654668413270   127.24786865   181.11170171
 C     13  12   9     2.582376967257    81.72106996   188.00453233
 C     14  13  12    10.882574804710    80.56209567   166.76250791
 C     17  13  12     2.757130505230   111.08861209   183.82872609
 C     18  14  13     4.558465206823    27.27532823    36.33507194
 C     20  18  14     2.650705180609    87.95206320   148.94598259
 C     21  20  18     2.611803198586   120.14573887   359.70382047
 C     18  14  13     4.623235745386   144.15733107    82.80075377
 C     19  17  13     2.557953565794   106.29293361   359.75308708
 C     13  12   9     2.582903091751   172.21332906    33.46711076
 C     18  14  13     2.609636529225    15.08449437   309.23336894
 N     22  21  20     2.556370638369   120.73759875     0.27865223
 C     25  13  17     2.666210041769   125.60330303   182.37774668
 C     14  13  12     2.601476916169    80.24689249   177.85461986
 C     14  13  12    10.892550769017   164.51507311   312.20821879
 C     29  14  13     2.712892575415   106.58649366   178.76395472
 C     30  14  13     4.560507835333    27.10625047    82.12560436
 C     32  30  14     2.652673401891    87.90059683   149.76154742
 C     33  32  30     2.609133588376   120.14881443   359.74174632
 C     34  33  32     4.627519515267   152.49203239     2.45173620
 C     31  29  14     2.585449236669   108.16950133     0.70383075
 C     14  13  12     2.600716325456   169.26375223   353.09862627
 C     30  14  13     2.609536633043    14.68948582   353.70041132
 N     34  33  32     2.556154803934   120.85575621     0.19603406
 C     37  14  29     2.654530526499   126.01551127   180.90772073
 C     15  14  13     2.582293994346    81.61824056   183.09049352
 C      2   1   3     8.029564866989   150.28461783   143.93423757
 C     41  15  14     2.758391104639   111.05201287   175.08990246
 C     42   2   1     4.559821839776    41.78584867   167.38682143
 C     44  42   2     2.652129475853    87.95153797   233.97558675
 C     45  44  42     2.611027836043   120.11137308     0.19721020
 C     42   2   1     4.629866436820   135.97209175    77.70167054
 C     43  41  15     2.559561325344   106.26758155     0.30894352
 C     15  14  13     2.584127074516   171.87382904   332.35056460
 C     42   2   1     2.611386828803    32.59078432   216.24210063
 C      9   2   1     2.655043698059   126.98745415   190.25268560
 N     42   2   1     2.556355970587   113.57249190   105.43825973
 H      1   2   3     2.045959106227   105.20603752   164.10131166
 H      2   1   3     2.040730117440   111.93216263   166.08012998
 H      4   3   1     2.048066492343   121.08735580   179.56211523
 H      5   4   3     2.046437296352   122.81991131   179.41793173
 H      6   5   4     2.064385472482   104.46430481    99.99512165
 H      6   5   4     2.059759876905    84.70072347   209.42050663
 H      6   5   4     2.059528411115   133.87251881   322.23181965
 H      7   2   1     2.040541119952   126.66122480    31.92396848
 H     10   1   2     2.048524143405   118.74355123    61.52665240
 H     12   9   2     1.920524309565   125.29023241   180.00180175
 H     14  13  12     1.917952867083    44.97226959   359.42596618
 H     18  14  13     2.046330847636   128.03556573   234.20482432
 H     19  17  13     2.042592906181   126.41830519   178.11313280
 H     21  20  18     2.047649722989   121.05669627   180.67006309
 H     22  21  20     2.045596898814   122.73097286   180.59748951
 H     23  18  14     2.063779938267   103.92715769   234.93429879
 H     23  18  14     2.057669673245   134.19244188    12.25587044
 H     23  18  14     2.059486796529    84.85857450   125.45241208
 H     24  19  17     2.041046823986   127.28078426   178.44613241
 H     26  18  14     2.047344503340   118.76995697   244.94906660
 H     30  14  13     2.046012340948   127.99711412   279.66882698
 H     31  29  14     2.040450114918   125.22293469   180.92530585
 H     33  32  30     2.046930203877   121.01964473   180.74284758
 H     34  33  32     2.045617847496   122.70821597   180.59516895
 H     35  34  33     2.064814429233   105.73575241    97.19771933
 H     35  34  33     2.058786158072    84.05943581   206.43036958
 H     35  34  33     2.058418400901   133.08365142   318.50306270
 H     36  31  29     2.039845353366   126.61599965   178.98859863
 H     38  30  73     2.047975821711   118.77264435   359.90091293
 H     42   2   1     2.045020725966   119.31790784   322.06979018
 H     43  41  15     2.041436952892   126.36969097   182.06329380
 H     45  44  42     2.047097678177   121.10105945   179.58025624
 H     46  45  44     2.045051284662   122.72144639   179.46906377
 H     47  42   2     2.062723288131   106.65128841   315.16475048
 H     47  42   2     2.057569012371   132.46019523    94.52397119
 H     47  42   2     2.058915377895    83.63838232   206.04504406
 H     48  43  41     2.041664347903   127.23657387   181.62955349
 H     50  42   2     2.046925842384   118.77001737    94.71359229

---------------------
BASIS SET INFORMATION
---------------------
There are 3 groups of distinct atoms

 Group   1 Type C   : 17s4p1d contracted to 3s2p1d pattern {881/31/1}
 Group   2 Type N   : 17s4p1d contracted to 3s2p1d pattern {881/31/1}
 Group   3 Type H   : 4s1p contracted to 2s1p pattern {31/1}

Atom   0C    basis set group =>   1
Atom   1N    basis set group =>   2
Atom   2C    basis set group =>   1
Atom   3N    basis set group =>   2
Atom   4C    basis set group =>   1
Atom   5N    basis set group =>   2
Atom   6C    basis set group =>   1
Atom   7N    basis set group =>   2
Atom   8C    basis set group =>   1
Atom   9N    basis set group =>   2
Atom  10C    basis set group =>   1
Atom  11N    basis set group =>   2
Atom  12C    basis set group =>   1
Atom  13N    basis set group =>   2
Atom  14C    basis set group =>   1
Atom  15N    basis set group =>   2
Atom  16C    basis set group =>   1
Atom  17C    basis set group =>   1
Atom  18C    basis set group =>   1
Atom  19C    basis set group =>   1
Atom  20C    basis set group =>   1
Atom  21C    basis set group =>   1
Atom  22C    basis set group =>   1
Atom  23C    basis set group =>   1
Atom  24C    basis set group =>   1
Atom  25C    basis set group =>   1
Atom  26C    basis set group =>   1
Atom  27C    basis set group =>   1
Atom  28C    basis set group =>   1
Atom  29C    basis set group =>   1
Atom  30C    basis set group =>   1
Atom  31C    basis set group =>   1
Atom  32C    basis set group =>   1
Atom  33C    basis set group =>   1
Atom  34C    basis set group =>   1
Atom  35C    basis set group =>   1
Atom  36C    basis set group =>   1
Atom  37C    basis set group =>   1
Atom  38C    basis set group =>   1
Atom  39C    basis set group =>   1
Atom  40C    basis set group =>   1
Atom  41C    basis set group =>   1
Atom  42C    basis set group =>   1
Atom  43C    basis set group =>   1
Atom  44C    basis set group =>   1
Atom  45C    basis set group =>   1
Atom  46C    basis set group =>   1
Atom  47C    basis set group =>   1
Atom  48C    basis set group =>   1
Atom  49C    basis set group =>   1
Atom  50C    basis set group =>   1
Atom  51C    basis set group =>   1
Atom  52H    basis set group =>   3
Atom  53H    basis set group =>   3
Atom  54H    basis set group =>   3
Atom  55H    basis set group =>   3
Atom  56H    basis set group =>   3
Atom  57H    basis set group =>   3
Atom  58H    basis set group =>   3
Atom  59H    basis set group =>   3
Atom  60H    basis set group =>   3
Atom  61H    basis set group =>   3
Atom  62H    basis set group =>   3
Atom  63H    basis set group =>   3
Atom  64H    basis set group =>   3
Atom  65H    basis set group =>   3
Atom  66H    basis set group =>   3
Atom  67H    basis set group =>   3
Atom  68H    basis set group =>   3
Atom  69H    basis set group =>   3
Atom  70H    basis set group =>   3
Atom  71H    basis set group =>   3
Atom  72H    basis set group =>   3
Atom  73H    basis set group =>   3
Atom  74H    basis set group =>   3
Atom  75H    basis set group =>   3
Atom  76H    basis set group =>   3
Atom  77H    basis set group =>   3
Atom  78H    basis set group =>   3
Atom  79H    basis set group =>   3
Atom  80H    basis set group =>   3
Atom  81H    basis set group =>   3
Atom  82H    basis set group =>   3
Atom  83H    basis set group =>   3
Atom  84H    basis set group =>   3
Atom  85H    basis set group =>   3
Atom  86H    basis set group =>   3
Atom  87H    basis set group =>   3
Atom  88H    basis set group =>   3
Atom  89H    basis set group =>   3


           ************************************************************
           *        Program running with 8 parallel MPI-processes     *
           *              working on a common directory               *
           ************************************************************
------------------------------------------------------------------------------
                           ORCA GTO INTEGRAL CALCULATION
------------------------------------------------------------------------------
------------------------------------------------------------------------------
                   ___                                                        
                  /   \      - P O W E R E D   B Y -                         
                 /     \                                                     
                 |  |  |   _    _      __       _____    __    __             
                 |  |  |  | |  | |    /  \     |  _  \  |  |  /  |          
                  \  \/   | |  | |   /    \    | | | |  |  | /  /          
                 / \  \   | |__| |  /  /\  \   | |_| |  |  |/  /          
                |  |  |   |  __  | /  /__\  \  |    /   |      \           
                |  |  |   | |  | | |   __   |  |    \   |  |\   \          
                \     /   | |  | | |  |  |  |  | |\  \  |  | \   \       
                 \___/    |_|  |_| |__|  |__|  |_| \__\ |__|  \__/        
                                                                              
                      - O R C A' S   B I G   F R I E N D -                    
                                      &                                       
                       - I N T E G R A L  F E E D E R -                       
                                                                              
 v1 FN, 2020, v2 2021                                                         
------------------------------------------------------------------------------


Reading SHARK input file /scratch/chu_02/allen/tmpyp4_amber_gaff2/conf1/conf1/Conf319.orca.SHARKINP.tmp ... ok
----------------------
SHARK INTEGRAL PACKAGE
----------------------

Number of atoms                             ...     90
Number of basis functions                   ...   1230
Number of shells                            ...    738
Maximum angular momentum                    ...      2
Integral batch strategy                     ... SHARK/LIBINT Hybrid
RI-J (if used) integral strategy            ... SPLIT-RIJ (Revised 2003 algorithm where possible)
Printlevel                                  ...      1
Contraction scheme used                     ... PARTIAL GENERAL contraction
Coulomb Range Separation                    ... NOT USED
Exchange Range Separation                   ... NOT USED
Finite Nucleus Model                        ... NOT USED
Auxiliary Coulomb fitting basis             ... NOT available
Auxiliary J/K fitting basis                 ... NOT available
Auxiliary Correlation fitting basis         ... NOT available
Auxiliary 'external' fitting basis          ... NOT available
Integral threshold                          ...     2.500000e-11
Primitive cut-off                           ...     2.500000e-12
Primitive pair pre-selection threshold      ...     2.500000e-12

Calculating pre-screening integrals         ... done (  0.1 sec) Dimension = 738
Calculating pre-screening integrals (ORCA)  ... done (  0.3 sec) Dimension = 426
Organizing shell pair data                  ... done (  0.6 sec)
Shell pair information
Total number of shell pairs                 ...    272691
Shell pairs after pre-screening             ...     71627
Total number of primitive shell pairs       ...    422091
Primitive shell pairs kept                  ...     92413
          la=0 lb=0:  29411 shell pairs
          la=1 lb=0:  25979 shell pairs
          la=1 lb=1:   4706 shell pairs
          la=2 lb=0:   7879 shell pairs
          la=2 lb=1:   3122 shell pairs
          la=2 lb=2:    530 shell pairs

Calculating one electron integrals          ... done (  0.2 sec)
Calculating Nuclear repulsion               ... done (  0.0 sec) ENN=   6228.374709396709 Eh

SHARK setup successfully completed in   1.8 seconds

Maximum memory used throughout the entire GTOINT-calculation: 99.0 MB


           ************************************************************
           *        Program running with 8 parallel MPI-processes     *
           *              working on a common directory               *
           ************************************************************
-------------------------------------------------------------------------------
                                 ORCA SCF
-------------------------------------------------------------------------------

------------
SCF SETTINGS
------------
Hamiltonian:
 Ab initio Hamiltonian  Method          .... Hartree-Fock(GTOs)


General Settings:
 Integral files         IntName         .... /scratch/chu_02/allen/tmpyp4_amber_gaff2/conf1/conf1/Conf319.orca
 Hartree-Fock type      HFTyp           .... RHF
 Total Charge           Charge          ....    0
 Multiplicity           Mult            ....    1
 Number of Electrons    NEL             ....  358
 Basis Dimension        Dim             ....  918
 Nuclear Repulsion      ENuc            ....   6228.3747093967 Eh

Convergence Acceleration:
 DIIS                   CNVDIIS         .... on
   Start iteration      DIISMaxIt       ....    12
   Startup error        DIISStart       ....  0.200000
   # of expansion vecs  DIISMaxEq       ....     5
   Bias factor          DIISBfac        ....   1.050
   Max. coefficient     DIISMaxC        ....  10.000
 Trust-Rad. Augm. Hess. CNVTRAH         .... auto
   Auto Start mean grad. ratio tolernc. ....  1.125000
   Auto Start start iteration           ....    20
   Auto Start num. interpolation iter.  ....    10
   Max. Number of Micro iterations      ....    16
   Max. Number of Macro iterations      .... Maxiter - #DIIS iter
   Number of Davidson start vectors     ....     2
   Converg. threshold I  (grad. norm)   ....   1.000e-05
   Converg. threshold II (energy diff.) ....   1.000e-08
   Grad. Scal. Fac. for Micro threshold ....   0.100
   Minimum threshold for Micro iter.    ....   0.010
   NR start threshold (gradient norm)   ....   0.001
   Initial trust radius                 ....   0.400
   Minimum AH scaling param. (alpha)    ....   1.000
   Maximum AH scaling param. (alpha)    .... 1000.000
   Orbital update algorithm             .... Taylor
   White noise on init. David. guess    .... on
   Maximum white noise                  ....   0.010
   Quad. conv. algorithm                .... NR
 SOSCF                  CNVSOSCF        .... on
   Start iteration      SOSCFMaxIt      ....   150
   Startup grad/error   SOSCFStart      ....  0.003300
 Level Shifting         CNVShift        .... on
   Level shift para.    LevelShift      ....    0.2500
   Turn off err/grad.   ShiftErr        ....    0.0010
 Zerner damping         CNVZerner       .... off
 Static damping         CNVDamp         .... on
   Fraction old density DampFac         ....    0.7000
   Max. Damping (<1)    DampMax         ....    0.9800
   Min. Damping (>=0)   DampMin         ....    0.0000
   Turn off err/grad.   DampErr         ....    0.1000
 Fernandez-Rico         CNVRico         .... off

SCF Procedure:
 Maximum # iterations   MaxIter         ....   125
 SCF integral mode      SCFMode         .... Direct
   Integral package                     .... SHARK and LIBINT hybrid scheme
 Reset frequency        DirectResetFreq ....    20
 Integral Threshold     Thresh          ....  2.500e-11 Eh
 Primitive CutOff       TCut            ....  2.500e-12 Eh

Convergence Tolerance:
 Convergence Check Mode ConvCheckMode   .... Total+1el-Energy
 Convergence forced     ConvForced      .... 1
 Energy Change          TolE            ....  1.000e-08 Eh
 1-El. energy change                    ....  1.000e-05 Eh
 Orbital Gradient       TolG            ....  1.000e-05
 Orbital Rotation angle TolX            ....  1.000e-05
 DIIS Error             TolErr          ....  5.000e-07


Diagonalization of the overlap matrix:
Smallest eigenvalue                        ... 2.235e-04
Time for diagonalization                   ...    0.225 sec
Threshold for overlap eigenvalues          ... 1.000e-08
Number of eigenvalues below threshold      ... 0
Time for construction of square roots      ...    0.153 sec
Total time needed                          ...    0.383 sec

Time for model grid setup =    1.393 sec

------------------------------
INITIAL GUESS: MODEL POTENTIAL
------------------------------
Loading Hartree-Fock densities                     ... done
Calculating cut-offs                               ... done
Initializing the effective Hamiltonian             ... done
Setting up the integral package (SHARK)            ... done
Starting the Coulomb interaction                   ... done (   1.6 sec)
Reading the grid                                   ... done
Mapping shells                                     ... done
Starting the XC term evaluation                    ... done (   0.3 sec)
Transforming the Hamiltonian                       ... done (   0.1 sec)
Diagonalizing the Hamiltonian                      ... done (   0.3 sec)
Back transforming the eigenvectors                 ... done (   0.0 sec)
Now organizing SCF variables                       ... done
                      ------------------
                      INITIAL GUESS DONE (   3.8 sec)
                      ------------------
--------------
SCF ITERATIONS
--------------
ITER       Energy         Delta-E        Max-DP      RMS-DP      [F,P]     Damp
               ***  Starting incremental Fock matrix formation  ***
  0  -2121.6945208888   0.000000000000 0.06869710  0.00120767  0.2324477 0.7000
  1  -2122.3531117956  -0.658590906767 0.05204624  0.00098109  0.1439321 0.7000
                               ***Turning on DIIS***
  2  -2122.7623186768  -0.409206881252 0.12071222  0.00222667  0.0802405 0.0000
  3  -2117.8678387521   4.894479924773 0.03019290  0.00067085  0.0440437 0.0000
  4  -2123.4330388498  -5.565200097699 0.00904657  0.00022556  0.0072920 0.0000
  5  -2123.5987263445  -0.165687494786 0.00516764  0.00013278  0.0049979 0.0000
  6  -2123.5816703174   0.017056027180 0.00351475  0.00008550  0.0019561 0.0000
  7  -2123.6820478000  -0.100377482624 0.00298504  0.00006712  0.0015478 0.0000
  8  -2123.6950283589  -0.012980558937 0.00313425  0.00006289  0.0014378 0.0000
  9  -2123.6628459051   0.032182453775 0.00250942  0.00004345  0.0011434 0.0000
 10  -2123.6734324090  -0.010586503869 0.00509337  0.00008836  0.0008789 0.0000
                      *** Initiating the SOSCF procedure ***
                           *** Shutting down DIIS ***
                      *** Re-Reading the Fockian *** 
                      *** Removing any level shift *** 
ITER      Energy       Delta-E        Grad      Rot      Max-DP    RMS-DP
 11  -2123.56279681   0.1106355949  0.000220  0.000220  0.000248  0.000005
               *** Restarting incremental Fock matrix formation ***
 12  -2123.62799190  -0.0651950831  0.000848  0.005700  0.001270  0.000031
 13  -2123.62807854  -0.0000866473  0.001003  0.027474  0.006094  0.000122
 14  -2123.62822338  -0.0001448319  0.000385  0.001815  0.000524  0.000012
 15  -2123.62823905  -0.0000156781  0.000177  0.003852  0.000934  0.000019
 16  -2123.62824930  -0.0000102460  0.000167  0.003851  0.000617  0.000013
 17  -2123.62825310  -0.0000037969  0.000142  0.002511  0.000363  0.000008
 18  -2123.62825511  -0.0000020110  0.000077  0.001079  0.000318  0.000004
 19  -2123.62825603  -0.0000009239  0.000050  0.000541  0.000150  0.000003
 20  -2123.62825631  -0.0000002767  0.000024  0.000464  0.000103  0.000002
 21  -2123.62825646  -0.0000001479  0.000025  0.000285  0.000086  0.000002
 22  -2123.62825654  -0.0000000834  0.000015  0.000318  0.000093  0.000001
 23  -2123.62825659  -0.0000000513  0.000008  0.000175  0.000043  0.000001
 24  -2123.62825662  -0.0000000248  0.000005  0.000126  0.000030  0.000000
 25  -2123.62825663  -0.0000000102  0.000004  0.000090  0.000017  0.000000
 26  -2123.62825663  -0.0000000061  0.000003  0.000110  0.000017  0.000000
 27  -2123.62825664  -0.0000000036  0.000003  0.000125  0.000017  0.000000
                  ***Gradient check signals convergence***
              ***Rediagonalizing the Fockian in SOSCF/NRSCF***

               *****************************************************
               *                     SUCCESS                       *
               *           SCF CONVERGED AFTER  28 CYCLES          *
               *****************************************************


----------------
TOTAL SCF ENERGY
----------------

Total Energy       :        -2123.62825664 Eh          -57786.86269 eV

Components:
Nuclear Repulsion  :         6228.37470940 Eh          169482.69218 eV
Electronic Energy  :        -8352.00296603 Eh         -227269.55487 eV
One Electron Energy:       -15297.67534917 Eh         -416270.90906 eV
Two Electron Energy:         6945.67238314 Eh          189001.35419 eV

Virial components:
Potential Energy   :        -4245.68273390 Eh         -115530.90067 eV
Kinetic Energy     :         2122.05447727 Eh           57744.03798 eV
Virial Ratio       :            2.00074163


---------------
SCF CONVERGENCE
---------------

  Last Energy change         ...   -1.0896e-09  Tolerance :   1.0000e-08
  Last MAX-Density change    ...    1.3392e-05  Tolerance :   1.0000e-07
  Last RMS-Density change    ...    3.5964e-07  Tolerance :   5.0000e-09
  Last Orbital Gradient      ...    2.3570e-06  Tolerance :   1.0000e-05
  Last Orbital Rotation      ...    1.1893e-04  Tolerance :   1.0000e-05

             **** THE GBW FILE WAS UPDATED (/scratch/chu_02/allen/tmpyp4_amber_gaff2/conf1/conf1/Conf319.orca.gbw) ****
             **** DENSITY /scratch/chu_02/allen/tmpyp4_amber_gaff2/conf1/conf1/Conf319.orca.scfp WAS UPDATED ****
             **** ENERGY FILE WAS UPDATED (/scratch/chu_02/allen/tmpyp4_amber_gaff2/conf1/conf1/Conf319.orca.en.tmp) ****
             **** THE GBW FILE WAS UPDATED (/scratch/chu_02/allen/tmpyp4_amber_gaff2/conf1/conf1/Conf319.orca.gbw) ****
             **** DENSITY /scratch/chu_02/allen/tmpyp4_amber_gaff2/conf1/conf1/Conf319.orca.scfp WAS UPDATED ****
----------------
ORBITAL ENERGIES
----------------

  NO   OCC          E(Eh)            E(eV) 
   0   2.0000     -15.663478      -426.2249 
   1   2.0000     -15.638381      -425.5420 
   2   2.0000     -15.628549      -425.2744 
   3   2.0000     -15.598180      -424.4480 
   4   2.0000     -15.523682      -422.4209 
   5   2.0000     -15.515768      -422.2055 
   6   2.0000     -15.449651      -420.4064 
   7   2.0000     -15.443532      -420.2399 
   8   2.0000     -11.317840      -307.9741 
   9   2.0000     -11.316357      -307.9337 
  10   2.0000     -11.314023      -307.8702 
  11   2.0000     -11.302047      -307.5443 
  12   2.0000     -11.296145      -307.3837 
  13   2.0000     -11.295730      -307.3724 
  14   2.0000     -11.291452      -307.2560 
  15   2.0000     -11.287417      -307.1462 
  16   2.0000     -11.284351      -307.0628 
  17   2.0000     -11.278058      -306.8916 
  18   2.0000     -11.266695      -306.5824 
  19   2.0000     -11.263241      -306.4884 
  20   2.0000     -11.261010      -306.4277 
  21   2.0000     -11.251877      -306.1791 
  22   2.0000     -11.250957      -306.1541 
  23   2.0000     -11.241942      -305.9088 
  24   2.0000     -11.234346      -305.7021 
  25   2.0000     -11.233784      -305.6868 
  26   2.0000     -11.233234      -305.6718 
  27   2.0000     -11.227062      -305.5039 
  28   2.0000     -11.226816      -305.4972 
  29   2.0000     -11.208084      -304.9875 
  30   2.0000     -11.208003      -304.9853 
  31   2.0000     -11.206874      -304.9545 
  32   2.0000     -11.203139      -304.8529 
  33   2.0000     -11.202878      -304.8458 
  34   2.0000     -11.190363      -304.5053 
  35   2.0000     -11.190032      -304.4963 
  36   2.0000     -11.184061      -304.3338 
  37   2.0000     -11.180740      -304.2434 
  38   2.0000     -11.180045      -304.2245 
  39   2.0000     -11.174274      -304.0675 
  40   2.0000     -11.169513      -303.9379 
  41   2.0000     -11.167995      -303.8966 
  42   2.0000     -11.166276      -303.8498 
  43   2.0000     -11.164262      -303.7950 
  44   2.0000     -11.163149      -303.7647 
  45   2.0000     -11.160952      -303.7049 
  46   2.0000     -11.153646      -303.5061 
  47   2.0000     -11.149526      -303.3940 
  48   2.0000     -11.148947      -303.3783 
  49   2.0000     -11.144168      -303.2482 
  50   2.0000     -11.136501      -303.0396 
  51   2.0000     -11.130603      -302.8791 
  52   2.0000      -1.346486       -36.6397 
  53   2.0000      -1.325013       -36.0554 
  54   2.0000      -1.316669       -35.8284 
  55   2.0000      -1.291695       -35.1488 
  56   2.0000      -1.223799       -33.3013 
  57   2.0000      -1.210720       -32.9454 
  58   2.0000      -1.167551       -31.7707 
  59   2.0000      -1.154799       -31.4237 
  60   2.0000      -1.131881       -30.8000 
  61   2.0000      -1.113336       -30.2954 
  62   2.0000      -1.106287       -30.1036 
  63   2.0000      -1.086222       -29.5576 
  64   2.0000      -1.069163       -29.0934 
  65   2.0000      -1.049005       -28.5449 
  66   2.0000      -1.041402       -28.3380 
  67   2.0000      -1.033738       -28.1294 
  68   2.0000      -1.018848       -27.7243 
  69   2.0000      -1.013967       -27.5914 
  70   2.0000      -1.009406       -27.4673 
  71   2.0000      -0.992756       -27.0143 
  72   2.0000      -0.987481       -26.8707 
  73   2.0000      -0.976768       -26.5792 
  74   2.0000      -0.972644       -26.4670 
  75   2.0000      -0.959088       -26.0981 
  76   2.0000      -0.950847       -25.8739 
  77   2.0000      -0.947580       -25.7850 
  78   2.0000      -0.936548       -25.4848 
  79   2.0000      -0.921259       -25.0687 
  80   2.0000      -0.899919       -24.4880 
  81   2.0000      -0.890524       -24.2324 
  82   2.0000      -0.876030       -23.8380 
  83   2.0000      -0.869970       -23.6731 
  84   2.0000      -0.865221       -23.5439 
  85   2.0000      -0.854973       -23.2650 
  86   2.0000      -0.843907       -22.9639 
  87   2.0000      -0.838461       -22.8157 
  88   2.0000      -0.822284       -22.3755 
  89   2.0000      -0.798668       -21.7329 
  90   2.0000      -0.794464       -21.6185 
  91   2.0000      -0.744807       -20.2672 
  92   2.0000      -0.737338       -20.0640 
  93   2.0000      -0.731972       -19.9180 
  94   2.0000      -0.723353       -19.6834 
  95   2.0000      -0.719679       -19.5835 
  96   2.0000      -0.713736       -19.4217 
  97   2.0000      -0.705802       -19.2058 
  98   2.0000      -0.702241       -19.1090 
  99   2.0000      -0.696256       -18.9461 
 100   2.0000      -0.693940       -18.8831 
 101   2.0000      -0.681810       -18.5530 
 102   2.0000      -0.679203       -18.4821 
 103   2.0000      -0.674599       -18.3568 
 104   2.0000      -0.673595       -18.3294 
 105   2.0000      -0.670817       -18.2539 
 106   2.0000      -0.664637       -18.0857 
 107   2.0000      -0.662849       -18.0370 
 108   2.0000      -0.656483       -17.8638 
 109   2.0000      -0.653726       -17.7888 
 110   2.0000      -0.649659       -17.6781 
 111   2.0000      -0.646137       -17.5823 
 112   2.0000      -0.642854       -17.4929 
 113   2.0000      -0.636593       -17.3226 
 114   2.0000      -0.634235       -17.2584 
 115   2.0000      -0.629918       -17.1409 
 116   2.0000      -0.623666       -16.9708 
 117   2.0000      -0.615856       -16.7583 
 118   2.0000      -0.614453       -16.7201 
 119   2.0000      -0.612206       -16.6590 
 120   2.0000      -0.608743       -16.5648 
 121   2.0000      -0.601619       -16.3709 
 122   2.0000      -0.600232       -16.3331 
 123   2.0000      -0.588325       -16.0091 
 124   2.0000      -0.587123       -15.9764 
 125   2.0000      -0.584086       -15.8938 
 126   2.0000      -0.578468       -15.7409 
 127   2.0000      -0.577316       -15.7096 
 128   2.0000      -0.563091       -15.3225 
 129   2.0000      -0.558350       -15.1935 
 130   2.0000      -0.553835       -15.0706 
 131   2.0000      -0.549155       -14.9433 
 132   2.0000      -0.542423       -14.7601 
 133   2.0000      -0.538877       -14.6636 
 134   2.0000      -0.535040       -14.5592 
 135   2.0000      -0.534015       -14.5313 
 136   2.0000      -0.525105       -14.2888 
 137   2.0000      -0.524089       -14.2612 
 138   2.0000      -0.517782       -14.0896 
 139   2.0000      -0.514923       -14.0118 
 140   2.0000      -0.510348       -13.8873 
 141   2.0000      -0.509873       -13.8744 
 142   2.0000      -0.509001       -13.8506 
 143   2.0000      -0.502461       -13.6727 
 144   2.0000      -0.500630       -13.6228 
 145   2.0000      -0.497086       -13.5264 
 146   2.0000      -0.494088       -13.4448 
 147   2.0000      -0.486245       -13.2314 
 148   2.0000      -0.484520       -13.1845 
 149   2.0000      -0.468626       -12.7520 
 150   2.0000      -0.463899       -12.6233 
 151   2.0000      -0.455978       -12.4078 
 152   2.0000      -0.448533       -12.2052 
 153   2.0000      -0.446845       -12.1593 
 154   2.0000      -0.445356       -12.1188 
 155   2.0000      -0.440322       -11.9818 
 156   2.0000      -0.432438       -11.7672 
 157   2.0000      -0.428160       -11.6508 
 158   2.0000      -0.400261       -10.8917 
 159   2.0000      -0.385502       -10.4900 
 160   2.0000      -0.379078       -10.3152 
 161   2.0000      -0.376601       -10.2478 
 162   2.0000      -0.370861       -10.0916 
 163   2.0000      -0.359588        -9.7849 
 164   2.0000      -0.353294        -9.6136 
 165   2.0000      -0.337585        -9.1862 
 166   2.0000      -0.337097        -9.1729 
 167   2.0000      -0.331840        -9.0298 
 168   2.0000      -0.328288        -8.9332 
 169   2.0000      -0.302362        -8.2277 
 170   2.0000      -0.299706        -8.1554 
 171   2.0000      -0.287034        -7.8106 
 172   2.0000      -0.284389        -7.7386 
 173   2.0000      -0.259499        -7.0613 
 174   2.0000      -0.245626        -6.6838 
 175   2.0000      -0.189422        -5.1544 
 176   2.0000      -0.179627        -4.8879 
 177   2.0000      -0.072042        -1.9603 
 178   2.0000      -0.057115        -1.5542 
 179   0.0000       0.029113         0.7922 
 180   0.0000       0.067961         1.8493 
 181   0.0000       0.092272         2.5108 
 182   0.0000       0.105127         2.8607 
 183   0.0000       0.117093         3.1863 
 184   0.0000       0.134275         3.6538 
 185   0.0000       0.141566         3.8522 
 186   0.0000       0.149445         4.0666 
 187   0.0000       0.162617         4.4250 
 188   0.0000       0.163142         4.4393 
 189   0.0000       0.163590         4.4515 
 190   0.0000       0.167631         4.5615 
 191   0.0000       0.182660         4.9704 
 192   0.0000       0.188992         5.1427 
 193   0.0000       0.192414         5.2358 
 194   0.0000       0.202441         5.5087 
 195   0.0000       0.205878         5.6022 
 196   0.0000       0.207696         5.6517 
 197   0.0000       0.210719         5.7339 
 198   0.0000       0.222161         6.0453 
 199   0.0000       0.224477         6.1083 
 200   0.0000       0.227749         6.1974 
 201   0.0000       0.237160         6.4534 
 202   0.0000       0.241523         6.5722 
 203   0.0000       0.242147         6.5892 
 204   0.0000       0.251216         6.8359 
 205   0.0000       0.254879         6.9356 
 206   0.0000       0.257223         6.9994 
 207   0.0000       0.259288         7.0556 
 208   0.0000       0.261287         7.1100 
 209   0.0000       0.261820         7.1245 
 210   0.0000       0.264793         7.2054 
 211   0.0000       0.269938         7.3454 
 212   0.0000       0.271691         7.3931 
 213   0.0000       0.272539         7.4162 
 214   0.0000       0.276696         7.5293 
 215   0.0000       0.278359         7.5745 
 216   0.0000       0.279058         7.5935 
 217   0.0000       0.281294         7.6544 
 218   0.0000       0.283993         7.7278 
 219   0.0000       0.288153         7.8410 
 220   0.0000       0.289858         7.8874 
 221   0.0000       0.293556         7.9881 
 222   0.0000       0.294012         8.0005 
 223   0.0000       0.296499         8.0682 
 224   0.0000       0.297437         8.0937 
 225   0.0000       0.299850         8.1593 
 226   0.0000       0.307017         8.3544 
 227   0.0000       0.308320         8.3898 
 228   0.0000       0.309808         8.4303 
 229   0.0000       0.318353         8.6628 
 230   0.0000       0.322377         8.7723 
 231   0.0000       0.324235         8.8229 
 232   0.0000       0.327729         8.9179 
 233   0.0000       0.330546         8.9946 
 234   0.0000       0.341094         9.2817 
 235   0.0000       0.345038         9.3890 
 236   0.0000       0.355249         9.6668 
 237   0.0000       0.381175        10.3723 
 238   0.0000       0.394985        10.7481 
 239   0.0000       0.397740        10.8231 
 240   0.0000       0.402227        10.9452 
 241   0.0000       0.414451        11.2778 
 242   0.0000       0.418261        11.3815 
 243   0.0000       0.421619        11.4728 
 244   0.0000       0.426870        11.6157 
 245   0.0000       0.434266        11.8170 
 246   0.0000       0.435301        11.8452 
 247   0.0000       0.438530        11.9330 
 248   0.0000       0.442824        12.0498 
 249   0.0000       0.443790        12.0761 
 250   0.0000       0.451537        12.2870 
 251   0.0000       0.458970        12.4892 
 252   0.0000       0.460825        12.5397 
 253   0.0000       0.465291        12.6612 
 254   0.0000       0.469765        12.7830 
 255   0.0000       0.474140        12.9020 
 256   0.0000       0.482130        13.1194 
 257   0.0000       0.482780        13.1371 
 258   0.0000       0.488504        13.2929 
 259   0.0000       0.499420        13.5899 
 260   0.0000       0.501674        13.6512 
 261   0.0000       0.504069        13.7164 
 262   0.0000       0.506566        13.7844 
 263   0.0000       0.509183        13.8556 
 264   0.0000       0.513827        13.9819 
 265   0.0000       0.518082        14.0977 
 266   0.0000       0.519072        14.1247 
 267   0.0000       0.524262        14.2659 
 268   0.0000       0.534485        14.5441 
 269   0.0000       0.538329        14.6487 
 270   0.0000       0.540514        14.7081 
 271   0.0000       0.546341        14.8667 
 272   0.0000       0.547365        14.8946 
 273   0.0000       0.555460        15.1148 
 274   0.0000       0.560453        15.2507 
 275   0.0000       0.565646        15.3920 
 276   0.0000       0.569767        15.5041 
 277   0.0000       0.574852        15.6425 
 278   0.0000       0.579450        15.7676 
 279   0.0000       0.585722        15.9383 
 280   0.0000       0.587551        15.9881 
 281   0.0000       0.590835        16.0775 
 282   0.0000       0.592541        16.1239 
 283   0.0000       0.597625        16.2622 
 284   0.0000       0.598215        16.2783 
 285   0.0000       0.599066        16.3014 
 286   0.0000       0.607353        16.5269 
 287   0.0000       0.612440        16.6653 
 288   0.0000       0.612753        16.6738 
 289   0.0000       0.620978        16.8977 
 290   0.0000       0.627331        17.0705 
 291   0.0000       0.628241        17.0953 
 292   0.0000       0.633660        17.2428 
 293   0.0000       0.635767        17.3001 
 294   0.0000       0.646133        17.5822 
 295   0.0000       0.650307        17.6957 
 296   0.0000       0.654041        17.7974 
 297   0.0000       0.657571        17.8934 
 298   0.0000       0.664319        18.0770 
 299   0.0000       0.666709        18.1421 
 300   0.0000       0.669858        18.2278 
 301   0.0000       0.670463        18.2442 
 302   0.0000       0.678858        18.4727 
 303   0.0000       0.681362        18.5408 
 304   0.0000       0.683456        18.5978 
 305   0.0000       0.687077        18.6963 
 306   0.0000       0.690701        18.7949 
 307   0.0000       0.692572        18.8458 
 308   0.0000       0.695008        18.9121 
 309   0.0000       0.698204        18.9991 
 310   0.0000       0.700163        19.0524 
 311   0.0000       0.703804        19.1515 
 312   0.0000       0.706264        19.2184 
 313   0.0000       0.708843        19.2886 
 314   0.0000       0.711416        19.3586 
 315   0.0000       0.713138        19.4055 
 316   0.0000       0.717198        19.5160 
 317   0.0000       0.718848        19.5609 
 318   0.0000       0.722443        19.6587 
 319   0.0000       0.724713        19.7204 
 320   0.0000       0.726396        19.7662 
 321   0.0000       0.728544        19.8247 
 322   0.0000       0.733327        19.9548 
 323   0.0000       0.737859        20.0782 
 324   0.0000       0.738201        20.0875 
 325   0.0000       0.739699        20.1282 
 326   0.0000       0.742638        20.2082 
 327   0.0000       0.745254        20.2794 
 328   0.0000       0.748338        20.3633 
 329   0.0000       0.749872        20.4051 
 330   0.0000       0.752219        20.4689 
 331   0.0000       0.755117        20.5478 
 332   0.0000       0.760316        20.6893 
 333   0.0000       0.762510        20.7490 
 334   0.0000       0.769580        20.9413 
 335   0.0000       0.771930        21.0053 
 336   0.0000       0.776171        21.1207 
 337   0.0000       0.783722        21.3262 
 338   0.0000       0.784831        21.3563 
 339   0.0000       0.786618        21.4050 
 340   0.0000       0.791173        21.5289 
 341   0.0000       0.794778        21.6270 
 342   0.0000       0.796965        21.6865 
 343   0.0000       0.800758        21.7897 
 344   0.0000       0.804878        21.9018 
 345   0.0000       0.806442        21.9444 
 346   0.0000       0.808484        22.0000 
 347   0.0000       0.812550        22.1106 
 348   0.0000       0.815085        22.1796 
 349   0.0000       0.817215        22.2376 
 350   0.0000       0.820067        22.3152 
 351   0.0000       0.822545        22.3826 
 352   0.0000       0.824724        22.4419 
 353   0.0000       0.826169        22.4812 
 354   0.0000       0.827988        22.5307 
 355   0.0000       0.831769        22.6336 
 356   0.0000       0.832592        22.6560 
 357   0.0000       0.836036        22.7497 
 358   0.0000       0.837221        22.7819 
 359   0.0000       0.838652        22.8209 
 360   0.0000       0.842325        22.9208 
 361   0.0000       0.842431        22.9237 
 362   0.0000       0.843874        22.9630 
 363   0.0000       0.845942        23.0193 
 364   0.0000       0.849033        23.1034 
 365   0.0000       0.852467        23.1968 
 366   0.0000       0.853759        23.2320 
 367   0.0000       0.858329        23.3563 
 368   0.0000       0.860709        23.4211 
 369   0.0000       0.863539        23.4981 
 370   0.0000       0.866110        23.5680 
 371   0.0000       0.871298        23.7092 
 372   0.0000       0.874618        23.7996 
 373   0.0000       0.878349        23.9011 
 374   0.0000       0.881789        23.9947 
 375   0.0000       0.883483        24.0408 
 376   0.0000       0.885442        24.0941 
 377   0.0000       0.888457        24.1761 
 378   0.0000       0.890258        24.2252 
 379   0.0000       0.895039        24.3553 
 380   0.0000       0.896845        24.4044 
 381   0.0000       0.899287        24.4708 
 382   0.0000       0.902994        24.5717 
 383   0.0000       0.903243        24.5785 
 384   0.0000       0.904090        24.6016 
 385   0.0000       0.905301        24.6345 
 386   0.0000       0.906666        24.6716 
 387   0.0000       0.908892        24.7322 
 388   0.0000       0.911153        24.7937 
 389   0.0000       0.915378        24.9087 
 390   0.0000       0.918823        25.0025 
 391   0.0000       0.921408        25.0728 
 392   0.0000       0.923742        25.1363 
 393   0.0000       0.925476        25.1835 
 394   0.0000       0.928257        25.2592 
 395   0.0000       0.930574        25.3222 
 396   0.0000       0.932065        25.3628 
 397   0.0000       0.935810        25.4647 
 398   0.0000       0.939217        25.5574 
 399   0.0000       0.941602        25.6223 
 400   0.0000       0.943030        25.6612 
 401   0.0000       0.948594        25.8125 
 402   0.0000       0.952526        25.9195 
 403   0.0000       0.955468        25.9996 
 404   0.0000       0.958298        26.0766 
 405   0.0000       0.959247        26.1024 
 406   0.0000       0.961237        26.1566 
 407   0.0000       0.964378        26.2420 
 408   0.0000       0.967702        26.3325 
 409   0.0000       0.974997        26.5310 
 410   0.0000       0.975970        26.5575 
 411   0.0000       0.981823        26.7168 
 412   0.0000       0.986965        26.8567 
 413   0.0000       0.988185        26.8899 
 414   0.0000       0.988692        26.9037 
 415   0.0000       0.998847        27.1800 
 416   0.0000       1.002483        27.2789 
 417   0.0000       1.004768        27.3411 
 418   0.0000       1.006752        27.3951 
 419   0.0000       1.017010        27.6743 
 420   0.0000       1.021855        27.8061 
 421   0.0000       1.028781        27.9946 
 422   0.0000       1.033486        28.1226 
 423   0.0000       1.041870        28.3507 
 424   0.0000       1.043635        28.3987 
 425   0.0000       1.052150        28.6305 
 426   0.0000       1.055915        28.7329 
 427   0.0000       1.060940        28.8697 
 428   0.0000       1.065994        29.0072 
 429   0.0000       1.071132        29.1470 
 430   0.0000       1.077743        29.3269 
 431   0.0000       1.082951        29.4686 
 432   0.0000       1.085359        29.5341 
 433   0.0000       1.087915        29.6037 
 434   0.0000       1.098645        29.8957 
 435   0.0000       1.104693        30.0602 
 436   0.0000       1.107078        30.1251 
 437   0.0000       1.111714        30.2513 
 438   0.0000       1.114490        30.3268 
 439   0.0000       1.116578        30.3836 
 440   0.0000       1.121400        30.5148 
 441   0.0000       1.124320        30.5943 
 442   0.0000       1.126569        30.6555 
 443   0.0000       1.127922        30.6923 
 444   0.0000       1.132146        30.8073 
 445   0.0000       1.133821        30.8528 
 446   0.0000       1.139958        31.0198 
 447   0.0000       1.142180        31.0803 
 448   0.0000       1.145159        31.1614 
 449   0.0000       1.150369        31.3031 
 450   0.0000       1.150688        31.3118 
 451   0.0000       1.151521        31.3345 
 452   0.0000       1.155997        31.4563 
 453   0.0000       1.158035        31.5117 
 454   0.0000       1.162947        31.6454 
 455   0.0000       1.170930        31.8626 
 456   0.0000       1.171250        31.8713 
 457   0.0000       1.177073        32.0298 
 458   0.0000       1.179033        32.0831 
 459   0.0000       1.185474        32.2584 
 460   0.0000       1.186972        32.2992 
 461   0.0000       1.195010        32.5179 
 462   0.0000       1.202030        32.7089 
 463   0.0000       1.202782        32.7294 
 464   0.0000       1.205654        32.8075 
 465   0.0000       1.208470        32.8841 
 466   0.0000       1.212326        32.9891 
 467   0.0000       1.214558        33.0498 
 468   0.0000       1.221702        33.2442 
 469   0.0000       1.226929        33.3864 
 470   0.0000       1.230134        33.4737 
 471   0.0000       1.233078        33.5538 
 472   0.0000       1.234469        33.5916 
 473   0.0000       1.235616        33.6228 
 474   0.0000       1.242176        33.8013 
 475   0.0000       1.246226        33.9115 
 476   0.0000       1.250968        34.0406 
 477   0.0000       1.252325        34.0775 
 478   0.0000       1.253255        34.1028 
 479   0.0000       1.255315        34.1589 
 480   0.0000       1.258971        34.2583 
 481   0.0000       1.263421        34.3794 
 482   0.0000       1.269280        34.5389 
 483   0.0000       1.272828        34.6354 
 484   0.0000       1.273876        34.6639 
 485   0.0000       1.276416        34.7331 
 486   0.0000       1.279075        34.8054 
 487   0.0000       1.282208        34.8906 
 488   0.0000       1.287235        35.0274 
 489   0.0000       1.290271        35.1101 
 490   0.0000       1.294375        35.2217 
 491   0.0000       1.297434        35.3050 
 492   0.0000       1.299739        35.3677 
 493   0.0000       1.304400        35.4945 
 494   0.0000       1.310598        35.6632 
 495   0.0000       1.314408        35.7669 
 496   0.0000       1.316977        35.8368 
 497   0.0000       1.323533        36.0152 
 498   0.0000       1.324369        36.0379 
 499   0.0000       1.328702        36.1558 
 500   0.0000       1.333442        36.2848 
 501   0.0000       1.336037        36.3554 
 502   0.0000       1.341063        36.4922 
 503   0.0000       1.348782        36.7022 
 504   0.0000       1.349295        36.7162 
 505   0.0000       1.351482        36.7757 
 506   0.0000       1.352954        36.8157 
 507   0.0000       1.357244        36.9325 
 508   0.0000       1.362382        37.0723 
[...]
 76 H s       :     0.887901  s :     0.887901
      pz      :     0.022057  p :     0.079701
      px      :     0.043495
      py      :     0.014148
 77 H s       :     0.886359  s :     0.886359
      pz      :     0.047843  p :     0.079131
      px      :     0.015018
      py      :     0.016270
 78 H s       :     0.886780  s :     0.886780
      pz      :     0.025810  p :     0.079079
      px      :     0.020494
      py      :     0.032775
 79 H s       :     0.909803  s :     0.909803
      pz      :     0.021925  p :     0.086496
      px      :     0.021703
      py      :     0.042867
 80 H s       :     0.867071  s :     0.867071
      pz      :     0.039180  p :     0.084550
      px      :     0.030147
      py      :     0.015222
 81 H s       :     0.887172  s :     0.887172
      pz      :     0.037785  p :     0.084032
      px      :     0.016182
      py      :     0.030064
 82 H s       :     0.915889  s :     0.915889
      pz      :     0.022037  p :     0.086768
      px      :     0.031525
      py      :     0.033206
 83 H s       :     0.873530  s :     0.873530
      pz      :     0.039230  p :     0.084020
      px      :     0.015276
      py      :     0.029514
 84 H s       :     0.887204  s :     0.887204
      pz      :     0.035753  p :     0.083543
      px      :     0.031693
      py      :     0.016097
 85 H s       :     0.893477  s :     0.893477
      pz      :     0.022485  p :     0.079754
      px      :     0.014089
      py      :     0.043180
 86 H s       :     0.891139  s :     0.891139
      pz      :     0.024720  p :     0.078821
      px      :     0.032970
      py      :     0.021131
 87 H s       :     0.890141  s :     0.890141
      pz      :     0.047985  p :     0.078711
      px      :     0.015593
      py      :     0.015133
 88 H s       :     0.911822  s :     0.911822
      pz      :     0.021827  p :     0.087014
      px      :     0.042761
      py      :     0.022427
 89 H s       :     0.871651  s :     0.871651
      pz      :     0.037932  p :     0.083844
      px      :     0.030471
      py      :     0.015441


                      *****************************
                      * MAYER POPULATION ANALYSIS *
                      *****************************

  NA   - Mulliken gross atomic population
  ZA   - Total nuclear charge
  QA   - Mulliken gross atomic charge
  VA   - Mayer's total valence
  BVA  - Mayer's bonded valence
  FA   - Mayer's free valence

  ATOM       NA         ZA         QA         VA         BVA        FA
  0 C      5.7929     6.0000     0.2071     3.8415     3.8415     0.0000
  1 N      7.4518     7.0000    -0.4518     3.3348     3.3348     0.0000
  2 C      6.0642     6.0000    -0.0642     3.9212     3.9212    -0.0000
  3 N      7.3361     7.0000    -0.3361     3.4566     3.4566     0.0000
  4 C      6.0542     6.0000    -0.0542     3.9930     3.9930    -0.0000
  5 N      7.5606     7.0000    -0.5606     3.0937     3.0937    -0.0000
  6 C      6.1003     6.0000    -0.1003     4.0081     4.0081    -0.0000
  7 N      7.3397     7.0000    -0.3397     3.4360     3.4360    -0.0000
  8 C      5.7983     6.0000     0.2017     3.8371     3.8371     0.0000
  9 N      7.5627     7.0000    -0.5627     3.0802     3.0802    -0.0000
 10 C      5.8820     6.0000     0.1180     3.9061     3.9061    -0.0000
 11 N      7.4376     7.0000    -0.4376     3.3830     3.3830     0.0000
 12 C      6.0794     6.0000    -0.0794     3.9133     3.9133     0.0000
 13 N      7.4333     7.0000    -0.4333     3.4104     3.4104    -0.0000
 14 C      5.7693     6.0000     0.2307     3.7818     3.7818    -0.0000
 15 N      7.4413     7.0000    -0.4413     3.3698     3.3698     0.0000
 16 C      5.7700     6.0000     0.2300     3.7821     3.7821     0.0000
 17 C      6.1084     6.0000    -0.1084     4.0083     4.0083     0.0000
 18 C      6.1813     6.0000    -0.1813     3.7674     3.7674     0.0000
 19 C      5.7830     6.0000     0.2170     3.8629     3.8629     0.0000
 20 C      5.7871     6.0000     0.2129     3.8274     3.8274     0.0000
 21 C      6.0904     6.0000    -0.0904     3.9068     3.9068    -0.0000
 22 C      6.0881     6.0000    -0.0881     3.9821     3.9821     0.0000
 23 C      6.0428     6.0000    -0.0428     3.9917     3.9917    -0.0000
 24 C      5.8011     6.0000     0.1989     3.8219     3.8219    -0.0000
 25 C      5.8860     6.0000     0.1140     3.8899     3.8899    -0.0000
 26 C      6.0739     6.0000    -0.0739     3.9065     3.9065    -0.0000
 27 C      5.7863     6.0000     0.2137     3.8693     3.8693    -0.0000
 28 C      6.0581     6.0000    -0.0581     3.9885     3.9885     0.0000
 29 C      6.1811     6.0000    -0.1811     3.7424     3.7424    -0.0000
 30 C      5.7579     6.0000     0.2421     3.7964     3.7964    -0.0000
 31 C      5.7758     6.0000     0.2242     3.8214     3.8214    -0.0000
 32 C      6.0624     6.0000    -0.0624     3.9219     3.9219    -0.0000
 33 C      6.0682     6.0000    -0.0682     3.9772     3.9772    -0.0000
 34 C      6.0496     6.0000    -0.0496     3.9869     3.9869    -0.0000
 35 C      5.7816     6.0000     0.2184     3.8197     3.8197    -0.0000
 36 C      5.8896     6.0000     0.1104     3.8809     3.8809    -0.0000
 37 C      6.0651     6.0000    -0.0651     3.9175     3.9175    -0.0000
 38 C      5.7657     6.0000     0.2343     3.8013     3.8013    -0.0000
 39 C      6.0599     6.0000    -0.0599     3.9860     3.9860     0.0000
 40 C      6.1833     6.0000    -0.1833     3.7320     3.7320    -0.0000
 41 C      5.7772     6.0000     0.2228     3.8843     3.8843     0.0000
 42 C      5.8014     6.0000     0.1986     3.8267     3.8267    -0.0000
 43 C      6.0731     6.0000    -0.0731     3.9008     3.9008    -0.0000
 44 C      6.0908     6.0000    -0.0908     3.9856     3.9856     0.0000
 45 C      6.0587     6.0000    -0.0587     3.9923     3.9923    -0.0000
 46 C      5.7923     6.0000     0.2077     3.8280     3.8280    -0.0000
 47 C      5.8843     6.0000     0.1157     3.8939     3.8939     0.0000
 48 C      6.0701     6.0000    -0.0701     3.9076     3.9076    -0.0000
 49 C      5.7660     6.0000     0.2340     3.8913     3.8913    -0.0000
 50 C      6.0486     6.0000    -0.0486     3.9906     3.9906     0.0000
 51 C      6.1923     6.0000    -0.1923     3.7367     3.7367    -0.0000
 52 H      0.9563     1.0000     0.0437     0.9858     0.9858     0.0000
 53 H      1.0158     1.0000    -0.0158     0.9985     0.9985     0.0000
 54 H      0.9502     1.0000     0.0498     1.0126     1.0126     0.0000
 55 H      0.9579     1.0000     0.0421     0.9866     0.9866    -0.0000
 56 H      0.9492     1.0000     0.0508     0.9701     0.9701    -0.0000
 57 H      0.9497     1.0000     0.0503     0.9825     0.9825     0.0000
 58 H      0.9508     1.0000     0.0492     0.9854     0.9854     0.0000
 59 H      1.0019     1.0000    -0.0019     1.0034     1.0034    -0.0000
 60 H      0.9512     1.0000     0.0488     1.0097     1.0097     0.0000
 61 H      0.8286     1.0000     0.1714     1.0419     1.0419    -0.0000
 62 H      0.8252     1.0000     0.1748     1.0436     1.0436     0.0000
 63 H      0.9432     1.0000     0.0568     0.9852     0.9852     0.0000
 64 H      1.0075     1.0000    -0.0075     0.9965     0.9965    -0.0000
 65 H      0.9531     1.0000     0.0469     1.0096     1.0096    -0.0000
 66 H      0.9430     1.0000     0.0570     0.9853     0.9853     0.0000
 67 H      0.9365     1.0000     0.0635     0.9720     0.9720    -0.0000
 68 H      0.9420     1.0000     0.0580     0.9868     0.9868    -0.0000
 69 H      0.9422     1.0000     0.0578     0.9829     0.9829    -0.0000
 70 H      1.0272     1.0000    -0.0272     0.9930     0.9930     0.0000
 71 H      0.9531     1.0000     0.0469     1.0061     1.0061     0.0000
 72 H      0.9340     1.0000     0.0660     0.9841     0.9841    -0.0000
 73 H      1.0100     1.0000    -0.0100     1.0000     1.0000    -0.0000
 74 H      0.9445     1.0000     0.0555     1.0101     1.0101    -0.0000
 75 H      0.9348     1.0000     0.0652     0.9845     0.9845    -0.0000
 76 H      0.9297     1.0000     0.0703     0.9720     0.9720     0.0000
 77 H      0.9356     1.0000     0.0644     0.9854     0.9854    -0.0000
 78 H      0.9364     1.0000     0.0636     0.9851     0.9851    -0.0000
 79 H      1.0151     1.0000    -0.0151     0.9984     0.9984     0.0000
 80 H      0.9440     1.0000     0.0560     1.0071     1.0071    -0.0000
 81 H      0.9464     1.0000     0.0536     0.9856     0.9856     0.0000
 82 H      1.0248     1.0000    -0.0248     0.9935     0.9935    -0.0000
 83 H      0.9586     1.0000     0.0414     1.0086     1.0086    -0.0000
 84 H      0.9470     1.0000     0.0530     0.9854     0.9854    -0.0000
 85 H      0.9404     1.0000     0.0596     0.9715     0.9715    -0.0000
 86 H      0.9447     1.0000     0.0553     0.9839     0.9839     0.0000
 87 H      0.9433     1.0000     0.0567     0.9856     0.9856     0.0000
 88 H      1.0171     1.0000    -0.0171     0.9960     0.9960    -0.0000
 89 H      0.9540     1.0000     0.0460     1.0070     1.0070     0.0000

  Mayer bond orders larger than 0.100000
B(  0-C ,  1-N ) :   1.0973 B(  0-C , 17-C ) :   1.6890 B(  0-C , 52-H ) :   0.9679 
B(  1-N ,  8-C ) :   1.0883 B(  1-N , 10-C ) :   0.9748 B(  2-C , 12-C ) :   1.5192 
B(  2-C , 16-C ) :   1.3445 B(  2-C , 53-H ) :   0.9767 B(  3-N , 14-C ) :   1.2148 
B(  3-N , 16-C ) :   1.1930 B(  3-N , 61-H ) :   0.8993 B(  4-C ,  6-C ) :   1.2212 
B(  4-C , 17-C ) :   1.2202 B(  4-C , 18-C ) :   1.3909 B(  5-N , 19-C ) :   1.4451 
B(  5-N , 27-C ) :   1.3860 B(  6-C ,  8-C ) :   1.6917 B(  6-C , 54-H ) :   0.9656 
B(  7-N , 30-C ) :   1.1936 B(  7-N , 38-C ) :   1.1952 B(  7-N , 62-H ) :   0.8972 
B(  8-C , 55-H ) :   0.9695 B(  9-N , 41-C ) :   1.3964 B(  9-N , 49-C ) :   1.4253 
B( 10-C , 56-H ) :   0.9765 B( 10-C , 57-H ) :   0.9829 B( 10-C , 58-H ) :   0.9834 
B( 11-N , 20-C ) :   1.1307 B( 11-N , 24-C ) :   1.1144 B( 11-N , 25-C ) :   0.9584 
B( 12-C , 14-C ) :   1.3471 B( 12-C , 59-H ) :   0.9747 B( 13-N , 31-C ) :   1.1487 
B( 13-N , 35-C ) :   1.1425 B( 13-N , 36-C ) :   0.9481 B( 14-C , 18-C ) :   1.1504 
B( 15-N , 42-C ) :   1.1088 B( 15-N , 46-C ) :   1.1192 B( 15-N , 47-C ) :   0.9624 
B( 16-C , 51-C ) :   1.1804 B( 17-C , 60-H ) :   0.9660 B( 18-C , 19-C ) :   1.1561 
B( 19-C , 21-C ) :   1.2335 B( 20-C , 28-C ) :   1.6244 B( 20-C , 63-H ) :   0.9702 
B( 21-C , 26-C ) :   1.6251 B( 21-C , 64-H ) :   0.9714 B( 22-C , 23-C ) :   1.2898 
B( 22-C , 28-C ) :   1.2698 B( 22-C , 29-C ) :   1.2208 B( 23-C , 24-C ) :   1.6167 
B( 23-C , 65-H ) :   0.9706 B( 24-C , 66-H ) :   0.9693 B( 25-C , 67-H ) :   0.9761 
B( 25-C , 68-H ) :   0.9828 B( 25-C , 69-H ) :   0.9822 B( 26-C , 27-C ) :   1.2285 
B( 26-C , 70-H ) :   0.9716 B( 27-C , 29-C ) :   1.2196 B( 28-C , 71-H ) :   0.9717 
B( 29-C , 30-C ) :   1.2340 B( 30-C , 32-C ) :   1.2898 B( 31-C , 39-C ) :   1.6037 
B( 31-C , 72-H ) :   0.9687 B( 32-C , 37-C ) :   1.5693 B( 32-C , 73-H ) :   0.9783 
B( 33-C , 34-C ) :   1.2969 B( 33-C , 39-C ) :   1.2899 B( 33-C , 40-C ) :   1.2007 
B( 34-C , 35-C ) :   1.6002 B( 34-C , 74-H ) :   0.9699 B( 35-C , 75-H ) :   0.9687 
B( 36-C , 76-H ) :   0.9766 B( 36-C , 77-H ) :   0.9817 B( 36-C , 78-H ) :   0.9826 
B( 37-C , 38-C ) :   1.2931 B( 37-C , 79-H ) :   0.9770 B( 38-C , 40-C ) :   1.2258 
B( 39-C , 80-H ) :   0.9710 B( 40-C , 41-C ) :   1.2390 B( 41-C , 43-C ) :   1.1971 
B( 42-C , 50-C ) :   1.6355 B( 42-C , 81-H ) :   0.9696 B( 43-C , 48-C ) :   1.6545 
B( 43-C , 82-H ) :   0.9726 B( 44-C , 45-C ) :   1.2640 B( 44-C , 50-C ) :   1.2687 
B( 44-C , 51-C ) :   1.2631 B( 45-C , 46-C ) :   1.6361 B( 45-C , 83-H ) :   0.9716 
B( 46-C , 84-H ) :   0.9702 B( 47-C , 85-H ) :   0.9762 B( 47-C , 86-H ) :   0.9829 
B( 47-C , 87-H ) :   0.9825 B( 48-C , 49-C ) :   1.1998 B( 48-C , 88-H ) :   0.9746 
B( 49-C , 51-C ) :   1.2304 B( 50-C , 89-H ) :   0.9710 

-------
TIMINGS
-------

Total SCF time: 0 days 0 hours 42 min 50 sec 

Total time                  ....    2570.045 sec
Sum of individual times     ....    2566.629 sec  ( 99.9%)

Fock matrix formation       ....    2548.327 sec  ( 99.2%)
Diagonalization             ....       4.704 sec  (  0.2%)
Density matrix formation    ....       0.494 sec  (  0.0%)
Population analysis         ....       0.296 sec  (  0.0%)
Initial guess               ....       2.449 sec  (  0.1%)
Orbital Transformation      ....       0.000 sec  (  0.0%)
Orbital Orthonormalization  ....       0.000 sec  (  0.0%)
DIIS solution               ....       3.158 sec  (  0.1%)
SOSCF solution              ....       5.807 sec  (  0.2%)

Maximum memory used throughout the entire SCF-calculation: 304.2 MB


           ************************************************************
           *        Program running with 8 parallel MPI-processes     *
           *              working on a common directory               *
           ************************************************************

------------------------------------------------------------------------------
                                ORCA  MP2 
------------------------------------------------------------------------------

Freezing NCore=104 chemical core electrons

----------
MP2 ENERGY (disk based algorithm)
----------

Dimension of the basis                    ...  918
Memory devoted to MP2                     ... 7000 MB   
Data format for buffers                   ... DOUBLE
Compression type for matrix containers    ... UNCOMPRESSED

-------------------------------
PARTIAL EXCHANGE TRANSFORMATION
-------------------------------

Transformation type                        ... one-operator
Generation of integrals (i,mue|j,nue)      ... ON
Generation of integrals (mue,kappa|nue,tau)... OFF
Generation of integrals (i,mue|a,nue)      ... OFF
Dimension of the basis                     ...  918
Number of internal MOs                     ...  127 (  52- 178)
Pair cutoff                                ... 2.500e-12 Eh
Number of AO pairs in the trafo            ... 421821
Total Number of distinct AO pairs          ... 421821
Memory devoted for trafo                   ... 7000.0 MB 
Max. Number of MO pairs treated together   ... 1088      
Number Format for Storage                  ... Double (8 Byte)
Integral package used                      ... LIBINT

Starting integral evaluation:
    ... done with AO integral generation
Closing buffer AOK     (38.23 GB; CompressionRatio= 1.33)
Collecting buffer AOK 
Number of MO pairs included in the trafo   ... 8128
------------------------
SORTING OF (i,mue|j,nue)
------------------------

IBATCH = 1 of  1
Closing buffer KAO     (51.03 GB; CompressionRatio= 1.00)
Collecting buffer KAO 
N(AO-Batches) Done                         ... 174216652 
N(AO-Batches) Skipped                      ... 167189945 
N(IJ)-pairs Skipped                        ...         0 
TOTAL TIME for half transformation         ...  1043.157 sec
AO-integral generation                     ...   250.480 sec
Half transformation                        ...   465.575 sec
K-integral sorting                         ...    96.606 sec

Finished integral transformation - now doing MP2 part

OPERATOR COMBINATION   0   0: ij=( 52..178, 52..178)
Process 2:   Internal MO  84
Process 5:   Internal MO 132
Process 0:   Internal MO  54
Process 0:   Internal MO  57
Process 1:   Internal MO  69
Process 0:   Internal MO  60
Process 4:   Internal MO 117
Process 0:   Internal MO  63
Process 1:   Internal MO  72
Process 3:   Internal MO 102
Process 2:   Internal MO  87
Process 0:   Internal MO  66
Process 7:   Internal MO 165
Process 1:   Internal MO  75
Process 6:   Internal MO 150
Process 2:   Internal MO  90
Process 1:   Internal MO  78
Process 5:   Internal MO 135
Process 3:   Internal MO 105
Process 4:   Internal MO 120
Process 1:   Internal MO  81
Process 2:   Internal MO  93
Process 3:   Internal MO 108
Process 2:   Internal MO  96
Process 7:   Internal MO 168
Process 4:   Internal MO 123
Process 6:   Internal MO 153
Process 5:   Internal MO 138
Process 3:   Internal MO 111
Process 2:   Internal MO  99
Process 4:   Internal MO 126
Process 5:   Internal MO 141
Process 3:   Internal MO 114
Process 6:   Internal MO 156
Process 7:   Internal MO 171
Process 4:   Internal MO 129
Process 5:   Internal MO 144
Process 6:   Internal MO 159
Process 7:   Internal MO 174
Process 5:   Internal MO 147
Process 6:   Internal MO 162
Process 7:   Internal MO 177
-----------------------------------------------
 MP2 CORRELATION ENERGY   :     -7.283749698 Eh
-----------------------------------------------


-------
TIMINGS
-------
Total time                : 1202.134 sec
Integral trafo            : 1052.302 sec ( 87.5%)
K(i,j)                    :    9.560 sec (  0.8%)
T(i,j)                    :    0.150 sec (  0.0%)

---------------------------------------
MP2 TOTAL ENERGY:    -2130.912006336 Eh
---------------------------------------

Maximum memory used throughout the entire MP2-calculation: 6735.7 MB

-------------------------   --------------------
FINAL SINGLE POINT ENERGY     -2130.912006335842
-------------------------   --------------------


                            ***************************************
                            *     ORCA property calculations      *
                            ***************************************


  WARNING: The energy has been calculated at the MP2 level but the densities
           used in the property calculations are still SCF densities
           MP2 response densities have not been calculated 
           use %mp2 Density relaxed end
           or  %mp2 Density unrelaxed end

                                    ---------------------
                                    Active property flags
                                    ---------------------
   (+) Dipole Moment


------------------------------------------------------------------------------
                       ORCA ELECTRIC PROPERTIES CALCULATION
------------------------------------------------------------------------------

Dipole Moment Calculation                       ... on
Quadrupole Moment Calculation                   ... off
Polarizability Calculation                      ... off
GBWName                                         ... /scratch/chu_02/allen/tmpyp4_amber_gaff2/conf1/conf1/Conf319.orca.gbw
Electron density                                ... /scratch/chu_02/allen/tmpyp4_amber_gaff2/conf1/conf1/Conf319.orca.scfp
The origin for moment calculation is the CENTER OF MASS  = (-0.001148, -0.004873 -0.000077)

-------------
DIPOLE MOMENT
-------------
                                X             Y             Z
Electronic contribution:      1.51569      -3.25204      -0.06033
Nuclear contribution   :      0.00477       0.19124       0.07092
                        -----------------------------------------
Total Dipole Moment    :      1.52046      -3.06080       0.01059
                        -----------------------------------------
Magnitude (a.u.)       :      3.41766
Magnitude (Debye)      :      8.68700



--------------------
Rotational spectrum 
--------------------
 
Rotational constants in cm-1:     0.001501     0.001475     0.000761 
Rotational constants in MHz :    45.000409    44.218542    22.821299 

 Dipole components along the rotational axes: 
x,y,z [a.u.] :     2.290484    -2.536520     0.012624 
x,y,z [Debye]:     5.821947    -6.447321     0.032087 

 

Timings for individual modules:

Sum of individual times         ...     3778.053 sec (=  62.968 min)
GTO integral calculation        ...        3.249 sec (=   0.054 min)   0.1 %
SCF iterations                  ...     2571.391 sec (=  42.857 min)  68.1 %
MP2 module                      ...     1203.413 sec (=  20.057 min)  31.9 %
                             ****ORCA TERMINATED NORMALLY****
TOTAL RUN TIME: 0 days 1 hours 3 minutes 0 seconds 402 msec
# of primitive gaussian functions

