
                                 *****************
                                 * O   R   C   A *
                                 *****************

                                            #,                                       
                                            ###                                      
                                            ####                                     
                                            #####                                    
                                            ######                                   
                                           ########,                                 
                                     ,,################,,,,,                         
                               ,,#################################,,                 
                          ,,##########################################,,             
                       ,#########################################, ''#####,          
                    ,#############################################,,   '####,        
                  ,##################################################,,,,####,       
                ,###########''''           ''''###############################       
              ,#####''   ,,,,##########,,,,          '''####'''          '####       
            ,##' ,,,,###########################,,,                        '##       
           ' ,,###''''                  '''############,,,                           
         ,,##''                                '''############,,,,        ,,,,,,###''
      ,#''                                            '''#######################'''  
     '                                                          ''''####''''         
             ,#######,   #######,   ,#######,      ##                                
            ,#'     '#,  ##    ##  ,#'     '#,    #''#        ######   ,####,        
            ##       ##  ##   ,#'  ##            #'  '#       #        #'  '#        
            ##       ##  #######   ##           ,######,      #####,   #    #        
            '#,     ,#'  ##    ##  '#,     ,#' ,#      #,         ##   #,  ,#        
             '#######'   ##     ##  '#######'  #'      '#     #####' # '####'        



                  #######################################################
                  #                        -***-                        #
                  #          Department of theory and spectroscopy      #
                  #    Directorship and core code : Frank Neese         #
                  #        Max Planck Institute fuer Kohlenforschung    #
                  #                Kaiser Wilhelm Platz 1               #
                  #                 D-45470 Muelheim/Ruhr               #
                  #                      Germany                        #
                  #                                                     #
                  #                  All rights reserved                #
                  #                        -***-                        #
                  #######################################################


                         Program Version 5.0.4 -  RELEASE  -


 With contributions from (in alphabetic order):
   Daniel Aravena         : Magnetic Suceptibility
   Michael Atanasov       : Ab Initio Ligand Field Theory (pilot matlab implementation)
   Alexander A. Auer      : GIAO ZORA, VPT2 properties, NMR spectrum
   Ute Becker             : Parallelization
   Giovanni Bistoni       : ED, misc. LED, open-shell LED, HFLD
   Martin Brehm           : Molecular dynamics
   Dmytro Bykov           : SCF Hessian
   Vijay G. Chilkuri      : MRCI spin determinant printing, contributions to CSF-ICE
   Dipayan Datta          : RHF DLPNO-CCSD density
   Achintya Kumar Dutta   : EOM-CC, STEOM-CC
   Dmitry Ganyushin       : Spin-Orbit,Spin-Spin,Magnetic field MRCI
   Miquel Garcia          : C-PCM and meta-GGA Hessian, CC/C-PCM, Gaussian charge scheme
   Yang Guo               : DLPNO-NEVPT2, F12-NEVPT2, CIM, IAO-localization
   Andreas Hansen         : Spin unrestricted coupled pair/coupled cluster methods
   Benjamin Helmich-Paris : MC-RPA, TRAH-SCF, COSX integrals
   Lee Huntington         : MR-EOM, pCC
   Robert Izsak           : Overlap fitted RIJCOSX, COSX-SCS-MP3, EOM
   Marcus Kettner         : VPT2
   Christian Kollmar      : KDIIS, OOCD, Brueckner-CCSD(T), CCSD density, CASPT2, CASPT2-K
   Simone Kossmann        : Meta GGA functionals, TD-DFT gradient, OOMP2, MP2 Hessian
   Martin Krupicka        : Initial AUTO-CI
   Lucas Lang             : DCDCAS
   Marvin Lechner         : AUTO-CI (C++ implementation), FIC-MRCC
   Dagmar Lenk            : GEPOL surface, SMD
   Dimitrios Liakos       : Extrapolation schemes; Compound Job, initial MDCI parallelization
   Dimitrios Manganas     : Further ROCIS development; embedding schemes
   Dimitrios Pantazis     : SARC Basis sets
   Anastasios Papadopoulos: AUTO-CI, single reference methods and gradients
   Taras Petrenko         : DFT Hessian,TD-DFT gradient, ASA, ECA, R-Raman, ABS, FL, XAS/XES, NRVS
   Peter Pinski           : DLPNO-MP2, DLPNO-MP2 Gradient
   Christoph Reimann      : Effective Core Potentials
   Marius Retegan         : Local ZFS, SOC
   Christoph Riplinger    : Optimizer, TS searches, QM/MM, DLPNO-CCSD(T), (RO)-DLPNO pert. Triples
   Tobias Risthaus        : Range-separated hybrids, TD-DFT gradient, RPA, STAB
   Michael Roemelt        : Original ROCIS implementation
   Masaaki Saitow         : Open-shell DLPNO-CCSD energy and density
   Barbara Sandhoefer     : DKH picture change effects
   Avijit Sen             : IP-ROCIS
   Kantharuban Sivalingam : CASSCF convergence, NEVPT2, FIC-MRCI
   Bernardo de Souza      : ESD, SOC TD-DFT
   Georgi Stoychev        : AutoAux, RI-MP2 NMR, DLPNO-MP2 response
   Willem Van den Heuvel  : Paramagnetic NMR
   Boris Wezisla          : Elementary symmetry handling
   Frank Wennmohs         : Technical directorship


 We gratefully acknowledge several colleagues who have allowed us to
 interface, adapt or use parts of their codes:
   Stefan Grimme, W. Hujo, H. Kruse, P. Pracht,  : VdW corrections, initial TS optimization,
                  C. Bannwarth, S. Ehlert          DFT functionals, gCP, sTDA/sTD-DF
   Ed Valeev, F. Pavosevic, A. Kumar             : LibInt (2-el integral package), F12 methods
   Garnet Chan, S. Sharma, J. Yang, R. Olivares  : DMRG
   Ulf Ekstrom                                   : XCFun DFT Library
   Mihaly Kallay                                 : mrcc  (arbitrary order and MRCC methods)
   Jiri Pittner, Ondrej Demel                    : Mk-CCSD
   Frank Weinhold                                : gennbo (NPA and NBO analysis)
   Christopher J. Cramer and Donald G. Truhlar   : smd solvation model
   Lars Goerigk                                  : TD-DFT with DH, B97 family of functionals
   V. Asgeirsson, H. Jonsson                     : NEB implementation
   FAccTs GmbH                                   : IRC, NEB, NEB-TS, DLPNO-Multilevel, CI-OPT
                                                   MM, QMMM, 2- and 3-layer-ONIOM, Crystal-QMMM,
                                                   LR-CPCM, SF, NACMEs, symmetry and pop. for TD-DFT,
                                                   nearIR, NL-DFT gradient (VV10), updates on ESD,
                                                   ML-optimized integration grids
   S Lehtola, MJT Oliveira, MAL Marques          : LibXC Library
   Liviu Ungur et al                             : ANISO software


 Your calculation uses the libint2 library for the computation of 2-el integrals
 For citations please refer to: http://libint.valeyev.net

 Your ORCA version has been built with support for libXC version: 5.1.0
 For citations please refer to: https://tddft.org/programs/libxc/

 This ORCA versions uses:
   CBLAS   interface :  Fast vector & matrix operations
   LAPACKE interface :  Fast linear algebra routines
   SCALAPACK package :  Parallel linear algebra routines
   Shared memory     :  Shared parallel matrices
   BLAS/LAPACK       :  OpenBLAS 0.3.15  USE64BITINT DYNAMIC_ARCH NO_AFFINITY Sandybridge SINGLE_THREADED
        Core in use  :  Sandybridge
   Copyright (c) 2011-2014, The OpenBLAS Project


================================================================================

----- Orbital basis set information -----
Your calculation utilizes the basis: cc-pVDZ 
       H, B-Ne : Obtained from the ccRepo (grant-hill.group.shef.ac.uk/ccrepo) Feb. 2017
                 T. H. Dunning, Jr., J. Chem. Phys. 90, 1007 (1989)
            He : Obtained from the ccRepo (grant-hill.group.shef.ac.uk/ccrepo) Feb. 2017
                 D. E. Woon, T. H. Dunning, Jr., J. Chem. Phys. 100, 2975 (1994)
  Li-Be, Na-Mg : Obtained from the ccRepo (grant-hill.group.shef.ac.uk/ccrepo) Feb. 2017
                 B. P. Prascher, D. E. Woon, K. A. Peterson, T. H. Dunning, Jr., A. K. Wilson, Theor. Chem. Acc. 128, 69 (2011)
         Al-Ar : Obtained from the ccRepo (grant-hill.group.shef.ac.uk/ccrepo) Feb. 2017
                 D. E. Woon, T. H. Dunning, Jr., J. Chem. Phys. 98, 1358 (1993)
            Ca : Obtained from the Peterson Research Group Website (tyr0.chem.wsu.edu/~kipeters) Feb. 2017
                 J. Koput, K. A. Peterson, J. Phys. Chem. 106, 9595 (2002)
         Sc-Zn : Obtained from the ccRepo (grant-hill.group.shef.ac.uk/ccrepo) Feb. 2017
                 N. B. Balabanov, K. A. Peterson, J. Chem. Phys. 123, 064107 (2005)
                 N. B. Balabanov, K. A. Peterson, J. Chem. Phys. 125, 074110 (2006)
         Ga-Kr : Obtained from the ccRepo (grant-hill.group.shef.ac.uk/ccrepo) Feb. 2017
                 A. K. Wilson, D. E. Woon, K. A. Peterson, T. H. Dunning, Jr., J. Chem. Phys. 110, 7667 (1999)

================================================================================
                                        WARNINGS
                       Please study these warnings very carefully!
================================================================================


WARNING: No MP2 level density has been requested!
         To caclulate MP2 level properties use
         %mp2 Density relaxed end
         or
         %mp2 Density unrelaxed end

WARNING: Post HF methods need fully converged wavefunctions
  ===> : Setting SCFConvForced true
         You can overwrite this default with %scf ConvForced false 


INFO   : the flag for use of the SHARK integral package has been found!

================================================================================
                                       INPUT FILE
================================================================================
NAME = /scratch/allen/tmpyp4_amber_gaff2/2.Mdgx/conf11/conf11/Conf53.orca
|  1> ! PAL2
|  2> ! mp2 cc-pvdz TightSCF  NoKeepInts
|  3> 
|  4> %scf
|  5>   MaxCore 2000
|  6> end
|  7> %mp2
|  8>   MaxCore 2000
|  9> end
| 10> * xyz 0 1
| 11>    C       -3.39200         6.26800        -0.81400
| 12>    C        1.47400         4.04100         0.05700
| 13>    C       -2.80200         4.09300         0.04900
| 14>    C       -3.82100         4.25100         1.00100
| 15>    C       -4.58700         5.39900         1.01300
| 16>    C       -5.22900         7.59100         0.13200
| 17>    C        0.13200         4.30700         0.06100
| 18>    C       -0.56900         3.05600         0.04700
| 19>    C        1.64900         2.61800         0.02300
| 20>    C       -2.60400         5.13500        -0.87000
| 21>    N       -4.36600         6.38900         0.11700
| 22>    N        0.38800         2.06700         0.02500
| 23>    N       -2.01000         0.39500        -0.07500
| 24>    N       -0.38800        -2.07400        -0.02700
| 25>    N        2.01000        -0.40100         0.06500
| 26>    C       -1.96000         2.86100         0.02400
| 27>    C       -2.62300         1.61500        -0.01800
| 28>    C       -5.57300        -4.32900         1.06600
| 29>    C       -4.07300         1.47100         0.05600
| 30>    C       -4.10600        -2.75600        -0.02600
| 31>    C       -4.99500        -2.75700        -1.11100
| 32>    C       -6.13200        -3.54200        -1.07600
| 33>    C       -7.65100        -5.11300         0.04000
| 34>    C       -4.32400         0.14100         0.03700
| 35>    C       -3.02500        -0.52000        -0.04800
| 36>    C       -4.42200        -3.56600         1.07500
| 37>    N       -6.40700        -4.31300         0.00100
| 38>    C       -2.86700        -1.92200        -0.04000
| 39>    C       -1.65000        -2.62400        -0.02700
| 40>    C        3.56800        -6.14200        -1.04000
| 41>    C       -1.47600        -4.04900        -0.03400
| 42>    C        2.80300        -4.09900        -0.00800
| 43>    C        3.65700        -4.38400         1.06900
| 44>    C        4.42700        -5.53000         1.05900
| 45>    C        5.24500        -7.58800         0.01400
| 46>    C       -0.13400        -4.31500        -0.02200
| 47>    C        0.56800        -3.06400        -0.02700
| 48>    C        2.77500        -5.01200        -1.07400
| 49>    N        4.37600        -6.39100         0.01700
| 50>    C        1.95900        -2.86900        -0.00900
| 51>    C        2.62100        -1.62200         0.00900
| 52>    C        5.54300         4.33900        -1.13000
| 53>    C        4.07000        -1.47900        -0.09400
| 54>    C        4.10400         2.75100        -0.02100
| 55>    C        5.02700         2.72900         1.03600
| 56>    C        6.16600         3.50900         0.97800
| 57>    C        7.61900         5.15300        -0.11500
| 58>    C        4.32100        -0.14800        -0.09200
| 59>    C        3.02500         0.51400         0.01500
| 60>    C        4.38700         3.58200        -1.11500
| 61>    C        2.86600         1.91600         0.01300
| 62>    N        6.41300         4.29600        -0.09500
| 63>    H       -3.26700         7.10200        -1.49400
| 64>    H        2.27400         4.76600         0.08100
| 65>    H       -4.02900         3.47700         1.73000
| 66>    H       -5.38900         5.56200         1.72100
| 67>    H       -6.12400         7.39400        -0.46400
| 68>    H       -5.50600         7.81100         1.16300
| 69>    H       -4.67400         8.42600        -0.29300
| 70>    H       -0.33200         5.28200         0.06900
| 71>    H       -1.82300         5.07900        -1.62000
| 72>    H        0.18200         1.07200         0.00500
| 73>    H       -0.18300        -1.08000        -0.02100
| 74>    H       -5.86400        -4.96200         1.89500
| 75>    H       -4.79400         2.27200         0.13900
| 76>    H       -4.80000        -2.16000        -1.99400
| 77>    H       -6.84100        -3.58200        -1.89300
| 78>    H       -8.42800        -4.53600         0.54600
| 79>    H       -7.95600        -5.33700        -0.98100
| 80>    H       -7.45600        -6.03700         0.58400
| 81>    H       -5.28700        -0.34400         0.10000
| 82>    H       -3.78000        -3.60100         1.94700
| 83>    H        3.58700        -6.86800        -1.84300
| 84>    H       -2.27600        -4.77400        -0.05000
| 85>    H        3.71400        -3.72400         1.92600
| 86>    H        5.09200        -5.79500         1.87100
| 87>    H        6.20500        -7.32900        -0.43900
| 88>    H        5.39300        -7.91700         1.04200
| 89>    H        4.75900        -8.37300        -0.56400
| 90>    H        0.32900        -5.29000        -0.00800
| 91>    H        2.14600        -4.84200        -1.94000
| 92>    H        5.80800         4.98600        -1.95600
| 93>    H        4.78800        -2.28100        -0.18500
| 94>    H        4.86000         2.11400         1.91200
| 95>    H        6.90100         3.53100         1.77200
| 96>    H        7.38300         6.10900         0.35600
| 97>    H        8.41400         4.65200         0.43500
| 98>    H        7.92100         5.31000        -1.15000
| 99>    H        5.28300         0.33600        -0.17900
|100>    H        3.72000         3.63200        -1.96700
|101> *
|102> 
|103>                          ****END OF INPUT****
================================================================================

                       ****************************
                       * Single Point Calculation *
                       ****************************

---------------------------------
CARTESIAN COORDINATES (ANGSTROEM)
---------------------------------
  C     -3.392000    6.268000   -0.814000
  C      1.474000    4.041000    0.057000
  C     -2.802000    4.093000    0.049000
  C     -3.821000    4.251000    1.001000
  C     -4.587000    5.399000    1.013000
  C     -5.229000    7.591000    0.132000
  C      0.132000    4.307000    0.061000
  C     -0.569000    3.056000    0.047000
  C      1.649000    2.618000    0.023000
  C     -2.604000    5.135000   -0.870000
  N     -4.366000    6.389000    0.117000
  N      0.388000    2.067000    0.025000
  N     -2.010000    0.395000   -0.075000
  N     -0.388000   -2.074000   -0.027000
  N      2.010000   -0.401000    0.065000
  C     -1.960000    2.861000    0.024000
  C     -2.623000    1.615000   -0.018000
  C     -5.573000   -4.329000    1.066000
  C     -4.073000    1.471000    0.056000
  C     -4.106000   -2.756000   -0.026000
  C     -4.995000   -2.757000   -1.111000
  C     -6.132000   -3.542000   -1.076000
  C     -7.651000   -5.113000    0.040000
  C     -4.324000    0.141000    0.037000
  C     -3.025000   -0.520000   -0.048000
  C     -4.422000   -3.566000    1.075000
  N     -6.407000   -4.313000    0.001000
  C     -2.867000   -1.922000   -0.040000
  C     -1.650000   -2.624000   -0.027000
  C      3.568000   -6.142000   -1.040000
  C     -1.476000   -4.049000   -0.034000
  C      2.803000   -4.099000   -0.008000
  C      3.657000   -4.384000    1.069000
  C      4.427000   -5.530000    1.059000
  C      5.245000   -7.588000    0.014000
  C     -0.134000   -4.315000   -0.022000
  C      0.568000   -3.064000   -0.027000
  C      2.775000   -5.012000   -1.074000
  N      4.376000   -6.391000    0.017000
  C      1.959000   -2.869000   -0.009000
  C      2.621000   -1.622000    0.009000
  C      5.543000    4.339000   -1.130000
  C      4.070000   -1.479000   -0.094000
  C      4.104000    2.751000   -0.021000
  C      5.027000    2.729000    1.036000
  C      6.166000    3.509000    0.978000
  C      7.619000    5.153000   -0.115000
  C      4.321000   -0.148000   -0.092000
  C      3.025000    0.514000    0.015000
  C      4.387000    3.582000   -1.115000
  C      2.866000    1.916000    0.013000
  N      6.413000    4.296000   -0.095000
  H     -3.267000    7.102000   -1.494000
  H      2.274000    4.766000    0.081000
  H     -4.029000    3.477000    1.730000
  H     -5.389000    5.562000    1.721000
  H     -6.124000    7.394000   -0.464000
  H     -5.506000    7.811000    1.163000
  H     -4.674000    8.426000   -0.293000
  H     -0.332000    5.282000    0.069000
  H     -1.823000    5.079000   -1.620000
  H      0.182000    1.072000    0.005000
  H     -0.183000   -1.080000   -0.021000
  H     -5.864000   -4.962000    1.895000
  H     -4.794000    2.272000    0.139000
  H     -4.800000   -2.160000   -1.994000
  H     -6.841000   -3.582000   -1.893000
  H     -8.428000   -4.536000    0.546000
  H     -7.956000   -5.337000   -0.981000
  H     -7.456000   -6.037000    0.584000
  H     -5.287000   -0.344000    0.100000
  H     -3.780000   -3.601000    1.947000
  H      3.587000   -6.868000   -1.843000
  H     -2.276000   -4.774000   -0.050000
  H      3.714000   -3.724000    1.926000
  H      5.092000   -5.795000    1.871000
  H      6.205000   -7.329000   -0.439000
  H      5.393000   -7.917000    1.042000
  H      4.759000   -8.373000   -0.564000
  H      0.329000   -5.290000   -0.008000
  H      2.146000   -4.842000   -1.940000
  H      5.808000    4.986000   -1.956000
  H      4.788000   -2.281000   -0.185000
  H      4.860000    2.114000    1.912000
  H      6.901000    3.531000    1.772000
  H      7.383000    6.109000    0.356000
  H      8.414000    4.652000    0.435000
  H      7.921000    5.310000   -1.150000
  H      5.283000    0.336000   -0.179000
  H      3.720000    3.632000   -1.967000

----------------------------
CARTESIAN COORDINATES (A.U.)
----------------------------
  NO LB      ZA    FRAG     MASS         X           Y           Z
   0 C     6.0000    0    12.011   -6.409951   11.844803   -1.538237
   1 C     6.0000    0    12.011    2.785456    7.636383    0.107714
   2 C     6.0000    0    12.011   -5.295013    7.734649    0.092597
   3 C     6.0000    0    12.011   -7.220644    8.033226    1.891616
   4 C     6.0000    0    12.011   -8.668174   10.202631    1.914293
   5 C     6.0000    0    12.011   -9.881378   14.344911    0.249444
   6 C     6.0000    0    12.011    0.249444    8.139050    0.115273
   7 C     6.0000    0    12.011   -1.075254    5.775003    0.088817
   8 C     6.0000    0    12.011    3.116158    4.947303    0.043464
   9 C     6.0000    0    12.011   -4.920847    9.703744   -1.644062
  10 N     7.0000    0    14.007   -8.250544   12.073460    0.221098
  11 N     7.0000    0    14.007    0.733214    3.906064    0.047243
  12 N     7.0000    0    14.007   -3.798350    0.746442   -0.141729
  13 N     7.0000    0    14.007   -0.733214   -3.919292   -0.051023
  14 N     7.0000    0    14.007    3.798350   -0.757780    0.122832
  15 C     6.0000    0    12.011   -3.703863    5.406506    0.045353
  16 C     6.0000    0    12.011   -4.956752    3.051908   -0.034015
  17 C     6.0000    0    12.011  -10.531444   -8.180624    2.014448
  18 C     6.0000    0    12.011   -7.696855    2.779787    0.105825
  19 C     6.0000    0    12.011   -7.759216   -5.208085   -0.049133
  20 C     6.0000    0    12.011   -9.439182   -5.209975   -2.099486
  21 C     6.0000    0    12.011  -11.587801   -6.693410   -2.033345
  22 C     6.0000    0    12.011  -14.458295   -9.662170    0.075589
  23 C     6.0000    0    12.011   -8.171176    0.266451    0.069920
  24 C     6.0000    0    12.011   -5.716422   -0.982658   -0.090707
  25 C     6.0000    0    12.011   -8.356369   -6.738763    2.031456
  26 N     7.0000    0    14.007  -12.107475   -8.150389    0.001890
  27 C     6.0000    0    12.011   -5.417845   -3.632054   -0.075589
  28 C     6.0000    0    12.011   -3.118048   -4.958641   -0.051023
  29 C     6.0000    0    12.011    6.742543  -11.606698   -1.965315
  30 C     6.0000    0    12.011   -2.789236   -7.651501   -0.064251
  31 C     6.0000    0    12.011    5.296902   -7.745987   -0.015118
  32 C     6.0000    0    12.011    6.910728   -8.284559    2.020117
  33 C     6.0000    0    12.011    8.365818  -10.450186    2.001220
  34 C     6.0000    0    12.011    9.911614  -14.339242    0.026456
  35 C     6.0000    0    12.011   -0.253223   -8.154168   -0.041574
  36 C     6.0000    0    12.011    1.073364   -5.790121   -0.051023
  37 C     6.0000    0    12.011    5.243990   -9.471307   -2.029566
  38 N     7.0000    0    14.007    8.269442  -12.077240    0.032125
  39 C     6.0000    0    12.011    3.701973   -5.421624   -0.017008
  40 C     6.0000    0    12.011    4.952972   -3.065136    0.017008
  41 C     6.0000    0    12.011   10.474752    8.199522   -2.135391
  42 C     6.0000    0    12.011    7.691185   -2.794905   -0.177634
  43 C     6.0000    0    12.011    7.755436    5.198637   -0.039684
  44 C     6.0000    0    12.011    9.499653    5.157063    1.957756
  45 C     6.0000    0    12.011   11.652051    6.631049    1.848152
  46 C     6.0000    0    12.011   14.397823    9.737759   -0.217319
  47 C     6.0000    0    12.011    8.165507   -0.279679   -0.173855
  48 C     6.0000    0    12.011    5.716422    0.971319    0.028346
  49 C     6.0000    0    12.011    8.290229    6.768999   -2.107045
  50 C     6.0000    0    12.011    5.415955    3.620715    0.024566
  51 N     7.0000    0    14.007   12.118814    8.118263   -0.179524
  52 H     1.0000    0     1.008   -6.173735   13.420835   -2.823251
  53 H     1.0000    0     1.008    4.297237    9.006435    0.153068
  54 H     1.0000    0     1.008   -7.613707    6.570578    3.269226
  55 H     1.0000    0     1.008  -10.183734   10.510657    3.252219
  56 H     1.0000    0     1.008  -11.572683   13.972635   -0.876833
  57 H     1.0000    0     1.008  -10.404832   14.760651    2.197751
  58 H     1.0000    0     1.008   -8.832580   15.922832   -0.553690
  59 H     1.0000    0     1.008   -0.627389    9.981533    0.130391
  60 H     1.0000    0     1.008   -3.444971    9.597919   -3.061356
  61 H     1.0000    0     1.008    0.343930    2.025786    0.009449
  62 H     1.0000    0     1.008   -0.345820   -2.040904   -0.039684
  63 H     1.0000    0     1.008  -11.081354   -9.376821    3.581031
  64 H     1.0000    0     1.008   -9.059347    4.293458    0.262672
  65 H     1.0000    0     1.008   -9.070685   -4.081808   -3.768114
  66 H     1.0000    0     1.008  -12.927616   -6.768999   -3.577252
  67 H     1.0000    0     1.008  -15.926612   -8.571798    1.031790
  68 H     1.0000    0     1.008  -15.034661  -10.085468   -1.853821
  69 H     1.0000    0     1.008  -14.089798  -11.408277    1.103600
  70 H     1.0000    0     1.008   -9.990982   -0.650066    0.188973
  71 H     1.0000    0     1.008   -7.143165   -6.804904    3.679297
  72 H     1.0000    0     1.008    6.778448  -12.978639   -3.482765
  73 H     1.0000    0     1.008   -4.301017   -9.021553   -0.094486
  74 H     1.0000    0     1.008    7.018443   -7.037340    3.639613
  75 H     1.0000    0     1.008    9.622485  -10.950963    3.535678
  76 H     1.0000    0     1.008   11.725751  -13.849803   -0.829590
  77 H     1.0000    0     1.008   10.191293  -14.960962    1.969095
  78 H     1.0000    0     1.008    8.993207  -15.822677   -1.065806
  79 H     1.0000    0     1.008    0.621720   -9.996651   -0.015118
  80 H     1.0000    0     1.008    4.055352   -9.150054   -3.666069
  81 H     1.0000    0     1.008   10.975529    9.422175   -3.696304
  82 H     1.0000    0     1.008    9.048009   -4.310465   -0.349599
  83 H     1.0000    0     1.008    9.184069    3.994881    3.613156
  84 H     1.0000    0     1.008   13.041000    6.672623    3.348595
  85 H     1.0000    0     1.008   13.951848   11.544337    0.672743
  86 H     1.0000    0     1.008   15.900156    8.791006    0.822031
  87 H     1.0000    0     1.008   14.968521   10.034446   -2.173185
  88 H     1.0000    0     1.008    9.983423    0.634948   -0.338261
  89 H     1.0000    0     1.008    7.029781    6.863485   -3.717091

--------------------------------
INTERNAL COORDINATES (ANGSTROEM)
--------------------------------
 C      0   0   0     0.000000000000     0.00000000     0.00000000
 C      1   0   0     5.421819436315     0.00000000     0.00000000
 C      1   2   0     2.413191662508    49.67810849     0.00000000
 C      3   1   2     1.403434715261    87.91387044   137.90375878
 C      4   3   1     1.380146369049   120.16714412     0.15170823
 C      5   4   3     2.448099058453   152.52356585     1.59740238
 C      2   1   3     1.368114030335    16.31227735   345.17894532
 C      7   2   1     1.434084376876   108.05010202   143.76922676
 C      2   1   3     1.434123425651   120.88185679    26.89934278
 C      1   2   3     1.381220112799    32.60102548   320.98709236
 N      1   2   3     1.352803755169   124.91482041    54.86149444
 N      9   2   1     1.376127174356   106.58526707   347.88838884
 N     12   9   2     2.925062050624   168.53581413   171.12065651
 N     13  12   9     2.954513327098    91.55032014    11.12112580
 N     14  13  12     2.925371258490    88.43092389   359.84326247
 C      8   7   2     1.404790019896   127.24786865   181.11170171
 C     13  12   9     1.366535034311    81.72106996   188.00453233
 C     14  13  12     5.758810554272    80.56209567   166.76250791
 C     17  13  12     1.459010623676   111.08861209   183.82872609
 C     18  14  13     2.412235892279    27.27532823    36.33507194
 C     20  18  14     1.402692767501    87.95206320   148.94598259
 C     21  20  18     1.382106725257   120.14573887   359.70382047
 C     18  14  13     2.446510985056   144.15733107    82.80075377
 C     19  17  13     1.353610726908   106.29293361   359.75308708
 C     13  12   9     1.366813447402   172.21332906    33.46711076
 C     18  14  13     1.380960173213    15.08449437   309.23336894
 N     22  21  20     1.352773077792   120.73759875     0.27865223
 C     25  13  17     1.410897586645   125.60330303   182.37774668
 C     14  13  12     1.376642291955    80.24689249   177.85461986
 C     14  13  12     5.764089607215   164.51507311   312.20821879
 C     29  14  13     1.435600919476   106.58649366   178.76395472
 C     30  14  13     2.413316804732    27.10625047    82.12560436
 C     32  30  14     1.403734305344    87.90059683   149.76154742
 C     33  32  30     1.380694028378   120.14881443   359.74174632
 C     34  33  32     2.448777858443   152.49203239     2.45173620
 C     31  29  14     1.368160809262   108.16950133     0.70383075
 C     14  13  12     1.376239804685   169.26375223   353.09862627
 C     30  14  13     1.380907310430    14.68948582   353.70041132
 N     34  33  32     1.352658863128   120.85575621     0.19603406
 C     37  14  29     1.404717053360   126.01551127   180.90772073
 C     15  14  13     1.366491126938    81.61824056   183.09049352
 C      2   1   3     4.249062720177   141.79169308   158.06605630
 C     41  15  14     1.459677704153   111.05201287   175.08990246
 C     42   2   1     2.412953791518    41.78584867   196.67237869
 C     44  42   2     1.403446472082    87.95153797   233.97558675
 C     45  44  42     1.381696421071   120.11137308     0.19721020
 C     42   2   1     2.450019795838   135.97209175   106.98722779
 C     43  41  15     1.354461516618   106.26758155     0.30894352
 C     15  14  13     1.367461151185   171.87382904   332.35056460
 C     42   2   1     1.381886391857    32.59078432   245.52765788
 C      9   2   1     1.404988612053   126.98745415   168.89272637
 N     42   2   1     1.352765315936   113.57249190   134.72381699
 H      1   2   3     1.083319435808   108.27014209   198.32408735
 H      2   1   3     1.079907866440   113.12095449   197.11983040
 H      4   3   1     1.083411740752   121.02434973   179.51321447
 H      5   4   3     1.082144629890   122.84113278   179.41401839
 H      6   5   4     1.093183424682   104.45068550   100.10121119
 H      6   5   4     1.089995412834    84.66218034   209.53459487
 H      6   5   4     1.088978879501   133.89628764   322.45360489
 H      7   2   1     1.079807853278   126.66122480   324.00764055
 H     10   1   2     1.084249510030   118.77415047   288.65298716
 H     12   9   2     1.016297692608   125.29023241   180.00180175
 H     14  13  12     1.014936943854    44.97226959   359.42596618
 H     18  14  13     1.082871645210   128.03556573   234.20482432
 H     19  17  13     1.080893611786   126.41830519   178.11313280
 H     21  20  18     1.083569563987   121.05669627   180.67006309
 H     22  21  20     1.082483256222   122.73097286   180.59748951
 H     23  18  14     1.092105306278   103.92715769   234.93429879
 H     23  18  14     1.088871893291   134.19244188    12.25587044
 H     23  18  14     1.089833473518    84.85857450   125.45241208
 H     24  19  17     1.080075460327   127.28078426   178.44613241
 H     26  18  14     1.083408048706   118.76995697   244.94906660
 H     30  14  13     1.082703098730   127.99711412   279.66882698
 H     31  29  14     1.079759695488   125.22293469   180.92530585
 H     33  32  30     1.083188810873   121.01964473   180.74284758
 H     34  33  32     1.082494341787   122.70821597   180.59516895
 H     35  34  33     1.092652735319   105.73575241    97.19771933
 H     35  34  33     1.089462711615    84.05943581   206.43036958
 H     35  34  33     1.089268102902   133.08365142   318.50306270
 H     36  31  29     1.079439669458   126.61599965   178.98859863
 H     38  30  73     1.083742127999   118.77264435   359.90091293
 H     42   2   1     1.082178358682   119.31790784   351.35534744
 H     43  41  15     1.080281907652   126.36969097   182.06329380
 H     45  44  42     1.083277434455   121.10105945   179.58025624
 H     46  45  44     1.082194529648   122.72144639   179.46906377
 H     47  42   2     1.091546151109   106.65128841   315.16475048
 H     47  42   2     1.088818625851   132.46019523    94.52397119
 H     47  42   2     1.089531091801    83.63838232   206.04504406
 H     48  43  41     1.080402239909   127.23657387   181.62955349
 H     50  42   2     1.083186502870   118.77001737    94.71359229

---------------------------
INTERNAL COORDINATES (A.U.)
---------------------------
 C      0   0   0     0.000000000000     0.00000000     0.00000000
 C      1   0   0    10.245753882206     0.00000000     0.00000000
 C      1   2   0     4.560271350803    49.67810849     0.00000000
 C      3   1   2     2.652107258681    87.91387044   137.90375878
 C      4   3   1     2.608098662229   120.16714412     0.15170823
 C      5   4   3     4.626236769187   152.52356585     1.59740238
 C      2   1   3     2.585360837309    16.31227735   345.17894532
 C      7   2   1     2.710026725231   108.05010202   143.76922676
 C      2   1   3     2.710100516721   120.88185679    26.89934278
 C      1   2   3     2.610127743854    32.60102548   320.98709236
 N      1   2   3     2.556428610210   124.91482041    54.86149444
 N      9   2   1     2.600503484979   106.58526707   347.88838884
 N     12   9   2     5.527566200405   168.53581413   171.12065651
 N     13  12   9     5.583221047236    91.55032014    11.12112580
 N     14  13  12     5.528150518591    88.43092389   359.84326247
 C      8   7   2     2.654668413270   127.24786865   181.11170171
 C     13  12   9     2.582376967257    81.72106996   188.00453233
 C     14  13  12    10.882574804710    80.56209567   166.76250791
 C     17  13  12     2.757130505230   111.08861209   183.82872609
 C     18  14  13     4.558465206823    27.27532823    36.33507194
 C     20  18  14     2.650705180609    87.95206320   148.94598259
 C     21  20  18     2.611803198586   120.14573887   359.70382047
 C     18  14  13     4.623235745386   144.15733107    82.80075377
 C     19  17  13     2.557953565794   106.29293361   359.75308708
 C     13  12   9     2.582903091751   172.21332906    33.46711076
 C     18  14  13     2.609636529225    15.08449437   309.23336894
 N     22  21  20     2.556370638369   120.73759875     0.27865223
 C     25  13  17     2.666210041769   125.60330303   182.37774668
 C     14  13  12     2.601476916169    80.24689249   177.85461986
 C     14  13  12    10.892550769017   164.51507311   312.20821879
 C     29  14  13     2.712892575415   106.58649366   178.76395472
 C     30  14  13     4.560507835333    27.10625047    82.12560436
 C     32  30  14     2.652673401891    87.90059683   149.76154742
 C     33  32  30     2.609133588376   120.14881443   359.74174632
 C     34  33  32     4.627519515267   152.49203239     2.45173620
 C     31  29  14     2.585449236669   108.16950133     0.70383075
 C     14  13  12     2.600716325456   169.26375223   353.09862627
 C     30  14  13     2.609536633043    14.68948582   353.70041132
 N     34  33  32     2.556154803934   120.85575621     0.19603406
 C     37  14  29     2.654530526499   126.01551127   180.90772073
 C     15  14  13     2.582293994346    81.61824056   183.09049352
 C      2   1   3     8.029564866989   141.79169308   158.06605630
 C     41  15  14     2.758391104639   111.05201287   175.08990246
 C     42   2   1     4.559821839776    41.78584867   196.67237869
 C     44  42   2     2.652129475853    87.95153797   233.97558675
 C     45  44  42     2.611027836043   120.11137308     0.19721020
 C     42   2   1     4.629866436820   135.97209175   106.98722779
 C     43  41  15     2.559561325344   106.26758155     0.30894352
 C     15  14  13     2.584127074516   171.87382904   332.35056460
 C     42   2   1     2.611386828803    32.59078432   245.52765788
 C      9   2   1     2.655043698059   126.98745415   168.89272637
 N     42   2   1     2.556355970587   113.57249190   134.72381699
 H      1   2   3     2.047177049232   108.27014209   198.32408735
 H      2   1   3     2.040730117440   113.12095449   197.11983040
 H      4   3   1     2.047351480297   121.02434973   179.51321447
 H      5   4   3     2.044956987786   122.84113278   179.41401839
 H      6   5   4     2.065817286792   104.45068550   100.10121119
 H      6   5   4     2.059792817487    84.66218034   209.53459487
 H      6   5   4     2.057871847882   133.89628764   322.45360489
 H      7   2   1     2.040541119952   126.66122480   324.00764055
 H     10   1   2     2.048934634795   118.77415047   288.65298716
 H     12   9   2     1.920524309565   125.29023241   180.00180175
 H     14  13  12     1.917952867083    44.97226959   359.42596618
 H     18  14  13     2.046330847636   128.03556573   234.20482432
 H     19  17  13     2.042592906181   126.41830519   178.11313280
 H     21  20  18     2.047649722989   121.05669627   180.67006309
 H     22  21  20     2.045596898814   122.73097286   180.59748951
 H     23  18  14     2.063779938267   103.92715769   234.93429879
 H     23  18  14     2.057669673245   134.19244188    12.25587044
 H     23  18  14     2.059486796529    84.85857450   125.45241208
 H     24  19  17     2.041046823986   127.28078426   178.44613241
 H     26  18  14     2.047344503340   118.76995697   244.94906660
 H     30  14  13     2.046012340948   127.99711412   279.66882698
 H     31  29  14     2.040450114918   125.22293469   180.92530585
 H     33  32  30     2.046930203877   121.01964473   180.74284758
 H     34  33  32     2.045617847496   122.70821597   180.59516895
 H     35  34  33     2.064814429233   105.73575241    97.19771933
 H     35  34  33     2.058786158072    84.05943581   206.43036958
 H     35  34  33     2.058418400901   133.08365142   318.50306270
 H     36  31  29     2.039845353366   126.61599965   178.98859863
 H     38  30  73     2.047975821711   118.77264435   359.90091293
 H     42   2   1     2.045020725966   119.31790784   351.35534744
 H     43  41  15     2.041436952892   126.36969097   182.06329380
 H     45  44  42     2.047097678177   121.10105945   179.58025624
 H     46  45  44     2.045051284662   122.72144639   179.46906377
 H     47  42   2     2.062723288131   106.65128841   315.16475048
 H     47  42   2     2.057569012371   132.46019523    94.52397119
 H     47  42   2     2.058915377895    83.63838232   206.04504406
 H     48  43  41     2.041664347903   127.23657387   181.62955349
 H     50  42   2     2.046925842384   118.77001737    94.71359229

---------------------
BASIS SET INFORMATION
---------------------
There are 3 groups of distinct atoms

 Group   1 Type C   : 17s4p1d contracted to 3s2p1d pattern {881/31/1}
 Group   2 Type N   : 17s4p1d contracted to 3s2p1d pattern {881/31/1}
 Group   3 Type H   : 4s1p contracted to 2s1p pattern {31/1}

Atom   0C    basis set group =>   1
Atom   1N    basis set group =>   2
Atom   2C    basis set group =>   1
Atom   3N    basis set group =>   2
Atom   4C    basis set group =>   1
Atom   5N    basis set group =>   2
Atom   6C    basis set group =>   1
Atom   7N    basis set group =>   2
Atom   8C    basis set group =>   1
Atom   9N    basis set group =>   2
Atom  10C    basis set group =>   1
Atom  11N    basis set group =>   2
Atom  12C    basis set group =>   1
Atom  13N    basis set group =>   2
Atom  14C    basis set group =>   1
Atom  15N    basis set group =>   2
Atom  16C    basis set group =>   1
Atom  17C    basis set group =>   1
Atom  18C    basis set group =>   1
Atom  19C    basis set group =>   1
Atom  20C    basis set group =>   1
Atom  21C    basis set group =>   1
Atom  22C    basis set group =>   1
Atom  23C    basis set group =>   1
Atom  24C    basis set group =>   1
Atom  25C    basis set group =>   1
Atom  26C    basis set group =>   1
Atom  27C    basis set group =>   1
Atom  28C    basis set group =>   1
Atom  29C    basis set group =>   1
Atom  30C    basis set group =>   1
Atom  31C    basis set group =>   1
Atom  32C    basis set group =>   1
Atom  33C    basis set group =>   1
Atom  34C    basis set group =>   1
Atom  35C    basis set group =>   1
Atom  36C    basis set group =>   1
Atom  37C    basis set group =>   1
Atom  38C    basis set group =>   1
Atom  39C    basis set group =>   1
Atom  40C    basis set group =>   1
Atom  41C    basis set group =>   1
Atom  42C    basis set group =>   1
Atom  43C    basis set group =>   1
Atom  44C    basis set group =>   1
Atom  45C    basis set group =>   1
Atom  46C    basis set group =>   1
Atom  47C    basis set group =>   1
Atom  48C    basis set group =>   1
Atom  49C    basis set group =>   1
Atom  50C    basis set group =>   1
Atom  51C    basis set group =>   1
Atom  52H    basis set group =>   3
Atom  53H    basis set group =>   3
Atom  54H    basis set group =>   3
Atom  55H    basis set group =>   3
Atom  56H    basis set group =>   3
Atom  57H    basis set group =>   3
Atom  58H    basis set group =>   3
Atom  59H    basis set group =>   3
Atom  60H    basis set group =>   3
Atom  61H    basis set group =>   3
Atom  62H    basis set group =>   3
Atom  63H    basis set group =>   3
Atom  64H    basis set group =>   3
Atom  65H    basis set group =>   3
Atom  66H    basis set group =>   3
Atom  67H    basis set group =>   3
Atom  68H    basis set group =>   3
Atom  69H    basis set group =>   3
Atom  70H    basis set group =>   3
Atom  71H    basis set group =>   3
Atom  72H    basis set group =>   3
Atom  73H    basis set group =>   3
Atom  74H    basis set group =>   3
Atom  75H    basis set group =>   3
Atom  76H    basis set group =>   3
Atom  77H    basis set group =>   3
Atom  78H    basis set group =>   3
Atom  79H    basis set group =>   3
Atom  80H    basis set group =>   3
Atom  81H    basis set group =>   3
Atom  82H    basis set group =>   3
Atom  83H    basis set group =>   3
Atom  84H    basis set group =>   3
Atom  85H    basis set group =>   3
Atom  86H    basis set group =>   3
Atom  87H    basis set group =>   3
Atom  88H    basis set group =>   3
Atom  89H    basis set group =>   3


           ************************************************************
           *        Program running with 16 parallel MPI-processes    *
           *              working on a common directory               *
           ************************************************************
------------------------------------------------------------------------------
                           ORCA GTO INTEGRAL CALCULATION
------------------------------------------------------------------------------
------------------------------------------------------------------------------
                   ___                                                        
                  /   \      - P O W E R E D   B Y -                         
                 /     \                                                     
                 |  |  |   _    _      __       _____    __    __             
                 |  |  |  | |  | |    /  \     |  _  \  |  |  /  |          
                  \  \/   | |  | |   /    \    | | | |  |  | /  /          
                 / \  \   | |__| |  /  /\  \   | |_| |  |  |/  /          
                |  |  |   |  __  | /  /__\  \  |    /   |      \           
                |  |  |   | |  | | |   __   |  |    \   |  |\   \          
                \     /   | |  | | |  |  |  |  | |\  \  |  | \   \       
                 \___/    |_|  |_| |__|  |__|  |_| \__\ |__|  \__/        
                                                                              
                      - O R C A' S   B I G   F R I E N D -                    
                                      &                                       
                       - I N T E G R A L  F E E D E R -                       
                                                                              
 v1 FN, 2020, v2 2021                                                         
------------------------------------------------------------------------------


Reading SHARK input file /scratch/allen/tmpyp4_amber_gaff2/conf1/conf1/Conf53.orca.SHARKINP.tmp ... ok
----------------------
SHARK INTEGRAL PACKAGE
----------------------

Number of atoms                             ...     90
Number of basis functions                   ...   1230
Number of shells                            ...    738
Maximum angular momentum                    ...      2
Integral batch strategy                     ... SHARK/LIBINT Hybrid
RI-J (if used) integral strategy            ... SPLIT-RIJ (Revised 2003 algorithm where possible)
Printlevel                                  ...      1
Contraction scheme used                     ... PARTIAL GENERAL contraction
Coulomb Range Separation                    ... NOT USED
Exchange Range Separation                   ... NOT USED
Finite Nucleus Model                        ... NOT USED
Auxiliary Coulomb fitting basis             ... NOT available
Auxiliary J/K fitting basis                 ... NOT available
Auxiliary Correlation fitting basis         ... NOT available
Auxiliary 'external' fitting basis          ... NOT available
Integral threshold                          ...     2.500000e-11
Primitive cut-off                           ...     2.500000e-12
Primitive pair pre-selection threshold      ...     2.500000e-12

Calculating pre-screening integrals         ... done (  0.1 sec) Dimension = 738
Calculating pre-screening integrals (ORCA)  ... done (  0.3 sec) Dimension = 426
Organizing shell pair data                  ... done (  0.8 sec)
Shell pair information
Total number of shell pairs                 ...    272691
Shell pairs after pre-screening             ...     71616
Total number of primitive shell pairs       ...    422091
Primitive shell pairs kept                  ...     92399
          la=0 lb=0:  29425 shell pairs
          la=1 lb=0:  25965 shell pairs
          la=1 lb=1:   4704 shell pairs
          la=2 lb=0:   7867 shell pairs
          la=2 lb=1:   3124 shell pairs
          la=2 lb=2:    531 shell pairs

Calculating one electron integrals          ... done (  0.3 sec)
Calculating Nuclear repulsion               ... done (  0.0 sec) ENN=   6226.518529201394 Eh

SHARK setup successfully completed in   2.2 seconds

Maximum memory used throughout the entire GTOINT-calculation: 98.9 MB


           ************************************************************
           *        Program running with 16 parallel MPI-processes    *
           *              working on a common directory               *
           ************************************************************
-------------------------------------------------------------------------------
                                 ORCA SCF
-------------------------------------------------------------------------------

------------
SCF SETTINGS
------------
Hamiltonian:
 Ab initio Hamiltonian  Method          .... Hartree-Fock(GTOs)


General Settings:
 Integral files         IntName         .... /scratch/allen/tmpyp4_amber_gaff2/conf1/conf1/Conf53.orca
 Hartree-Fock type      HFTyp           .... RHF
 Total Charge           Charge          ....    0
 Multiplicity           Mult            ....    1
 Number of Electrons    NEL             ....  358
 Basis Dimension        Dim             ....  918
 Nuclear Repulsion      ENuc            ....   6226.5185292014 Eh

Convergence Acceleration:
 DIIS                   CNVDIIS         .... on
   Start iteration      DIISMaxIt       ....    12
   Startup error        DIISStart       ....  0.200000
   # of expansion vecs  DIISMaxEq       ....     5
   Bias factor          DIISBfac        ....   1.050
   Max. coefficient     DIISMaxC        ....  10.000
 Trust-Rad. Augm. Hess. CNVTRAH         .... auto
   Auto Start mean grad. ratio tolernc. ....  1.125000
   Auto Start start iteration           ....    20
   Auto Start num. interpolation iter.  ....    10
   Max. Number of Micro iterations      ....    16
   Max. Number of Macro iterations      .... Maxiter - #DIIS iter
   Number of Davidson start vectors     ....     2
   Converg. threshold I  (grad. norm)   ....   1.000e-05
   Converg. threshold II (energy diff.) ....   1.000e-08
   Grad. Scal. Fac. for Micro threshold ....   0.100
   Minimum threshold for Micro iter.    ....   0.010
   NR start threshold (gradient norm)   ....   0.001
   Initial trust radius                 ....   0.400
   Minimum AH scaling param. (alpha)    ....   1.000
   Maximum AH scaling param. (alpha)    .... 1000.000
   Orbital update algorithm             .... Taylor
   White noise on init. David. guess    .... on
   Maximum white noise                  ....   0.010
   Quad. conv. algorithm                .... NR
 SOSCF                  CNVSOSCF        .... on
   Start iteration      SOSCFMaxIt      ....   150
   Startup grad/error   SOSCFStart      ....  0.003300
 Level Shifting         CNVShift        .... on
   Level shift para.    LevelShift      ....    0.2500
   Turn off err/grad.   ShiftErr        ....    0.0010
 Zerner damping         CNVZerner       .... off
 Static damping         CNVDamp         .... on
   Fraction old density DampFac         ....    0.7000
   Max. Damping (<1)    DampMax         ....    0.9800
   Min. Damping (>=0)   DampMin         ....    0.0000
   Turn off err/grad.   DampErr         ....    0.1000
 Fernandez-Rico         CNVRico         .... off

SCF Procedure:
 Maximum # iterations   MaxIter         ....   125
 SCF integral mode      SCFMode         .... Direct
   Integral package                     .... SHARK and LIBINT hybrid scheme
 Reset frequency        DirectResetFreq ....    20
 Integral Threshold     Thresh          ....  2.500e-11 Eh
 Primitive CutOff       TCut            ....  2.500e-12 Eh

Convergence Tolerance:
 Convergence Check Mode ConvCheckMode   .... Total+1el-Energy
 Convergence forced     ConvForced      .... 1
 Energy Change          TolE            ....  1.000e-08 Eh
 1-El. energy change                    ....  1.000e-05 Eh
 Orbital Gradient       TolG            ....  1.000e-05
 Orbital Rotation angle TolX            ....  1.000e-05
 DIIS Error             TolErr          ....  5.000e-07


Diagonalization of the overlap matrix:
Smallest eigenvalue                        ... 2.243e-04
Time for diagonalization                   ...    0.351 sec
Threshold for overlap eigenvalues          ... 1.000e-08
Number of eigenvalues below threshold      ... 0
Time for construction of square roots      ...    0.245 sec
Total time needed                          ...    0.602 sec

Time for model grid setup =    1.052 sec

------------------------------
INITIAL GUESS: MODEL POTENTIAL
------------------------------
Loading Hartree-Fock densities                     ... done
Calculating cut-offs                               ... done
Initializing the effective Hamiltonian             ... done
Setting up the integral package (SHARK)            ... done
Starting the Coulomb interaction                   ... done (   1.1 sec)
Reading the grid                                   ... done
Mapping shells                                     ... done
Starting the XC term evaluation                    ... done (   0.2 sec)
Transforming the Hamiltonian                       ... done (   0.2 sec)
Diagonalizing the Hamiltonian                      ... done (   0.3 sec)
Back transforming the eigenvectors                 ... done (   0.1 sec)
Now organizing SCF variables                       ... done
                      ------------------
                      INITIAL GUESS DONE (   3.1 sec)
                      ------------------
--------------
SCF ITERATIONS
--------------
ITER       Energy         Delta-E        Max-DP      RMS-DP      [F,P]     Damp
               ***  Starting incremental Fock matrix formation  ***
  0  -2121.6775347765   0.000000000000 0.06893669  0.00121151  0.2328915 0.7000
  1  -2122.3411508639  -0.663616087377 0.05228450  0.00098402  0.1441140 0.7000
                               ***Turning on DIIS***
  2  -2122.7532785411  -0.412127677151 0.11605716  0.00222939  0.0802430 0.0000
  3  -2117.7618328686   4.991445672476 0.03058485  0.00068330  0.0442131 0.0000
  4  -2123.4150922294  -5.653259360792 0.00914422  0.00022877  0.0070178 0.0000
  5  -2123.5920315979  -0.176939368486 0.00519289  0.00013533  0.0049231 0.0000
  6  -2123.5752579037   0.016773694140 0.00340880  0.00008765  0.0019631 0.0000
  7  -2123.6796374110  -0.104379507302 0.00287168  0.00006914  0.0015084 0.0000
  8  -2123.6970791674  -0.017441756387 0.00286425  0.00006490  0.0014066 0.0000
  9  -2123.6618290973   0.035250070070 0.00229649  0.00004419  0.0011119 0.0000
 10  -2123.6755331181  -0.013704020783 0.00470359  0.00008703  0.0008484 0.0000
                      *** Initiating the SOSCF procedure ***
                           *** Shutting down DIIS ***
                      *** Re-Reading the Fockian *** 
                      *** Removing any level shift *** 
ITER      Energy       Delta-E        Grad      Rot      Max-DP    RMS-DP
 11  -2123.55898755   0.1165455633  0.000308  0.000308  0.000284  0.000006
               *** Restarting incremental Fock matrix formation ***
 12  -2123.62430296  -0.0653154005  0.000949  0.006423  0.001124  0.000027
 13  -2123.62437038  -0.0000674279  0.001016  0.026651  0.004534  0.000093
 14  -2123.62445912  -0.0000887339  0.000449  0.002239  0.000537  0.000011
 15  -2123.62447125  -0.0000121329  0.000152  0.002229  0.000724  0.000011
 16  -2123.62447684  -0.0000055857  0.000113  0.003509  0.000722  0.000014
 17  -2123.62448058  -0.0000037406  0.000129  0.002873  0.000503  0.000010
 18  -2123.62448250  -0.0000019195  0.000063  0.001666  0.000250  0.000006
 19  -2123.62448362  -0.0000011262  0.000063  0.000728  0.000190  0.000004
 20  -2123.62448403  -0.0000004048  0.000032  0.000576  0.000140  0.000002
 21  -2123.62448418  -0.0000001559  0.000026  0.000288  0.000066  0.000001
 22  -2123.62448428  -0.0000001009  0.000018  0.000484  0.000110  0.000002
 23  -2123.62448436  -0.0000000793  0.000012  0.000246  0.000057  0.000001
 24  -2123.62448439  -0.0000000246  0.000006  0.000172  0.000038  0.000001
 25  -2123.62448440  -0.0000000173  0.000005  0.000099  0.000025  0.000000
 26  -2123.62448442  -0.0000000107  0.000003  0.000071  0.000019  0.000000
                  ***Gradient check signals convergence***
              ***Rediagonalizing the Fockian in SOSCF/NRSCF***

               *****************************************************
               *                     SUCCESS                       *
               *           SCF CONVERGED AFTER  27 CYCLES          *
               *****************************************************


----------------
TOTAL SCF ENERGY
----------------

Total Energy       :        -2123.62448442 Eh          -57786.76004 eV

Components:
Nuclear Repulsion  :         6226.51852920 Eh          169432.18295 eV
Electronic Energy  :        -8350.14301362 Eh         -227218.94299 eV
One Electron Energy:       -15294.08440572 Eh         -416173.19452 eV
Two Electron Energy:         6943.94139210 Eh          188954.25153 eV

Virial components:
Potential Energy   :        -4245.64885808 Eh         -115529.97886 eV
Kinetic Energy     :         2122.02437366 Eh           57743.21882 eV
Virial Ratio       :            2.00075405


---------------
SCF CONVERGENCE
---------------

  Last Energy change         ...   -3.7653e-09  Tolerance :   1.0000e-08
  Last MAX-Density change    ...    1.8722e-05  Tolerance :   1.0000e-07
  Last RMS-Density change    ...    3.2050e-07  Tolerance :   5.0000e-09
  Last Orbital Gradient      ...    2.4305e-06  Tolerance :   1.0000e-05
  Last Orbital Rotation      ...    8.2241e-05  Tolerance :   1.0000e-05

             **** THE GBW FILE WAS UPDATED (/scratch/allen/tmpyp4_amber_gaff2/conf1/conf1/Conf53.orca.gbw) ****
             **** DENSITY /scratch/allen/tmpyp4_amber_gaff2/conf1/conf1/Conf53.orca.scfp WAS UPDATED ****
             **** ENERGY FILE WAS UPDATED (/scratch/allen/tmpyp4_amber_gaff2/conf1/conf1/Conf53.orca.en.tmp) ****
             **** THE GBW FILE WAS UPDATED (/scratch/allen/tmpyp4_amber_gaff2/conf1/conf1/Conf53.orca.gbw) ****
             **** DENSITY /scratch/allen/tmpyp4_amber_gaff2/conf1/conf1/Conf53.orca.scfp WAS UPDATED ****
----------------
ORBITAL ENERGIES
----------------

  NO   OCC          E(Eh)            E(eV) 
   0   2.0000     -15.648708      -425.8230 
   1   2.0000     -15.637465      -425.5171 
   2   2.0000     -15.629997      -425.3138 
   3   2.0000     -15.614175      -424.8833 
   4   2.0000     -15.520494      -422.3341 
   5   2.0000     -15.516409      -422.2230 
   6   2.0000     -15.446652      -420.3248 
   7   2.0000     -15.443354      -420.2350 
   8   2.0000     -11.308666      -307.7245 
   9   2.0000     -11.303780      -307.5915 
  10   2.0000     -11.301714      -307.5353 
  11   2.0000     -11.301436      -307.5277 
  12   2.0000     -11.296931      -307.4051 
  13   2.0000     -11.294030      -307.3262 
  14   2.0000     -11.291424      -307.2553 
  15   2.0000     -11.287819      -307.1572 
  16   2.0000     -11.287571      -307.1504 
  17   2.0000     -11.286300      -307.1158 
  18   2.0000     -11.275714      -306.8278 
  19   2.0000     -11.274268      -306.7884 
  20   2.0000     -11.252688      -306.2012 
  21   2.0000     -11.241281      -305.8908 
  22   2.0000     -11.240832      -305.8786 
  23   2.0000     -11.240387      -305.8665 
  24   2.0000     -11.234499      -305.7063 
  25   2.0000     -11.233355      -305.6751 
  26   2.0000     -11.232567      -305.6537 
  27   2.0000     -11.227959      -305.5283 
  28   2.0000     -11.227803      -305.5241 
  29   2.0000     -11.221985      -305.3657 
  30   2.0000     -11.216295      -305.2109 
  31   2.0000     -11.215409      -305.1868 
  32   2.0000     -11.202634      -304.8392 
  33   2.0000     -11.202164      -304.8264 
  34   2.0000     -11.193408      -304.5881 
  35   2.0000     -11.192810      -304.5718 
  36   2.0000     -11.176925      -304.1396 
  37   2.0000     -11.175781      -304.1085 
  38   2.0000     -11.175616      -304.1040 
  39   2.0000     -11.171780      -303.9996 
  40   2.0000     -11.168317      -303.9054 
  41   2.0000     -11.168138      -303.9005 
  42   2.0000     -11.166850      -303.8654 
  43   2.0000     -11.164617      -303.8047 
  44   2.0000     -11.162756      -303.7540 
  45   2.0000     -11.160869      -303.7027 
  46   2.0000     -11.151916      -303.4591 
  47   2.0000     -11.149044      -303.3809 
  48   2.0000     -11.148113      -303.3556 
  49   2.0000     -11.145635      -303.2881 
  50   2.0000     -11.139978      -303.1342 
  51   2.0000     -11.135951      -303.0246 
  52   2.0000      -1.333876       -36.2966 
  53   2.0000      -1.324166       -36.0324 
  54   2.0000      -1.317798       -35.8591 
  55   2.0000      -1.304902       -35.5082 
  56   2.0000      -1.219542       -33.1854 
  57   2.0000      -1.212458       -32.9927 
  58   2.0000      -1.163887       -31.6710 
  59   2.0000      -1.156519       -31.4705 
  60   2.0000      -1.121228       -30.5102 
  61   2.0000      -1.112374       -30.2692 
  62   2.0000      -1.106971       -30.1222 
  63   2.0000      -1.096727       -29.8435 
  64   2.0000      -1.057393       -28.7731 
  65   2.0000      -1.048086       -28.5199 
  66   2.0000      -1.042419       -28.3657 
  67   2.0000      -1.031187       -28.0600 
  68   2.0000      -1.028401       -27.9842 
  69   2.0000      -1.011028       -27.5115 
  70   2.0000      -1.009708       -27.4755 
  71   2.0000      -0.996381       -27.1129 
  72   2.0000      -0.983790       -26.7703 
  73   2.0000      -0.975273       -26.5385 
  74   2.0000      -0.971002       -26.4223 
  75   2.0000      -0.959770       -26.1167 
  76   2.0000      -0.951915       -25.9029 
  77   2.0000      -0.945605       -25.7312 
  78   2.0000      -0.939224       -25.5576 
  79   2.0000      -0.923213       -25.1219 
  80   2.0000      -0.894603       -24.3434 
  81   2.0000      -0.883048       -24.0289 
  82   2.0000      -0.875199       -23.8154 
  83   2.0000      -0.869704       -23.6659 
  84   2.0000      -0.862390       -23.4668 
  85   2.0000      -0.856713       -23.3124 
  86   2.0000      -0.849085       -23.1048 
  87   2.0000      -0.842076       -22.9140 
  88   2.0000      -0.821983       -22.3673 
  89   2.0000      -0.798690       -21.7335 
  90   2.0000      -0.797429       -21.6992 
  91   2.0000      -0.740345       -20.1458 
  92   2.0000      -0.732350       -19.9283 
  93   2.0000      -0.729588       -19.8531 
  94   2.0000      -0.721201       -19.6249 
  95   2.0000      -0.720672       -19.6105 
  96   2.0000      -0.712620       -19.3914 
  97   2.0000      -0.708064       -19.2674 
  98   2.0000      -0.699756       -19.0413 
  99   2.0000      -0.693541       -18.8722 
 100   2.0000      -0.687310       -18.7027 
 101   2.0000      -0.681315       -18.5395 
 102   2.0000      -0.678950       -18.4752 
 103   2.0000      -0.674126       -18.3439 
 104   2.0000      -0.669704       -18.2236 
 105   2.0000      -0.665206       -18.1012 
 106   2.0000      -0.664149       -18.0724 
 107   2.0000      -0.659163       -17.9367 
 108   2.0000      -0.658327       -17.9140 
 109   2.0000      -0.656268       -17.8580 
 110   2.0000      -0.652434       -17.7536 
 111   2.0000      -0.649562       -17.6755 
 112   2.0000      -0.647004       -17.6059 
 113   2.0000      -0.640385       -17.4258 
 114   2.0000      -0.635264       -17.2864 
 115   2.0000      -0.624156       -16.9841 
 116   2.0000      -0.623429       -16.9644 
 117   2.0000      -0.615006       -16.7352 
 118   2.0000      -0.612372       -16.6635 
 119   2.0000      -0.609530       -16.5862 
 120   2.0000      -0.609256       -16.5787 
 121   2.0000      -0.603753       -16.4290 
 122   2.0000      -0.597874       -16.2690 
 123   2.0000      -0.592179       -16.1140 
 124   2.0000      -0.591435       -16.0938 
 125   2.0000      -0.583815       -15.8864 
 126   2.0000      -0.579295       -15.7634 
 127   2.0000      -0.573503       -15.6058 
 128   2.0000      -0.569172       -15.4880 
 129   2.0000      -0.560250       -15.2452 
 130   2.0000      -0.553791       -15.0694 
 131   2.0000      -0.546623       -14.8744 
 132   2.0000      -0.540817       -14.7164 
 133   2.0000      -0.536103       -14.5881 
 134   2.0000      -0.534312       -14.5394 
 135   2.0000      -0.528994       -14.3946 
 136   2.0000      -0.525789       -14.3075 
 137   2.0000      -0.522874       -14.2281 
 138   2.0000      -0.520510       -14.1638 
 139   2.0000      -0.516107       -14.0440 
 140   2.0000      -0.510789       -13.8993 
 141   2.0000      -0.506194       -13.7742 
 142   2.0000      -0.505246       -13.7484 
 143   2.0000      -0.501475       -13.6458 
 144   2.0000      -0.500226       -13.6118 
 145   2.0000      -0.498359       -13.5610 
 146   2.0000      -0.495731       -13.4895 
 147   2.0000      -0.492141       -13.3918 
 148   2.0000      -0.490380       -13.3439 
 149   2.0000      -0.469471       -12.7750 
 150   2.0000      -0.461328       -12.5534 
 151   2.0000      -0.452949       -12.3254 
 152   2.0000      -0.448134       -12.1944 
 153   2.0000      -0.446836       -12.1590 
 154   2.0000      -0.446123       -12.1396 
 155   2.0000      -0.439606       -11.9623 
 156   2.0000      -0.435467       -11.8497 
 157   2.0000      -0.430858       -11.7242 
 158   2.0000      -0.393747       -10.7144 
 159   2.0000      -0.384964       -10.4754 
 160   2.0000      -0.377941       -10.2843 
 161   2.0000      -0.372167       -10.1272 
 162   2.0000      -0.366684        -9.9780 
 163   2.0000      -0.358688        -9.7604 
 164   2.0000      -0.354027        -9.6336 
 165   2.0000      -0.343212        -9.3393 
 166   2.0000      -0.337132        -9.1738 
 167   2.0000      -0.334076        -9.0907 
 168   2.0000      -0.328978        -8.9520 
 169   2.0000      -0.300320        -8.1721 
 170   2.0000      -0.297202        -8.0873 
 171   2.0000      -0.288614        -7.8536 
 172   2.0000      -0.287018        -7.8101 
 173   2.0000      -0.256791        -6.9876 
 174   2.0000      -0.247876        -6.7451 
 175   2.0000      -0.188632        -5.1329 
 176   2.0000      -0.178636        -4.8609 
 177   2.0000      -0.068307        -1.8587 
 178   2.0000      -0.055239        -1.5031 
 179   0.0000       0.030321         0.8251 
 180   0.0000       0.070230         1.9111 
 181   0.0000       0.092712         2.5228 
 182   0.0000       0.099262         2.7011 
 183   0.0000       0.127433         3.4676 
 184   0.0000       0.135191         3.6787 
 185   0.0000       0.140670         3.8278 
 186   0.0000       0.151951         4.1348 
 187   0.0000       0.157196         4.2775 
 188   0.0000       0.161060         4.3827 
 189   0.0000       0.163389         4.4460 
 190   0.0000       0.166997         4.5442 
 191   0.0000       0.174596         4.7510 
 192   0.0000       0.196950         5.3593 
 193   0.0000       0.200305         5.4506 
 194   0.0000       0.203155         5.5281 
 195   0.0000       0.206628         5.6226 
 196   0.0000       0.206965         5.6318 
 197   0.0000       0.210102         5.7172 
 198   0.0000       0.214533         5.8377 
 199   0.0000       0.218261         5.9392 
 200   0.0000       0.231723         6.3055 
 201   0.0000       0.237985         6.4759 
 202   0.0000       0.241185         6.5630 
 203   0.0000       0.248340         6.7577 
 204   0.0000       0.249431         6.7874 
 205   0.0000       0.255143         6.9428 
 206   0.0000       0.256818         6.9884 
 207   0.0000       0.258326         7.0294 
 208   0.0000       0.263357         7.1663 
 209   0.0000       0.264087         7.1862 
 210   0.0000       0.267354         7.2751 
 211   0.0000       0.269611         7.3365 
 212   0.0000       0.272183         7.4065 
 213   0.0000       0.275287         7.4910 
 214   0.0000       0.277305         7.5459 
 215   0.0000       0.279862         7.6154 
 216   0.0000       0.280889         7.6434 
 217   0.0000       0.282157         7.6779 
 218   0.0000       0.287112         7.8127 
 219   0.0000       0.289024         7.8648 
 220   0.0000       0.289642         7.8816 
 221   0.0000       0.291889         7.9427 
 222   0.0000       0.294123         8.0035 
 223   0.0000       0.295224         8.0334 
 224   0.0000       0.298345         8.1184 
 225   0.0000       0.300432         8.1752 
 226   0.0000       0.303412         8.2563 
 227   0.0000       0.307878         8.3778 
 228   0.0000       0.308885         8.4052 
 229   0.0000       0.312806         8.5119 
 230   0.0000       0.317274         8.6335 
 231   0.0000       0.319262         8.6875 
 232   0.0000       0.324832         8.8391 
 233   0.0000       0.330097         8.9824 
 234   0.0000       0.332597         9.0504 
 235   0.0000       0.340695         9.2708 
 236   0.0000       0.356184         9.6923 
 237   0.0000       0.386464        10.5162 
 238   0.0000       0.394433        10.7331 
 239   0.0000       0.400168        10.8891 
 240   0.0000       0.405310        11.0291 
 241   0.0000       0.414405        11.2765 
 242   0.0000       0.420353        11.4384 
 243   0.0000       0.423936        11.5359 
 244   0.0000       0.430861        11.7243 
 245   0.0000       0.431288        11.7359 
 246   0.0000       0.433208        11.7882 
 247   0.0000       0.439249        11.9526 
 248   0.0000       0.441663        12.0183 
 249   0.0000       0.443150        12.0587 
 250   0.0000       0.446569        12.1518 
 251   0.0000       0.453216        12.3326 
 252   0.0000       0.456522        12.4226 
 253   0.0000       0.465532        12.6678 
 254   0.0000       0.470922        12.8144 
 255   0.0000       0.474273        12.9056 
 256   0.0000       0.482645        13.1334 
 257   0.0000       0.485622        13.2145 
 258   0.0000       0.493514        13.4292 
 259   0.0000       0.496751        13.5173 
 260   0.0000       0.499965        13.6047 
 261   0.0000       0.503375        13.6975 
 262   0.0000       0.505792        13.7633 
 263   0.0000       0.510567        13.8932 
 264   0.0000       0.511883        13.9291 
 265   0.0000       0.514843        14.0096 
 266   0.0000       0.518651        14.1132 
 267   0.0000       0.523254        14.2385 
 268   0.0000       0.535384        14.5685 
 269   0.0000       0.537889        14.6367 
 270   0.0000       0.542125        14.7520 
 271   0.0000       0.546202        14.8629 
 272   0.0000       0.546602        14.8738 
 273   0.0000       0.553754        15.0684 
 274   0.0000       0.559664        15.2292 
 275   0.0000       0.563516        15.3341 
 276   0.0000       0.572540        15.5796 
 277   0.0000       0.577909        15.7257 
 278   0.0000       0.580751        15.8030 
 279   0.0000       0.585055        15.9202 
 280   0.0000       0.587480        15.9861 
 281   0.0000       0.591574        16.0975 
 282   0.0000       0.594503        16.1773 
 283   0.0000       0.597204        16.2507 
 284   0.0000       0.600486        16.3400 
 285   0.0000       0.601186        16.3591 
 286   0.0000       0.607242        16.5239 
 287   0.0000       0.607845        16.5403 
 288   0.0000       0.612014        16.6537 
 289   0.0000       0.614875        16.7316 
 290   0.0000       0.620133        16.8747 
 291   0.0000       0.627842        17.0844 
 292   0.0000       0.637933        17.3590 
 293   0.0000       0.638818        17.3831 
 294   0.0000       0.642968        17.4961 
 295   0.0000       0.651360        17.7244 
 296   0.0000       0.656329        17.8596 
 297   0.0000       0.659616        17.9491 
 298   0.0000       0.663208        18.0468 
 299   0.0000       0.664538        18.0830 
 300   0.0000       0.669842        18.2273 
 301   0.0000       0.671707        18.2781 
 302   0.0000       0.678791        18.4708 
 303   0.0000       0.680870        18.5274 
 304   0.0000       0.683645        18.6029 
 305   0.0000       0.686120        18.6703 
 306   0.0000       0.691160        18.8074 
 307   0.0000       0.691800        18.8248 
 308   0.0000       0.698250        19.0003 
 309   0.0000       0.700016        19.0484 
 310   0.0000       0.703675        19.1480 
 311   0.0000       0.705015        19.1844 
 312   0.0000       0.706255        19.2182 
 313   0.0000       0.708938        19.2912 
 314   0.0000       0.713425        19.4133 
 315   0.0000       0.714764        19.4497 
 316   0.0000       0.715174        19.4609 
 317   0.0000       0.718077        19.5399 
 318   0.0000       0.719274        19.5724 
 319   0.0000       0.722723        19.6663 
 320   0.0000       0.726201        19.7609 
 321   0.0000       0.727481        19.7958 
 322   0.0000       0.732118        19.9219 
 323   0.0000       0.735065        20.0021 
 324   0.0000       0.737520        20.0689 
 325   0.0000       0.742181        20.1958 
 326   0.0000       0.744128        20.2487 
 327   0.0000       0.745756        20.2931 
 328   0.0000       0.748408        20.3652 
 329   0.0000       0.749066        20.3831 
 330   0.0000       0.753572        20.5057 
 331   0.0000       0.755601        20.5610 
 332   0.0000       0.757746        20.6193 
 333   0.0000       0.761876        20.7317 
 334   0.0000       0.766509        20.8578 
 335   0.0000       0.773179        21.0393 
 336   0.0000       0.774967        21.0879 
 337   0.0000       0.780792        21.2464 
 338   0.0000       0.782272        21.2867 
 339   0.0000       0.788935        21.4680 
 340   0.0000       0.790637        21.5143 
 341   0.0000       0.792858        21.5748 
 342   0.0000       0.798748        21.7350 
 343   0.0000       0.800073        21.7711 
 344   0.0000       0.804653        21.8957 
 345   0.0000       0.807499        21.9732 
 346   0.0000       0.808819        22.0091 
 347   0.0000       0.811750        22.0888 
 348   0.0000       0.814461        22.1626 
 349   0.0000       0.815543        22.1921 
 350   0.0000       0.821461        22.3531 
 351   0.0000       0.823886        22.4191 
 352   0.0000       0.825195        22.4547 
 353   0.0000       0.829809        22.5803 
 354   0.0000       0.831323        22.6214 
 355   0.0000       0.833164        22.6715 
 356   0.0000       0.834412        22.7055 
 357   0.0000       0.835138        22.7253 
 358   0.0000       0.836523        22.7629 
 359   0.0000       0.838918        22.8281 
 360   0.0000       0.840224        22.8637 
 361   0.0000       0.841485        22.8980 
 362   0.0000       0.843388        22.9498 
 363   0.0000       0.844328        22.9753 
 364   0.0000       0.846449        23.0330 
 365   0.0000       0.849364        23.1124 
 366   0.0000       0.850696        23.1486 
 367   0.0000       0.853206        23.2169 
 368   0.0000       0.859664        23.3926 
 369   0.0000       0.861275        23.4365 
 370   0.0000       0.865226        23.5440 
 371   0.0000       0.870125        23.6773 
 372   0.0000       0.873848        23.7786 
 373   0.0000       0.877623        23.8813 
 374   0.0000       0.879059        23.9204 
 375   0.0000       0.883030        24.0285 
 376   0.0000       0.885980        24.1087 
 377   0.0000       0.887690        24.1553 
 378   0.0000       0.891657        24.2632 
 379   0.0000       0.896125        24.3848 
 380   0.0000       0.897134        24.4123 
 381   0.0000       0.899590        24.4791 
 382   0.0000       0.901152        24.5216 
 383   0.0000       0.902867        24.5683 
 384   0.0000       0.903535        24.5864 
 385   0.0000       0.906672        24.6718 
 386   0.0000       0.908820        24.7302 
 387   0.0000       0.910757        24.7829 
 388   0.0000       0.912295        24.8248 
 389   0.0000       0.913001        24.8440 
 390   0.0000       0.917843        24.9758 
 391   0.0000       0.918732        25.0000 
 392   0.0000       0.922306        25.0972 
 393   0.0000       0.924644        25.1608 
 394   0.0000       0.928075        25.2542 
 395   0.0000       0.932919        25.3860 
 396   0.0000       0.934175        25.4202 
 397   0.0000       0.935544        25.4575 
 398   0.0000       0.938429        25.5359 
 399   0.0000       0.940792        25.6002 
 400   0.0000       0.944227        25.6937 
 401   0.0000       0.946103        25.7448 
 402   0.0000       0.949962        25.8498 
 403   0.0000       0.953046        25.9337 
 404   0.0000       0.954316        25.9683 
 405   0.0000       0.955701        26.0060 
 406   0.0000       0.962916        26.2023 
 407   0.0000       0.964057        26.2333 
 408   0.0000       0.968079        26.3428 
 409   0.0000       0.972301        26.4577 
 410   0.0000       0.976996        26.5854 
 411   0.0000       0.978455        26.6251 
 412   0.0000       0.985482        26.8163 
 413   0.0000       0.985835        26.8259 
 414   0.0000       0.989264        26.9193 
 415   0.0000       0.990832        26.9619 
 416   0.0000       0.995903        27.0999 
 417   0.0000       1.002736        27.2858 
 418   0.0000       1.007616        27.4186 
 419   0.0000       1.015866        27.6431 
 420   0.0000       1.022003        27.8101 
 421   0.0000       1.029329        28.0095 
 422   0.0000       1.032212        28.0879 
 423   0.0000       1.038767        28.2663 
 424   0.0000       1.042148        28.3583 
 425   0.0000       1.047600        28.5067 
 426   0.0000       1.051299        28.6073 
 427   0.0000       1.066495        29.0208 
 428   0.0000       1.068953        29.0877 
 429   0.0000       1.072043        29.1718 
 430   0.0000       1.075669        29.2705 
 431   0.0000       1.079488        29.3744 
 432   0.0000       1.083831        29.4925 
 433   0.0000       1.091917        29.7126 
 434   0.0000       1.097746        29.8712 
 435   0.0000       1.098913        29.9029 
 436   0.0000       1.107095        30.1256 
 437   0.0000       1.111806        30.2538 
 438   0.0000       1.116253        30.3748 
 439   0.0000       1.117627        30.4122 
 440   0.0000       1.119348        30.4590 
 441   0.0000       1.124287        30.5934 
 442   0.0000       1.128586        30.7104 
 443   0.0000       1.131517        30.7901 
 444   0.0000       1.134058        30.8593 
 445   0.0000       1.134719        30.8773 
 446   0.0000       1.137749        30.9597 
 447   0.0000       1.142086        31.0777 
 448   0.0000       1.144056        31.1314 
 449   0.0000       1.145209        31.1627 
 450   0.0000       1.149622        31.2828 
 451   0.0000       1.150650        31.3108 
 452   0.0000       1.155571        31.4447 
 453   0.0000       1.157277        31.4911 
 454   0.0000       1.161539        31.6071 
 455   0.0000       1.169269        31.8174 
 456   0.0000       1.174962        31.9724 
 457   0.0000       1.176149        32.0046 
 458   0.0000       1.177205        32.0334 
 459   0.0000       1.187074        32.3019 
 460   0.0000       1.188477        32.3401 
 461   0.0000       1.192217        32.4419 
 462   0.0000       1.204227        32.7687 
 463   0.0000       1.205443        32.8018 
 464   0.0000       1.207460        32.8566 
 465   0.0000       1.210700        32.9448 
 466   0.0000       1.212300        32.9884 
 467   0.0000       1.217598        33.1325 
 468   0.0000       1.223487        33.2928 
 469   0.0000       1.227333        33.3974 
 470   0.0000       1.232759        33.5451 
 471   0.0000       1.234598        33.5951 
 472   0.0000       1.236934        33.6587 
 473   0.0000       1.239925        33.7401 
 474   0.0000       1.242269        33.8039 
 475   0.0000       1.247609        33.9492 
 476   0.0000       1.249585        34.0029 
 477   0.0000       1.250061        34.0159 
 478   0.0000       1.252581        34.0845 
 479   0.0000       1.255282        34.1580 
 480   0.0000       1.257065        34.2065 
 481   0.0000       1.265886        34.4465 
 482   0.0000       1.267794        34.4984 
 483   0.0000       1.272292        34.6208 
 484   0.0000       1.274849        34.6904 
 485   0.0000       1.278389        34.7867 
 486   0.0000       1.279613        34.8200 
 487   0.0000       1.281671        34.8760 
 488   0.0000       1.288121        35.0516 
 489   0.0000       1.290208        35.1083 
 490   0.0000       1.291403        35.1409 
 491   0.0000       1.295045        35.2400 
 492   0.0000       1.301575        35.4176 
 493   0.0000       1.308807        35.6144 
 494   0.0000       1.312208        35.7070 
 495   0.0000       1.314195        35.7611 
 496   0.0000       1.319156        35.8961 
 497   0.0000       1.321705        35.9654 
 498   0.0000       1.326468        36.0950 
 499   0.0000       1.329915        36.1888 
 500   0.0000       1.333150        36.2769 
 501   0.0000       1.338285        36.4166 
 502   0.0000       1.340815        36.4854 
 503   0.0000       1.345041        36.6004 
 504   0.0000       1.348142        36.6848 
 505   0.0000       1.352264        36.7970 
 506   0.0000       1.354682        36.8628 
 507   0.0000       1.357346        36.9353 
 508   0.0000       1.361614        37.0514 
 509   0.0000       1.363776        37.1102 
 510   0.0000       1.364748        37.1367 
 511   0.0000       1.366677        37.1892 
[...]
      pz      :     0.022004  p :     0.079614
      px      :     0.043368
      py      :     0.014242
 77 H s       :     0.888078  s :     0.888078
      pz      :     0.047703  p :     0.078977
      px      :     0.015014
      py      :     0.016260
 78 H s       :     0.888450  s :     0.888450
      pz      :     0.025743  p :     0.078925
      px      :     0.020534
      py      :     0.032647
 79 H s       :     0.909502  s :     0.909502
      pz      :     0.022052  p :     0.086619
      px      :     0.021744
      py      :     0.042823
 80 H s       :     0.869324  s :     0.869324
      pz      :     0.038987  p :     0.084265
      px      :     0.029997
      py      :     0.015281
 81 H s       :     0.887126  s :     0.887126
      pz      :     0.037767  p :     0.083931
      px      :     0.016152
      py      :     0.030013
 82 H s       :     0.915207  s :     0.915207
      pz      :     0.022058  p :     0.086833
      px      :     0.031435
      py      :     0.033340
 83 H s       :     0.872677  s :     0.872677
      pz      :     0.039277  p :     0.084019
      px      :     0.015255
      py      :     0.029487
 84 H s       :     0.886868  s :     0.886868
      pz      :     0.035798  p :     0.083665
      px      :     0.031727
      py      :     0.016140
 85 H s       :     0.893369  s :     0.893369
      pz      :     0.022501  p :     0.079755
      px      :     0.014080
      py      :     0.043174
 86 H s       :     0.890715  s :     0.890715
      pz      :     0.024730  p :     0.078862
      px      :     0.032998
      py      :     0.021135
 87 H s       :     0.890071  s :     0.890071
      pz      :     0.047977  p :     0.078717
      px      :     0.015605
      py      :     0.015135
 88 H s       :     0.912975  s :     0.912975
      pz      :     0.021907  p :     0.086949
      px      :     0.042644
      py      :     0.022398
 89 H s       :     0.872250  s :     0.872250
      pz      :     0.037905  p :     0.083871
      px      :     0.030484
      py      :     0.015482


                      *****************************
                      * MAYER POPULATION ANALYSIS *
                      *****************************

  NA   - Mulliken gross atomic population
  ZA   - Total nuclear charge
  QA   - Mulliken gross atomic charge
  VA   - Mayer's total valence
  BVA  - Mayer's bonded valence
  FA   - Mayer's free valence

  ATOM       NA         ZA         QA         VA         BVA        FA
  0 C      5.7936     6.0000     0.2064     3.8320     3.8320    -0.0000
  1 N      7.4474     7.0000    -0.4474     3.3529     3.3529    -0.0000
  2 C      6.0631     6.0000    -0.0631     3.9190     3.9190    -0.0000
  3 N      7.3365     7.0000    -0.3365     3.4492     3.4492     0.0000
  4 C      6.0569     6.0000    -0.0569     3.9840     3.9840    -0.0000
  5 N      7.5631     7.0000    -0.5631     3.0876     3.0876    -0.0000
  6 C      6.0821     6.0000    -0.0821     4.0014     4.0014    -0.0000
  7 N      7.3385     7.0000    -0.3385     3.4396     3.4396     0.0000
  8 C      5.7941     6.0000     0.2059     3.8328     3.8328    -0.0000
  9 N      7.5630     7.0000    -0.5630     3.0818     3.0818    -0.0000
 10 C      5.8837     6.0000     0.1163     3.8997     3.8997     0.0000
 11 N      7.4376     7.0000    -0.4376     3.3825     3.3825    -0.0000
 12 C      6.0766     6.0000    -0.0766     3.9184     3.9184    -0.0000
 13 N      7.4367     7.0000    -0.4367     3.3940     3.3940     0.0000
 14 C      5.7552     6.0000     0.2448     3.7835     3.7835    -0.0000
 15 N      7.4407     7.0000    -0.4407     3.3722     3.3722    -0.0000
 16 C      5.7692     6.0000     0.2308     3.7883     3.7883    -0.0000
 17 C      6.0870     6.0000    -0.0870     4.0045     4.0045     0.0000
 18 C      6.2163     6.0000    -0.2163     3.7661     3.7661    -0.0000
 19 C      5.7595     6.0000     0.2405     3.8622     3.8622    -0.0000
 20 C      5.7902     6.0000     0.2098     3.8266     3.8266    -0.0000
 21 C      6.0903     6.0000    -0.0903     3.9078     3.9078    -0.0000
 22 C      6.0884     6.0000    -0.0884     3.9834     3.9834    -0.0000
 23 C      6.0457     6.0000    -0.0457     3.9911     3.9911     0.0000
 24 C      5.7983     6.0000     0.2017     3.8227     3.8227     0.0000
 25 C      5.8859     6.0000     0.1141     3.8903     3.8903    -0.0000
 26 C      6.0723     6.0000    -0.0723     3.9085     3.9085    -0.0000
 27 C      5.7811     6.0000     0.2189     3.8776     3.8776    -0.0000
 28 C      6.0555     6.0000    -0.0555     3.9880     3.9880    -0.0000
 29 C      6.1835     6.0000    -0.1835     3.7383     3.7383    -0.0000
 30 C      5.7611     6.0000     0.2389     3.7957     3.7957    -0.0000
 31 C      5.7834     6.0000     0.2166     3.8243     3.8243    -0.0000
 32 C      6.0645     6.0000    -0.0645     3.9192     3.9192    -0.0000
 33 C      6.0750     6.0000    -0.0750     3.9814     3.9814     0.0000
 34 C      6.0506     6.0000    -0.0506     3.9895     3.9895    -0.0000
 35 C      5.7883     6.0000     0.2117     3.8228     3.8228    -0.0000
 36 C      5.8877     6.0000     0.1123     3.8865     3.8865     0.0000
 37 C      6.0661     6.0000    -0.0661     3.9176     3.9176    -0.0000
 38 C      5.7650     6.0000     0.2350     3.7990     3.7990    -0.0000
 39 C      6.0600     6.0000    -0.0600     3.9887     3.9887    -0.0000
 40 C      6.1871     6.0000    -0.1871     3.7369     3.7369    -0.0000
 41 C      5.7771     6.0000     0.2229     3.8829     3.8829    -0.0000
 42 C      5.7985     6.0000     0.2015     3.8270     3.8270    -0.0000
 43 C      6.0730     6.0000    -0.0730     3.9023     3.9023    -0.0000
 44 C      6.0890     6.0000    -0.0890     3.9849     3.9849     0.0000
 45 C      6.0552     6.0000    -0.0552     3.9928     3.9928    -0.0000
 46 C      5.7939     6.0000     0.2061     3.8265     3.8265    -0.0000
 47 C      5.8845     6.0000     0.1155     3.8933     3.8933     0.0000
 48 C      6.0719     6.0000    -0.0719     3.9059     3.9059    -0.0000
 49 C      5.7698     6.0000     0.2302     3.8868     3.8868    -0.0000
 50 C      6.0509     6.0000    -0.0509     3.9903     3.9903    -0.0000
 51 C      6.1893     6.0000    -0.1893     3.7362     3.7362     0.0000
 52 H      0.9509     1.0000     0.0491     0.9854     0.9854    -0.0000
 53 H      1.0147     1.0000    -0.0147     0.9985     0.9985    -0.0000
 54 H      0.9495     1.0000     0.0505     1.0097     1.0097    -0.0000
 55 H      0.9519     1.0000     0.0481     0.9864     0.9864    -0.0000
 56 H      0.9443     1.0000     0.0557     0.9707     0.9707    -0.0000
 57 H      0.9461     1.0000     0.0539     0.9836     0.9836    -0.0000
 58 H      0.9474     1.0000     0.0526     0.9852     0.9852    -0.0000
 59 H      1.0073     1.0000    -0.0073     1.0007     1.0007    -0.0000
 60 H      0.9540     1.0000     0.0460     1.0089     1.0089    -0.0000
 61 H      0.8277     1.0000     0.1723     1.0423     1.0423     0.0000
 62 H      0.8264     1.0000     0.1736     1.0435     1.0435     0.0000
 63 H      0.9438     1.0000     0.0562     0.9854     0.9854    -0.0000
 64 H      1.0145     1.0000    -0.0145     0.9972     0.9972    -0.0000
 65 H      0.9526     1.0000     0.0474     1.0090     1.0090    -0.0000
 66 H      0.9428     1.0000     0.0572     0.9851     0.9851     0.0000
 67 H      0.9374     1.0000     0.0626     0.9720     0.9720     0.0000
 68 H      0.9420     1.0000     0.0580     0.9868     0.9868     0.0000
 69 H      0.9419     1.0000     0.0581     0.9829     0.9829    -0.0000
 70 H      1.0258     1.0000    -0.0258     0.9939     0.9939    -0.0000
 71 H      0.9532     1.0000     0.0468     1.0064     1.0064    -0.0000
 72 H      0.9391     1.0000     0.0609     0.9846     0.9846     0.0000
 73 H      1.0123     1.0000    -0.0123     0.9994     0.9994     0.0000
 74 H      0.9492     1.0000     0.0508     1.0099     1.0099     0.0000
 75 H      0.9399     1.0000     0.0601     0.9850     0.9850    -0.0000
 76 H      0.9341     1.0000     0.0659     0.9718     0.9718     0.0000
 77 H      0.9389     1.0000     0.0611     0.9852     0.9852     0.0000
 78 H      0.9396     1.0000     0.0604     0.9849     0.9849     0.0000
 79 H      1.0148     1.0000    -0.0148     0.9988     0.9988    -0.0000
 80 H      0.9486     1.0000     0.0514     1.0071     1.0071     0.0000
 81 H      0.9463     1.0000     0.0537     0.9855     0.9855    -0.0000
 82 H      1.0237     1.0000    -0.0237     0.9940     0.9940    -0.0000
 83 H      0.9570     1.0000     0.0430     1.0089     1.0089    -0.0000
 84 H      0.9463     1.0000     0.0537     0.9854     0.9854    -0.0000
 85 H      0.9402     1.0000     0.0598     0.9716     0.9716     0.0000
 86 H      0.9438     1.0000     0.0562     0.9840     0.9840    -0.0000
 87 H      0.9432     1.0000     0.0568     0.9856     0.9856    -0.0000
 88 H      1.0193     1.0000    -0.0193     0.9952     0.9952    -0.0000
 89 H      0.9553     1.0000     0.0447     1.0072     1.0072     0.0000

  Mayer bond orders larger than 0.100000
B(  0-C ,  1-N ) :   1.1057 B(  0-C , 17-C ) :   1.6602 B(  0-C , 52-H ) :   0.9693 
B(  1-N ,  8-C ) :   1.1017 B(  1-N , 10-C ) :   0.9681 B(  2-C , 12-C ) :   1.5272 
B(  2-C , 16-C ) :   1.3350 B(  2-C , 53-H ) :   0.9772 B(  3-N , 14-C ) :   1.2091 
B(  3-N , 16-C ) :   1.1942 B(  3-N , 61-H ) :   0.8986 B(  4-C ,  6-C ) :   1.2414 
B(  4-C , 17-C ) :   1.2446 B(  4-C , 18-C ) :   1.3334 B(  5-N , 19-C ) :   1.4321 
B(  5-N , 27-C ) :   1.3949 B(  6-C ,  8-C ) :   1.6641 B(  6-C , 54-H ) :   0.9687 
B(  7-N , 30-C ) :   1.1948 B(  7-N , 38-C ) :   1.1980 B(  7-N , 62-H ) :   0.8979 
B(  8-C , 55-H ) :   0.9694 B(  9-N , 41-C ) :   1.4041 B(  9-N , 49-C ) :   1.4182 
B( 10-C , 56-H ) :   0.9764 B( 10-C , 57-H ) :   0.9819 B( 10-C , 58-H ) :   0.9839 
B( 11-N , 20-C ) :   1.1271 B( 11-N , 24-C ) :   1.1176 B( 11-N , 25-C ) :   0.9587 
B( 12-C , 14-C ) :   1.3363 B( 12-C , 59-H ) :   0.9754 B( 13-N , 31-C ) :   1.1349 
B( 13-N , 35-C ) :   1.1298 B( 13-N , 36-C ) :   0.9542 B( 14-C , 18-C ) :   1.1712 
B( 15-N , 42-C ) :   1.1133 B( 15-N , 46-C ) :   1.1176 B( 15-N , 47-C ) :   0.9618 
B( 16-C , 51-C ) :   1.1894 B( 17-C , 60-H ) :   0.9698 B( 18-C , 19-C ) :   1.1848 
B( 19-C , 21-C ) :   1.2207 B( 20-C , 28-C ) :   1.6246 B( 20-C , 63-H ) :   0.9703 
B( 21-C , 26-C ) :   1.6348 B( 21-C , 64-H ) :   0.9703 B( 22-C , 23-C ) :   1.2862 
B( 22-C , 28-C ) :   1.2712 B( 22-C , 29-C ) :   1.2260 B( 23-C , 24-C ) :   1.6184 
B( 23-C , 65-H ) :   0.9707 B( 24-C , 66-H ) :   0.9692 B( 25-C , 67-H ) :   0.9761 
B( 25-C , 68-H ) :   0.9829 B( 25-C , 69-H ) :   0.9822 B( 26-C , 27-C ) :   1.2190 
B( 26-C , 70-H ) :   0.9727 B( 27-C , 29-C ) :   1.2274 B( 28-C , 71-H ) :   0.9716 
B( 29-C , 30-C ) :   1.2189 B( 30-C , 32-C ) :   1.3043 B( 31-C , 39-C ) :   1.6178 
B( 31-C , 72-H ) :   0.9692 B( 32-C , 37-C ) :   1.5540 B( 32-C , 73-H ) :   0.9781 
B( 33-C , 34-C ) :   1.2847 B( 33-C , 39-C ) :   1.2789 B( 33-C , 40-C ) :   1.2270 
B( 34-C , 35-C ) :   1.6148 B( 34-C , 74-H ) :   0.9702 B( 35-C , 75-H ) :   0.9692 
B( 36-C , 76-H ) :   0.9764 B( 36-C , 77-H ) :   0.9819 B( 36-C , 78-H ) :   0.9829 
B( 37-C , 38-C ) :   1.3067 B( 37-C , 79-H ) :   0.9774 B( 38-C , 40-C ) :   1.2141 
B( 39-C , 80-H ) :   0.9712 B( 40-C , 41-C ) :   1.2292 B( 41-C , 43-C ) :   1.2039 
B( 42-C , 50-C ) :   1.6330 B( 42-C , 81-H ) :   0.9696 B( 43-C , 48-C ) :   1.6481 
B( 43-C , 82-H ) :   0.9733 B( 44-C , 45-C ) :   1.2688 B( 44-C , 50-C ) :   1.2690 
B( 44-C , 51-C ) :   1.2560 B( 45-C , 46-C ) :   1.6330 B( 45-C , 83-H ) :   0.9714 
B( 46-C , 84-H ) :   0.9701 B( 47-C , 85-H ) :   0.9761 B( 47-C , 86-H ) :   0.9828 
B( 47-C , 87-H ) :   0.9825 B( 48-C , 49-C ) :   1.2049 B( 48-C , 88-H ) :   0.9742 
B( 49-C , 51-C ) :   1.2279 B( 50-C , 89-H ) :   0.9712 

-------
TIMINGS
-------

Total SCF time: 0 days 0 hours 29 min 10 sec 

Total time                  ....    1750.719 sec
Sum of individual times     ....    1746.232 sec  ( 99.7%)

Fock matrix formation       ....    1723.574 sec  ( 98.4%)
Diagonalization             ....       6.885 sec  (  0.4%)
Density matrix formation    ....       0.653 sec  (  0.0%)
Population analysis         ....       0.535 sec  (  0.0%)
Initial guess               ....       2.046 sec  (  0.1%)
Orbital Transformation      ....       0.000 sec  (  0.0%)
Orbital Orthonormalization  ....       0.000 sec  (  0.0%)
DIIS solution               ....       3.506 sec  (  0.2%)
SOSCF solution              ....       7.980 sec  (  0.5%)

Maximum memory used throughout the entire SCF-calculation: 302.6 MB


           ************************************************************
           *        Program running with 16 parallel MPI-processes    *
           *              working on a common directory               *
           ************************************************************

------------------------------------------------------------------------------
                                ORCA  MP2 
------------------------------------------------------------------------------

Freezing NCore=104 chemical core electrons

----------
MP2 ENERGY (disk based algorithm)
----------

Dimension of the basis                    ...  918
Memory devoted to MP2                     ... 2000 MB   
Data format for buffers                   ... DOUBLE
Compression type for matrix containers    ... UNCOMPRESSED

-------------------------------
PARTIAL EXCHANGE TRANSFORMATION
-------------------------------

Transformation type                        ... one-operator
Generation of integrals (i,mue|j,nue)      ... ON
Generation of integrals (mue,kappa|nue,tau)... OFF
Generation of integrals (i,mue|a,nue)      ... OFF
Dimension of the basis                     ...  918
Number of internal MOs                     ...  127 (  52- 178)
Pair cutoff                                ... 2.500e-12 Eh
Number of AO pairs in the trafo            ... 421821
Total Number of distinct AO pairs          ... 421821
Memory devoted for trafo                   ... 2000.0 MB 
Max. Number of MO pairs treated together   ...  311      
Number Format for Storage                  ... Double (8 Byte)
Integral package used                      ... LIBINT

Starting integral evaluation:
    ... done with AO integral generation
Closing buffer AOK     (38.24 GB; CompressionRatio= 1.33)
Collecting buffer AOK 
Number of MO pairs included in the trafo   ... 8128
------------------------
SORTING OF (i,mue|j,nue)
------------------------

IBATCH = 1 of  2
IBATCH = 2 of  2
Closing buffer KAO     (51.03 GB; CompressionRatio= 1.00)
Collecting buffer KAO 
N(AO-Batches) Done                         ...  85521091 
N(AO-Batches) Skipped                      ...  82295431 
N(IJ)-pairs Skipped                        ...         0 
TOTAL TIME for half transformation         ...  3266.874 sec
AO-integral generation                     ...   210.252 sec
Half transformation                        ...   378.423 sec
K-integral sorting                         ...  2497.827 sec
Process 10:   Internal MO 132
Process  1:   Internal MO  60
Process  4:   Internal MO  84
Process  7:   Internal MO 108

Finished integral transformation - now doing MP2 part

OPERATOR COMBINATION   0   0: ij=( 52..178, 52..178)
Process 13:   Internal MO 156
Process  0:   Internal MO  54
Process  2:   Internal MO  69
Process  0:   Internal MO  57
Process  1:   Internal MO  63
Process  5:   Internal MO  93
Process  3:   Internal MO  78
Process  8:   Internal MO 117
Process  1:   Internal MO  66
Process  2:   Internal MO  72
Process  6:   Internal MO 102
Process 11:   Internal MO 141
Process 14:   Internal MO 165
Process  4:   Internal MO  87
Process  2:   Internal MO  75
Process  5:   Internal MO  96
Process  9:   Internal MO 126
Process  3:   Internal MO  81
Process 12:   Internal MO 150
Process  4:   Internal MO  90
Process 15:   Internal MO 174
Process 10:   Internal MO 135
Process  6:   Internal MO 105
Process  8:   Internal MO 120
Process  5:   Internal MO  99
Process  7:   Internal MO 111
Process 13:   Internal MO 159
Process 11:   Internal MO 144
Process  9:   Internal MO 129
Process 14:   Internal MO 168
Process  8:   Internal MO 123
Process  7:   Internal MO 114
Process 10:   Internal MO 138
Process 12:   Internal MO 153
Process 15:   Internal MO 177
Process 11:   Internal MO 147
Process 13:   Internal MO 162
Process 14:   Internal MO 171
-----------------------------------------------
 MP2 CORRELATION ENERGY   :     -7.288803896 Eh
-----------------------------------------------


-------
TIMINGS
-------
Total time                : 3814.104 sec
Integral trafo            : 3269.148 sec ( 85.7%)
K(i,j)                    :    5.908 sec (  0.2%)
T(i,j)                    :    0.125 sec (  0.0%)

---------------------------------------
MP2 TOTAL ENERGY:    -2130.913288316 Eh
---------------------------------------

Maximum memory used throughout the entire MP2-calculation: 2275.2 MB

-------------------------   --------------------
FINAL SINGLE POINT ENERGY     -2130.913288315587
-------------------------   --------------------


                            ***************************************
                            *     ORCA property calculations      *
                            ***************************************


  WARNING: The energy has been calculated at the MP2 level but the densities
           used in the property calculations are still SCF densities
           MP2 response densities have not been calculated 
           use %mp2 Density relaxed end
           or  %mp2 Density unrelaxed end

                                    ---------------------
                                    Active property flags
                                    ---------------------
   (+) Dipole Moment


------------------------------------------------------------------------------
                       ORCA ELECTRIC PROPERTIES CALCULATION
------------------------------------------------------------------------------

Dipole Moment Calculation                       ... on
Quadrupole Moment Calculation                   ... off
Polarizability Calculation                      ... off
GBWName                                         ... /scratch/allen/tmpyp4_amber_gaff2/conf1/conf1/Conf53.orca.gbw
Electron density                                ... /scratch/allen/tmpyp4_amber_gaff2/conf1/conf1/Conf53.orca.scfp
The origin for moment calculation is the CENTER OF MASS  = ( 0.000183, -0.004030  0.003908)

-------------
DIPOLE MOMENT
-------------
                                X             Y             Z
Electronic contribution:      0.76927      -1.81537      -0.13237
Nuclear contribution   :     -0.05027       0.15193       0.16369
                        -----------------------------------------
Total Dipole Moment    :      0.71899      -1.66344       0.03132
                        -----------------------------------------
Magnitude (a.u.)       :      1.81245
Magnitude (Debye)      :      4.60688



--------------------
Rotational spectrum 
--------------------
 
Rotational constants in cm-1:     0.001500     0.001475     0.000762 
Rotational constants in MHz :    44.962936    44.208791    22.833652 

 Dipole components along the rotational axes: 
x,y,z [a.u.] :     1.187894     1.368530     0.031664 
x,y,z [Debye]:     3.019387     3.478526     0.080482 

 

Timings for individual modules:

Sum of individual times         ...     5589.717 sec (=  93.162 min)
GTO integral calculation        ...        3.268 sec (=   0.054 min)   0.1 %
SCF iterations                  ...     1751.801 sec (=  29.197 min)  31.3 %
MP2 module                      ...     3834.647 sec (=  63.911 min)  68.6 %
                             ****ORCA TERMINATED NORMALLY****
TOTAL RUN TIME: 0 days 1 hours 33 minutes 13 seconds 94 msec
# of primitive gaussian functions

