
                                 *****************
                                 * O   R   C   A *
                                 *****************

                                            #,                                       
                                            ###                                      
                                            ####                                     
                                            #####                                    
                                            ######                                   
                                           ########,                                 
                                     ,,################,,,,,                         
                               ,,#################################,,                 
                          ,,##########################################,,             
                       ,#########################################, ''#####,          
                    ,#############################################,,   '####,        
                  ,##################################################,,,,####,       
                ,###########''''           ''''###############################       
              ,#####''   ,,,,##########,,,,          '''####'''          '####       
            ,##' ,,,,###########################,,,                        '##       
           ' ,,###''''                  '''############,,,                           
         ,,##''                                '''############,,,,        ,,,,,,###''
      ,#''                                            '''#######################'''  
     '                                                          ''''####''''         
             ,#######,   #######,   ,#######,      ##                                
            ,#'     '#,  ##    ##  ,#'     '#,    #''#        ######   ,####,        
            ##       ##  ##   ,#'  ##            #'  '#       #        #'  '#        
            ##       ##  #######   ##           ,######,      #####,   #    #        
            '#,     ,#'  ##    ##  '#,     ,#' ,#      #,         ##   #,  ,#        
             '#######'   ##     ##  '#######'  #'      '#     #####' # '####'        



                  #######################################################
                  #                        -***-                        #
                  #          Department of theory and spectroscopy      #
                  #    Directorship and core code : Frank Neese         #
                  #        Max Planck Institute fuer Kohlenforschung    #
                  #                Kaiser Wilhelm Platz 1               #
                  #                 D-45470 Muelheim/Ruhr               #
                  #                      Germany                        #
                  #                                                     #
                  #                  All rights reserved                #
                  #                        -***-                        #
                  #######################################################


                         Program Version 5.0.4 -  RELEASE  -


 With contributions from (in alphabetic order):
   Daniel Aravena         : Magnetic Suceptibility
   Michael Atanasov       : Ab Initio Ligand Field Theory (pilot matlab implementation)
   Alexander A. Auer      : GIAO ZORA, VPT2 properties, NMR spectrum
   Ute Becker             : Parallelization
   Giovanni Bistoni       : ED, misc. LED, open-shell LED, HFLD
   Martin Brehm           : Molecular dynamics
   Dmytro Bykov           : SCF Hessian
   Vijay G. Chilkuri      : MRCI spin determinant printing, contributions to CSF-ICE
   Dipayan Datta          : RHF DLPNO-CCSD density
   Achintya Kumar Dutta   : EOM-CC, STEOM-CC
   Dmitry Ganyushin       : Spin-Orbit,Spin-Spin,Magnetic field MRCI
   Miquel Garcia          : C-PCM and meta-GGA Hessian, CC/C-PCM, Gaussian charge scheme
   Yang Guo               : DLPNO-NEVPT2, F12-NEVPT2, CIM, IAO-localization
   Andreas Hansen         : Spin unrestricted coupled pair/coupled cluster methods
   Benjamin Helmich-Paris : MC-RPA, TRAH-SCF, COSX integrals
   Lee Huntington         : MR-EOM, pCC
   Robert Izsak           : Overlap fitted RIJCOSX, COSX-SCS-MP3, EOM
   Marcus Kettner         : VPT2
   Christian Kollmar      : KDIIS, OOCD, Brueckner-CCSD(T), CCSD density, CASPT2, CASPT2-K
   Simone Kossmann        : Meta GGA functionals, TD-DFT gradient, OOMP2, MP2 Hessian
   Martin Krupicka        : Initial AUTO-CI
   Lucas Lang             : DCDCAS
   Marvin Lechner         : AUTO-CI (C++ implementation), FIC-MRCC
   Dagmar Lenk            : GEPOL surface, SMD
   Dimitrios Liakos       : Extrapolation schemes; Compound Job, initial MDCI parallelization
   Dimitrios Manganas     : Further ROCIS development; embedding schemes
   Dimitrios Pantazis     : SARC Basis sets
   Anastasios Papadopoulos: AUTO-CI, single reference methods and gradients
   Taras Petrenko         : DFT Hessian,TD-DFT gradient, ASA, ECA, R-Raman, ABS, FL, XAS/XES, NRVS
   Peter Pinski           : DLPNO-MP2, DLPNO-MP2 Gradient
   Christoph Reimann      : Effective Core Potentials
   Marius Retegan         : Local ZFS, SOC
   Christoph Riplinger    : Optimizer, TS searches, QM/MM, DLPNO-CCSD(T), (RO)-DLPNO pert. Triples
   Tobias Risthaus        : Range-separated hybrids, TD-DFT gradient, RPA, STAB
   Michael Roemelt        : Original ROCIS implementation
   Masaaki Saitow         : Open-shell DLPNO-CCSD energy and density
   Barbara Sandhoefer     : DKH picture change effects
   Avijit Sen             : IP-ROCIS
   Kantharuban Sivalingam : CASSCF convergence, NEVPT2, FIC-MRCI
   Bernardo de Souza      : ESD, SOC TD-DFT
   Georgi Stoychev        : AutoAux, RI-MP2 NMR, DLPNO-MP2 response
   Willem Van den Heuvel  : Paramagnetic NMR
   Boris Wezisla          : Elementary symmetry handling
   Frank Wennmohs         : Technical directorship


 We gratefully acknowledge several colleagues who have allowed us to
 interface, adapt or use parts of their codes:
   Stefan Grimme, W. Hujo, H. Kruse, P. Pracht,  : VdW corrections, initial TS optimization,
                  C. Bannwarth, S. Ehlert          DFT functionals, gCP, sTDA/sTD-DF
   Ed Valeev, F. Pavosevic, A. Kumar             : LibInt (2-el integral package), F12 methods
   Garnet Chan, S. Sharma, J. Yang, R. Olivares  : DMRG
   Ulf Ekstrom                                   : XCFun DFT Library
   Mihaly Kallay                                 : mrcc  (arbitrary order and MRCC methods)
   Jiri Pittner, Ondrej Demel                    : Mk-CCSD
   Frank Weinhold                                : gennbo (NPA and NBO analysis)
   Christopher J. Cramer and Donald G. Truhlar   : smd solvation model
   Lars Goerigk                                  : TD-DFT with DH, B97 family of functionals
   V. Asgeirsson, H. Jonsson                     : NEB implementation
   FAccTs GmbH                                   : IRC, NEB, NEB-TS, DLPNO-Multilevel, CI-OPT
                                                   MM, QMMM, 2- and 3-layer-ONIOM, Crystal-QMMM,
                                                   LR-CPCM, SF, NACMEs, symmetry and pop. for TD-DFT,
                                                   nearIR, NL-DFT gradient (VV10), updates on ESD,
                                                   ML-optimized integration grids
   S Lehtola, MJT Oliveira, MAL Marques          : LibXC Library
   Liviu Ungur et al                             : ANISO software


 Your calculation uses the libint2 library for the computation of 2-el integrals
 For citations please refer to: http://libint.valeyev.net

 Your ORCA version has been built with support for libXC version: 5.1.0
 For citations please refer to: https://tddft.org/programs/libxc/

 This ORCA versions uses:
   CBLAS   interface :  Fast vector & matrix operations
   LAPACKE interface :  Fast linear algebra routines
   SCALAPACK package :  Parallel linear algebra routines
   Shared memory     :  Shared parallel matrices
   BLAS/LAPACK       :  OpenBLAS 0.3.15  USE64BITINT DYNAMIC_ARCH NO_AFFINITY Sandybridge SINGLE_THREADED
        Core in use  :  Sandybridge
   Copyright (c) 2011-2014, The OpenBLAS Project


================================================================================

----- Orbital basis set information -----
Your calculation utilizes the basis: cc-pVDZ 
       H, B-Ne : Obtained from the ccRepo (grant-hill.group.shef.ac.uk/ccrepo) Feb. 2017
                 T. H. Dunning, Jr., J. Chem. Phys. 90, 1007 (1989)
            He : Obtained from the ccRepo (grant-hill.group.shef.ac.uk/ccrepo) Feb. 2017
                 D. E. Woon, T. H. Dunning, Jr., J. Chem. Phys. 100, 2975 (1994)
  Li-Be, Na-Mg : Obtained from the ccRepo (grant-hill.group.shef.ac.uk/ccrepo) Feb. 2017
                 B. P. Prascher, D. E. Woon, K. A. Peterson, T. H. Dunning, Jr., A. K. Wilson, Theor. Chem. Acc. 128, 69 (2011)
         Al-Ar : Obtained from the ccRepo (grant-hill.group.shef.ac.uk/ccrepo) Feb. 2017
                 D. E. Woon, T. H. Dunning, Jr., J. Chem. Phys. 98, 1358 (1993)
            Ca : Obtained from the Peterson Research Group Website (tyr0.chem.wsu.edu/~kipeters) Feb. 2017
                 J. Koput, K. A. Peterson, J. Phys. Chem. 106, 9595 (2002)
         Sc-Zn : Obtained from the ccRepo (grant-hill.group.shef.ac.uk/ccrepo) Feb. 2017
                 N. B. Balabanov, K. A. Peterson, J. Chem. Phys. 123, 064107 (2005)
                 N. B. Balabanov, K. A. Peterson, J. Chem. Phys. 125, 074110 (2006)
         Ga-Kr : Obtained from the ccRepo (grant-hill.group.shef.ac.uk/ccrepo) Feb. 2017
                 A. K. Wilson, D. E. Woon, K. A. Peterson, T. H. Dunning, Jr., J. Chem. Phys. 110, 7667 (1999)

================================================================================
                                        WARNINGS
                       Please study these warnings very carefully!
================================================================================


WARNING: No MP2 level density has been requested!
         To caclulate MP2 level properties use
         %mp2 Density relaxed end
         or
         %mp2 Density unrelaxed end

WARNING: Post HF methods need fully converged wavefunctions
  ===> : Setting SCFConvForced true
         You can overwrite this default with %scf ConvForced false 


INFO   : the flag for use of the SHARK integral package has been found!

================================================================================
                                       INPUT FILE
================================================================================
NAME = /scratch/allen/tmpyp4_amber_gaff2/2.Mdgx/conf11/conf11/Conf140.orca
|  1> ! PAL2
|  2> ! mp2 cc-pvdz TightSCF  NoKeepInts
|  3> 
|  4> %scf
|  5>   MaxCore 2000
|  6> end
|  7> %mp2
|  8>   MaxCore 2000
|  9> end
| 10> * xyz 0 1
| 11>    C       -4.71300         5.36300        -0.69900
| 12>    C        1.47400         4.04100         0.05700
| 13>    C       -2.80200         4.09300         0.04900
| 14>    C       -2.45700         5.18600         0.85900
| 15>    C       -3.24500         6.32000         0.86600
| 16>    C       -5.19600         7.61300         0.15100
| 17>    C        0.13200         4.30700         0.06100
| 18>    C       -0.56900         3.05600         0.04700
| 19>    C        1.64900         2.61800         0.02300
| 20>    C       -3.96000         4.20600        -0.73600
| 21>    N       -4.35200         6.39900         0.09200
| 22>    N        0.38800         2.06700         0.02500
| 23>    N       -2.01000         0.39500        -0.07500
| 24>    N       -0.38800        -2.07400        -0.02700
| 25>    N        2.01000        -0.40100         0.06500
| 26>    C       -1.96000         2.86100         0.02400
| 27>    C       -2.62300         1.61500        -0.01800
| 28>    C       -5.57300        -4.32900         1.06600
| 29>    C       -4.07300         1.47100         0.05600
| 30>    C       -4.10600        -2.75600        -0.02600
| 31>    C       -4.99500        -2.75700        -1.11100
| 32>    C       -6.13200        -3.54200        -1.07600
| 33>    C       -7.65100        -5.11300         0.04000
| 34>    C       -4.32400         0.14100         0.03700
| 35>    C       -3.02500        -0.52000        -0.04800
| 36>    C       -4.42200        -3.56600         1.07500
| 37>    N       -6.40700        -4.31300         0.00100
| 38>    C       -2.86700        -1.92200        -0.04000
| 39>    C       -1.65000        -2.62400        -0.02700
| 40>    C        3.56800        -6.14200        -1.04000
| 41>    C       -1.47600        -4.04900        -0.03400
| 42>    C        2.80300        -4.09900        -0.00800
| 43>    C        3.65700        -4.38400         1.06900
| 44>    C        4.42700        -5.53000         1.05900
| 45>    C        5.24500        -7.58800         0.01400
| 46>    C       -0.13400        -4.31500        -0.02200
| 47>    C        0.56800        -3.06400        -0.02700
| 48>    C        2.77500        -5.01200        -1.07400
| 49>    N        4.37600        -6.39100         0.01700
| 50>    C        1.95900        -2.86900        -0.00900
| 51>    C        2.62100        -1.62200         0.00900
| 52>    C        5.54300         4.33900        -1.13000
| 53>    C        4.07000        -1.47900        -0.09400
| 54>    C        4.10400         2.75100        -0.02100
| 55>    C        5.02700         2.72900         1.03600
| 56>    C        6.16600         3.50900         0.97800
| 57>    C        7.61900         5.15300        -0.11500
| 58>    C        4.32100        -0.14800        -0.09200
| 59>    C        3.02500         0.51400         0.01500
| 60>    C        4.38700         3.58200        -1.11500
| 61>    C        2.86600         1.91600         0.01300
| 62>    N        6.41300         4.29600        -0.09500
| 63>    H       -5.60600         5.49900        -1.29700
| 64>    H        2.27400         4.76600         0.08100
| 65>    H       -1.58000         5.15600         1.49500
| 66>    H       -3.02400         7.18300         1.48000
| 67>    H       -5.90600         7.51300         0.97500
| 68>    H       -4.55400         8.47900         0.31200
| 69>    H       -5.73000         7.71500        -0.79300
| 70>    H       -0.33200         5.28200         0.06900
| 71>    H       -4.27100         3.40200        -1.39300
| 72>    H        0.18200         1.07200         0.00500
| 73>    H       -0.18300        -1.08000        -0.02100
| 74>    H       -5.86400        -4.96200         1.89500
| 75>    H       -4.79400         2.27200         0.13900
| 76>    H       -4.80000        -2.16000        -1.99400
| 77>    H       -6.84100        -3.58200        -1.89300
| 78>    H       -8.42800        -4.53600         0.54600
| 79>    H       -7.95600        -5.33700        -0.98100
| 80>    H       -7.45600        -6.03700         0.58400
| 81>    H       -5.28700        -0.34400         0.10000
| 82>    H       -3.78000        -3.60100         1.94700
| 83>    H        3.58700        -6.86800        -1.84300
| 84>    H       -2.27600        -4.77400        -0.05000
| 85>    H        3.71400        -3.72400         1.92600
| 86>    H        5.09200        -5.79500         1.87100
| 87>    H        6.20500        -7.32900        -0.43900
| 88>    H        5.39300        -7.91700         1.04200
| 89>    H        4.75900        -8.37300        -0.56400
| 90>    H        0.32900        -5.29000        -0.00800
| 91>    H        2.14600        -4.84200        -1.94000
| 92>    H        5.80800         4.98600        -1.95600
| 93>    H        4.78800        -2.28100        -0.18500
| 94>    H        4.86000         2.11400         1.91200
| 95>    H        6.90100         3.53100         1.77200
| 96>    H        7.38300         6.10900         0.35600
| 97>    H        8.41400         4.65200         0.43500
| 98>    H        7.92100         5.31000        -1.15000
| 99>    H        5.28300         0.33600        -0.17900
|100>    H        3.72000         3.63200        -1.96700
|101> *
|102> 
|103>                          ****END OF INPUT****
================================================================================

                       ****************************
                       * Single Point Calculation *
                       ****************************

---------------------------------
CARTESIAN COORDINATES (ANGSTROEM)
---------------------------------
  C     -4.713000    5.363000   -0.699000
  C      1.474000    4.041000    0.057000
  C     -2.802000    4.093000    0.049000
  C     -2.457000    5.186000    0.859000
  C     -3.245000    6.320000    0.866000
  C     -5.196000    7.613000    0.151000
  C      0.132000    4.307000    0.061000
  C     -0.569000    3.056000    0.047000
  C      1.649000    2.618000    0.023000
  C     -3.960000    4.206000   -0.736000
  N     -4.352000    6.399000    0.092000
  N      0.388000    2.067000    0.025000
  N     -2.010000    0.395000   -0.075000
  N     -0.388000   -2.074000   -0.027000
  N      2.010000   -0.401000    0.065000
  C     -1.960000    2.861000    0.024000
  C     -2.623000    1.615000   -0.018000
  C     -5.573000   -4.329000    1.066000
  C     -4.073000    1.471000    0.056000
  C     -4.106000   -2.756000   -0.026000
  C     -4.995000   -2.757000   -1.111000
  C     -6.132000   -3.542000   -1.076000
  C     -7.651000   -5.113000    0.040000
  C     -4.324000    0.141000    0.037000
  C     -3.025000   -0.520000   -0.048000
  C     -4.422000   -3.566000    1.075000
  N     -6.407000   -4.313000    0.001000
  C     -2.867000   -1.922000   -0.040000
  C     -1.650000   -2.624000   -0.027000
  C      3.568000   -6.142000   -1.040000
  C     -1.476000   -4.049000   -0.034000
  C      2.803000   -4.099000   -0.008000
  C      3.657000   -4.384000    1.069000
  C      4.427000   -5.530000    1.059000
  C      5.245000   -7.588000    0.014000
  C     -0.134000   -4.315000   -0.022000
  C      0.568000   -3.064000   -0.027000
  C      2.775000   -5.012000   -1.074000
  N      4.376000   -6.391000    0.017000
  C      1.959000   -2.869000   -0.009000
  C      2.621000   -1.622000    0.009000
  C      5.543000    4.339000   -1.130000
  C      4.070000   -1.479000   -0.094000
  C      4.104000    2.751000   -0.021000
  C      5.027000    2.729000    1.036000
  C      6.166000    3.509000    0.978000
  C      7.619000    5.153000   -0.115000
  C      4.321000   -0.148000   -0.092000
  C      3.025000    0.514000    0.015000
  C      4.387000    3.582000   -1.115000
  C      2.866000    1.916000    0.013000
  N      6.413000    4.296000   -0.095000
  H     -5.606000    5.499000   -1.297000
  H      2.274000    4.766000    0.081000
  H     -1.580000    5.156000    1.495000
  H     -3.024000    7.183000    1.480000
  H     -5.906000    7.513000    0.975000
  H     -4.554000    8.479000    0.312000
  H     -5.730000    7.715000   -0.793000
  H     -0.332000    5.282000    0.069000
  H     -4.271000    3.402000   -1.393000
  H      0.182000    1.072000    0.005000
  H     -0.183000   -1.080000   -0.021000
  H     -5.864000   -4.962000    1.895000
  H     -4.794000    2.272000    0.139000
  H     -4.800000   -2.160000   -1.994000
  H     -6.841000   -3.582000   -1.893000
  H     -8.428000   -4.536000    0.546000
  H     -7.956000   -5.337000   -0.981000
  H     -7.456000   -6.037000    0.584000
  H     -5.287000   -0.344000    0.100000
  H     -3.780000   -3.601000    1.947000
  H      3.587000   -6.868000   -1.843000
  H     -2.276000   -4.774000   -0.050000
  H      3.714000   -3.724000    1.926000
  H      5.092000   -5.795000    1.871000
  H      6.205000   -7.329000   -0.439000
  H      5.393000   -7.917000    1.042000
  H      4.759000   -8.373000   -0.564000
  H      0.329000   -5.290000   -0.008000
  H      2.146000   -4.842000   -1.940000
  H      5.808000    4.986000   -1.956000
  H      4.788000   -2.281000   -0.185000
  H      4.860000    2.114000    1.912000
  H      6.901000    3.531000    1.772000
  H      7.383000    6.109000    0.356000
  H      8.414000    4.652000    0.435000
  H      7.921000    5.310000   -1.150000
  H      5.283000    0.336000   -0.179000
  H      3.720000    3.632000   -1.967000

----------------------------
CARTESIAN COORDINATES (A.U.)
----------------------------
  NO LB      ZA    FRAG     MASS         X           Y           Z
   0 C     6.0000    0    12.011   -8.906279   10.134601   -1.320919
   1 C     6.0000    0    12.011    2.785456    7.636383    0.107714
   2 C     6.0000    0    12.011   -5.295013    7.734649    0.092597
   3 C     6.0000    0    12.011   -4.643057    9.800120    1.623275
   4 C     6.0000    0    12.011   -6.132161   11.943069    1.636503
   5 C     6.0000    0    12.011   -9.819017   14.386485    0.285349
   6 C     6.0000    0    12.011    0.249444    8.139050    0.115273
   7 C     6.0000    0    12.011   -1.075254    5.775003    0.088817
   8 C     6.0000    0    12.011    3.116158    4.947303    0.043464
   9 C     6.0000    0    12.011   -7.483315    7.948188   -1.390838
  10 N     7.0000    0    14.007   -8.224088   12.092358    0.173855
  11 N     7.0000    0    14.007    0.733214    3.906064    0.047243
  12 N     7.0000    0    14.007   -3.798350    0.746442   -0.141729
  13 N     7.0000    0    14.007   -0.733214   -3.919292   -0.051023
  14 N     7.0000    0    14.007    3.798350   -0.757780    0.122832
  15 C     6.0000    0    12.011   -3.703863    5.406506    0.045353
  16 C     6.0000    0    12.011   -4.956752    3.051908   -0.034015
  17 C     6.0000    0    12.011  -10.531444   -8.180624    2.014448
  18 C     6.0000    0    12.011   -7.696855    2.779787    0.105825
  19 C     6.0000    0    12.011   -7.759216   -5.208085   -0.049133
  20 C     6.0000    0    12.011   -9.439182   -5.209975   -2.099486
  21 C     6.0000    0    12.011  -11.587801   -6.693410   -2.033345
  22 C     6.0000    0    12.011  -14.458295   -9.662170    0.075589
  23 C     6.0000    0    12.011   -8.171176    0.266451    0.069920
  24 C     6.0000    0    12.011   -5.716422   -0.982658   -0.090707
  25 C     6.0000    0    12.011   -8.356369   -6.738763    2.031456
  26 N     7.0000    0    14.007  -12.107475   -8.150389    0.001890
  27 C     6.0000    0    12.011   -5.417845   -3.632054   -0.075589
  28 C     6.0000    0    12.011   -3.118048   -4.958641   -0.051023
  29 C     6.0000    0    12.011    6.742543  -11.606698   -1.965315
  30 C     6.0000    0    12.011   -2.789236   -7.651501   -0.064251
  31 C     6.0000    0    12.011    5.296902   -7.745987   -0.015118
  32 C     6.0000    0    12.011    6.910728   -8.284559    2.020117
  33 C     6.0000    0    12.011    8.365818  -10.450186    2.001220
  34 C     6.0000    0    12.011    9.911614  -14.339242    0.026456
  35 C     6.0000    0    12.011   -0.253223   -8.154168   -0.041574
  36 C     6.0000    0    12.011    1.073364   -5.790121   -0.051023
  37 C     6.0000    0    12.011    5.243990   -9.471307   -2.029566
  38 N     7.0000    0    14.007    8.269442  -12.077240    0.032125
  39 C     6.0000    0    12.011    3.701973   -5.421624   -0.017008
  40 C     6.0000    0    12.011    4.952972   -3.065136    0.017008
  41 C     6.0000    0    12.011   10.474752    8.199522   -2.135391
  42 C     6.0000    0    12.011    7.691185   -2.794905   -0.177634
  43 C     6.0000    0    12.011    7.755436    5.198637   -0.039684
  44 C     6.0000    0    12.011    9.499653    5.157063    1.957756
  45 C     6.0000    0    12.011   11.652051    6.631049    1.848152
  46 C     6.0000    0    12.011   14.397823    9.737759   -0.217319
  47 C     6.0000    0    12.011    8.165507   -0.279679   -0.173855
  48 C     6.0000    0    12.011    5.716422    0.971319    0.028346
  49 C     6.0000    0    12.011    8.290229    6.768999   -2.107045
  50 C     6.0000    0    12.011    5.415955    3.620715    0.024566
  51 N     7.0000    0    14.007   12.118814    8.118263   -0.179524
  52 H     1.0000    0     1.008  -10.593805   10.391604   -2.450975
  53 H     1.0000    0     1.008    4.297237    9.006435    0.153068
  54 H     1.0000    0     1.008   -2.985767    9.743428    2.825141
  55 H     1.0000    0     1.008   -5.714532   13.573903    2.796795
  56 H     1.0000    0     1.008  -11.160723   14.197512    1.842483
  57 H     1.0000    0     1.008   -8.605813   16.022988    0.589595
  58 H     1.0000    0     1.008  -10.828131   14.579237   -1.498553
  59 H     1.0000    0     1.008   -0.627389    9.981533    0.130391
  60 H     1.0000    0     1.008   -8.071020    6.428848   -2.632389
  61 H     1.0000    0     1.008    0.343930    2.025786    0.009449
  62 H     1.0000    0     1.008   -0.345820   -2.040904   -0.039684
  63 H     1.0000    0     1.008  -11.081354   -9.376821    3.581031
  64 H     1.0000    0     1.008   -9.059347    4.293458    0.262672
  65 H     1.0000    0     1.008   -9.070685   -4.081808   -3.768114
  66 H     1.0000    0     1.008  -12.927616   -6.768999   -3.577252
  67 H     1.0000    0     1.008  -15.926612   -8.571798    1.031790
  68 H     1.0000    0     1.008  -15.034661  -10.085468   -1.853821
  69 H     1.0000    0     1.008  -14.089798  -11.408277    1.103600
  70 H     1.0000    0     1.008   -9.990982   -0.650066    0.188973
  71 H     1.0000    0     1.008   -7.143165   -6.804904    3.679297
  72 H     1.0000    0     1.008    6.778448  -12.978639   -3.482765
  73 H     1.0000    0     1.008   -4.301017   -9.021553   -0.094486
  74 H     1.0000    0     1.008    7.018443   -7.037340    3.639613
  75 H     1.0000    0     1.008    9.622485  -10.950963    3.535678
  76 H     1.0000    0     1.008   11.725751  -13.849803   -0.829590
  77 H     1.0000    0     1.008   10.191293  -14.960962    1.969095
  78 H     1.0000    0     1.008    8.993207  -15.822677   -1.065806
  79 H     1.0000    0     1.008    0.621720   -9.996651   -0.015118
  80 H     1.0000    0     1.008    4.055352   -9.150054   -3.666069
  81 H     1.0000    0     1.008   10.975529    9.422175   -3.696304
  82 H     1.0000    0     1.008    9.048009   -4.310465   -0.349599
  83 H     1.0000    0     1.008    9.184069    3.994881    3.613156
  84 H     1.0000    0     1.008   13.041000    6.672623    3.348595
  85 H     1.0000    0     1.008   13.951848   11.544337    0.672743
  86 H     1.0000    0     1.008   15.900156    8.791006    0.822031
  87 H     1.0000    0     1.008   14.968521   10.034446   -2.173185
  88 H     1.0000    0     1.008    9.983423    0.634948   -0.338261
  89 H     1.0000    0     1.008    7.029781    6.863485   -3.717091

--------------------------------
INTERNAL COORDINATES (ANGSTROEM)
--------------------------------
 C      0   0   0     0.000000000000     0.00000000     0.00000000
 C      1   0   0     6.371670816984     0.00000000     0.00000000
 C      1   2   0     2.413363834982    23.81565594     0.00000000
 C      3   1   2     1.403486373286    87.92000365    63.69997351
 C      4   3   1     1.380923241893   120.14410885     0.13967989
 C      5   4   3     2.447340393162   152.53353089     1.61074564
 C      2   1   3     1.368114030335     7.03302433   307.11006732
 C      7   2   4     1.434084376876   108.05010202   244.92965948
 C      2   1   3     1.434123425651   108.75655254    33.92473540
 C      1   2   7     1.380951483579    45.56282646   268.04323803
 N      1   2   7     1.352515434293    80.23317707    61.71162399
 N      9   2   1     1.376127174356   106.58526707   351.84270257
 N     12   9   2     2.925062050624   168.53581413   171.12065651
 N     13  12   9     2.954513327098    91.55032014    11.12112580
 N     14  13  12     2.925371258490    88.43092389   359.84326247
 C      8   7   2     1.404790019896   127.24786865   181.11170171
 C     13  12   9     1.366535034311    81.72106996   188.00453233
 C     14  13  12     5.758810554272    80.56209567   166.76250791
 C     17  13  12     1.459010623676   111.08861209   183.82872609
 C     18  14  13     2.412235892279    27.27532823    36.33507194
 C     20  18  14     1.402692767501    87.95206320   148.94598259
 C     21  20  18     1.382106725257   120.14573887   359.70382047
 C     18  14  13     2.446510985056   144.15733107    82.80075377
 C     19  17  13     1.353610726908   106.29293361   359.75308708
 C     13  12   9     1.366813447402   172.21332906    33.46711076
 C     18  14  13     1.380960173213    15.08449437   309.23336894
 N     22  21  20     1.352773077792   120.73759875     0.27865223
 C     25  13  17     1.410897586645   125.60330303   182.37774668
 C     14  13  12     1.376642291955    80.24689249   177.85461986
 C     14  13  12     5.764089607215   164.51507311   312.20821879
 C     29  14  13     1.435600919476   106.58649366   178.76395472
 C     30  14  13     2.413316804732    27.10625047    82.12560436
 C     32  30  14     1.403734305344    87.90059683   149.76154742
 C     33  32  30     1.380694028378   120.14881443   359.74174632
 C     34  33  32     2.448777858443   152.49203239     2.45173620
 C     31  29  14     1.368160809262   108.16950133     0.70383075
 C     14  13  12     1.376239804685   169.26375223   353.09862627
 C     30  14  13     1.380907310430    14.68948582   353.70041132
 N     34  33  32     1.352658863128   120.85575621     0.19603406
 C     37  14  29     1.404717053360   126.01551127   180.90772073
 C     15  14  13     1.366491126938    81.61824056   183.09049352
 C      2   1   3     4.249062720177   151.90539018   154.94065907
 C     41  15  14     1.459677704153   111.05201287   175.08990246
 C     42   2   1     2.412953791518    41.78584867   210.71543401
 C     44  42   2     1.403446472082    87.95153797   233.97558675
 C     45  44  42     1.381696421071   120.11137308     0.19721020
 C     42   2   1     2.450019795838   135.97209175   121.03028311
 C     43  41  15     1.354461516618   106.26758155     0.30894352
 C     15  14  13     1.367461151185   171.87382904   332.35056460
 C     42   2   1     1.381886391857    32.59078432   259.57071320
 C      9   2   1     1.404988612053   126.98745415   172.84704010
 N     42   2   1     1.352765315936   113.57249190   148.76687231
 H      1   2   7     1.083304666287   153.12337555   193.24134534
 H      2   1   3     1.079907866440   125.63904904   206.81969267
 H      4   3   1     1.083755046124   121.06786931   179.51471937
 H      5   4   3     1.081945469975   122.77421000   179.44317277
 H      6   5   4     1.092280183836   104.44330613   100.09064197
 H      6   5   4     1.089972935444    84.66727043   209.53600693
 H      6   5   4     1.089355772923   133.90160516   322.32578151
 H      7   2  54     1.079807853278   126.66122480     1.30600390
 H     10   1   2     1.083875454100   118.76833564   211.51342339
 H     12   9   2     1.016297692608   125.29023241   180.00180175
 H     14  13  12     1.014936943854    44.97226959   359.42596618
 H     18  14  13     1.082871645210   128.03556573   234.20482432
 H     19  17  13     1.080893611786   126.41830519   178.11313280
 H     21  20  18     1.083569563987   121.05669627   180.67006309
 H     22  21  20     1.082483256222   122.73097286   180.59748951
 H     23  18  14     1.092105306278   103.92715769   234.93429879
 H     23  18  14     1.088871893291   134.19244188    12.25587044
 H     23  18  14     1.089833473518    84.85857450   125.45241208
 H     24  19  17     1.080075460327   127.28078426   178.44613241
 H     26  18  14     1.083408048706   118.76995697   244.94906660
 H     30  14  13     1.082703098730   127.99711412   279.66882698
 H     31  29  14     1.079759695488   125.22293469   180.92530585
 H     33  32  30     1.083188810873   121.01964473   180.74284758
 H     34  33  32     1.082494341787   122.70821597   180.59516895
 H     35  34  33     1.092652735319   105.73575241    97.19771933
 H     35  34  33     1.089462711615    84.05943581   206.43036958
 H     35  34  33     1.089268102902   133.08365142   318.50306270
 H     36  31  29     1.079439669458   126.61599965   178.98859863
 H     38  30  73     1.083742127999   118.77264435   359.90091293
 H     42   2   1     1.082178358682   119.31790784     5.39840276
 H     43  41  15     1.080281907652   126.36969097   182.06329380
 H     45  44  42     1.083277434455   121.10105945   179.58025624
 H     46  45  44     1.082194529648   122.72144639   179.46906377
 H     47  42   2     1.091546151109   106.65128841   315.16475048
 H     47  42   2     1.088818625851   132.46019523    94.52397119
 H     47  42   2     1.089531091801    83.63838232   206.04504406
 H     48  43  41     1.080402239909   127.23657387   181.62955349
 H     50  42   2     1.083186502870   118.77001737    94.71359229

---------------------------
INTERNAL COORDINATES (A.U.)
---------------------------
 C      0   0   0     0.000000000000     0.00000000     0.00000000
 C      1   0   0    12.040712859597     0.00000000     0.00000000
 C      1   2   0     4.560596709626    23.81565594     0.00000000
 C      3   1   2     2.652204878201    87.92000365    63.69997351
 C      4   3   1     2.609566739144   120.14410885     0.13967989
 C      5   4   3     4.624803099558   152.53353089     1.61074564
 C      2   1   3     2.585360837309     7.03302433   307.11006732
 C      7   2   4     2.710026725231   108.05010202   244.92965948
 C      2   1   3     2.710100516721   108.75655254    33.92473540
 C      1   2   7     2.609620108197    45.56282646   268.04323803
 N      1   2   7     2.555883762715    80.23317707    61.71162399
 N      9   2   1     2.600503484979   106.58526707   351.84270257
 N     12   9   2     5.527566200405   168.53581413   171.12065651
 N     13  12   9     5.583221047236    91.55032014    11.12112580
 N     14  13  12     5.528150518591    88.43092389   359.84326247
 C      8   7   2     2.654668413270   127.24786865   181.11170171
 C     13  12   9     2.582376967257    81.72106996   188.00453233
 C     14  13  12    10.882574804710    80.56209567   166.76250791
 C     17  13  12     2.757130505230   111.08861209   183.82872609
 C     18  14  13     4.558465206823    27.27532823    36.33507194
 C     20  18  14     2.650705180609    87.95206320   148.94598259
 C     21  20  18     2.611803198586   120.14573887   359.70382047
 C     18  14  13     4.623235745386   144.15733107    82.80075377
 C     19  17  13     2.557953565794   106.29293361   359.75308708
 C     13  12   9     2.582903091751   172.21332906    33.46711076
 C     18  14  13     2.609636529225    15.08449437   309.23336894
 N     22  21  20     2.556370638369   120.73759875     0.27865223
 C     25  13  17     2.666210041769   125.60330303   182.37774668
 C     14  13  12     2.601476916169    80.24689249   177.85461986
 C     14  13  12    10.892550769017   164.51507311   312.20821879
 C     29  14  13     2.712892575415   106.58649366   178.76395472
 C     30  14  13     4.560507835333    27.10625047    82.12560436
 C     32  30  14     2.652673401891    87.90059683   149.76154742
 C     33  32  30     2.609133588376   120.14881443   359.74174632
 C     34  33  32     4.627519515267   152.49203239     2.45173620
 C     31  29  14     2.585449236669   108.16950133     0.70383075
 C     14  13  12     2.600716325456   169.26375223   353.09862627
 C     30  14  13     2.609536633043    14.68948582   353.70041132
 N     34  33  32     2.556154803934   120.85575621     0.19603406
 C     37  14  29     2.654530526499   126.01551127   180.90772073
 C     15  14  13     2.582293994346    81.61824056   183.09049352
 C      2   1   3     8.029564866989   151.90539018   154.94065907
 C     41  15  14     2.758391104639   111.05201287   175.08990246
 C     42   2   1     4.559821839776    41.78584867   210.71543401
 C     44  42   2     2.652129475853    87.95153797   233.97558675
 C     45  44  42     2.611027836043   120.11137308     0.19721020
 C     42   2   1     4.629866436820   135.97209175   121.03028311
 C     43  41  15     2.559561325344   106.26758155     0.30894352
 C     15  14  13     2.584127074516   171.87382904   332.35056460
 C     42   2   1     2.611386828803    32.59078432   259.57071320
 C      9   2   1     2.655043698059   126.98745415   172.84704010
 N     42   2   1     2.556355970587   113.57249190   148.76687231
 H      1   2   7     2.047149138882   153.12337555   193.24134534
 H      2   1   3     2.040730117440   125.63904904   206.81969267
 H      4   3   1     2.048000233430   121.06786931   179.51471937
 H      5   4   3     2.044580630090   122.77421000   179.44317277
 H      6   5   4     2.064110408959   104.44330613   100.09064197
 H      6   5   4     2.059750341375    84.66727043   209.53600693
 H      6   5   4     2.058584073230   133.90160516   322.32578151
 H      7   2  54     2.040541119952   126.66122480     1.30600390
 H     10   1   2     2.048227771528   118.76833564   211.51342339
 H     12   9   2     1.920524309565   125.29023241   180.00180175
 H     14  13  12     1.917952867083    44.97226959   359.42596618
 H     18  14  13     2.046330847636   128.03556573   234.20482432
 H     19  17  13     2.042592906181   126.41830519   178.11313280
 H     21  20  18     2.047649722989   121.05669627   180.67006309
 H     22  21  20     2.045596898814   122.73097286   180.59748951
 H     23  18  14     2.063779938267   103.92715769   234.93429879
 H     23  18  14     2.057669673245   134.19244188    12.25587044
 H     23  18  14     2.059486796529    84.85857450   125.45241208
 H     24  19  17     2.041046823986   127.28078426   178.44613241
 H     26  18  14     2.047344503340   118.76995697   244.94906660
 H     30  14  13     2.046012340948   127.99711412   279.66882698
 H     31  29  14     2.040450114918   125.22293469   180.92530585
 H     33  32  30     2.046930203877   121.01964473   180.74284758
 H     34  33  32     2.045617847496   122.70821597   180.59516895
 H     35  34  33     2.064814429233   105.73575241    97.19771933
 H     35  34  33     2.058786158072    84.05943581   206.43036958
 H     35  34  33     2.058418400901   133.08365142   318.50306270
 H     36  31  29     2.039845353366   126.61599965   178.98859863
 H     38  30  73     2.047975821711   118.77264435   359.90091293
 H     42   2   1     2.045020725966   119.31790784     5.39840276
 H     43  41  15     2.041436952892   126.36969097   182.06329380
 H     45  44  42     2.047097678177   121.10105945   179.58025624
 H     46  45  44     2.045051284662   122.72144639   179.46906377
 H     47  42   2     2.062723288131   106.65128841   315.16475048
 H     47  42   2     2.057569012371   132.46019523    94.52397119
 H     47  42   2     2.058915377895    83.63838232   206.04504406
 H     48  43  41     2.041664347903   127.23657387   181.62955349
 H     50  42   2     2.046925842384   118.77001737    94.71359229

---------------------
BASIS SET INFORMATION
---------------------
There are 3 groups of distinct atoms

 Group   1 Type C   : 17s4p1d contracted to 3s2p1d pattern {881/31/1}
 Group   2 Type N   : 17s4p1d contracted to 3s2p1d pattern {881/31/1}
 Group   3 Type H   : 4s1p contracted to 2s1p pattern {31/1}

Atom   0C    basis set group =>   1
Atom   1N    basis set group =>   2
Atom   2C    basis set group =>   1
Atom   3N    basis set group =>   2
Atom   4C    basis set group =>   1
Atom   5N    basis set group =>   2
Atom   6C    basis set group =>   1
Atom   7N    basis set group =>   2
Atom   8C    basis set group =>   1
Atom   9N    basis set group =>   2
Atom  10C    basis set group =>   1
Atom  11N    basis set group =>   2
Atom  12C    basis set group =>   1
Atom  13N    basis set group =>   2
Atom  14C    basis set group =>   1
Atom  15N    basis set group =>   2
Atom  16C    basis set group =>   1
Atom  17C    basis set group =>   1
Atom  18C    basis set group =>   1
Atom  19C    basis set group =>   1
Atom  20C    basis set group =>   1
Atom  21C    basis set group =>   1
Atom  22C    basis set group =>   1
Atom  23C    basis set group =>   1
Atom  24C    basis set group =>   1
Atom  25C    basis set group =>   1
Atom  26C    basis set group =>   1
Atom  27C    basis set group =>   1
Atom  28C    basis set group =>   1
Atom  29C    basis set group =>   1
Atom  30C    basis set group =>   1
Atom  31C    basis set group =>   1
Atom  32C    basis set group =>   1
Atom  33C    basis set group =>   1
Atom  34C    basis set group =>   1
Atom  35C    basis set group =>   1
Atom  36C    basis set group =>   1
Atom  37C    basis set group =>   1
Atom  38C    basis set group =>   1
Atom  39C    basis set group =>   1
Atom  40C    basis set group =>   1
Atom  41C    basis set group =>   1
Atom  42C    basis set group =>   1
Atom  43C    basis set group =>   1
Atom  44C    basis set group =>   1
Atom  45C    basis set group =>   1
Atom  46C    basis set group =>   1
Atom  47C    basis set group =>   1
Atom  48C    basis set group =>   1
Atom  49C    basis set group =>   1
Atom  50C    basis set group =>   1
Atom  51C    basis set group =>   1
Atom  52H    basis set group =>   3
Atom  53H    basis set group =>   3
Atom  54H    basis set group =>   3
Atom  55H    basis set group =>   3
Atom  56H    basis set group =>   3
Atom  57H    basis set group =>   3
Atom  58H    basis set group =>   3
Atom  59H    basis set group =>   3
Atom  60H    basis set group =>   3
Atom  61H    basis set group =>   3
Atom  62H    basis set group =>   3
Atom  63H    basis set group =>   3
Atom  64H    basis set group =>   3
Atom  65H    basis set group =>   3
Atom  66H    basis set group =>   3
Atom  67H    basis set group =>   3
Atom  68H    basis set group =>   3
Atom  69H    basis set group =>   3
Atom  70H    basis set group =>   3
Atom  71H    basis set group =>   3
Atom  72H    basis set group =>   3
Atom  73H    basis set group =>   3
Atom  74H    basis set group =>   3
Atom  75H    basis set group =>   3
Atom  76H    basis set group =>   3
Atom  77H    basis set group =>   3
Atom  78H    basis set group =>   3
Atom  79H    basis set group =>   3
Atom  80H    basis set group =>   3
Atom  81H    basis set group =>   3
Atom  82H    basis set group =>   3
Atom  83H    basis set group =>   3
Atom  84H    basis set group =>   3
Atom  85H    basis set group =>   3
Atom  86H    basis set group =>   3
Atom  87H    basis set group =>   3
Atom  88H    basis set group =>   3
Atom  89H    basis set group =>   3


           ************************************************************
           *        Program running with 16 parallel MPI-processes    *
           *              working on a common directory               *
           ************************************************************
------------------------------------------------------------------------------
                           ORCA GTO INTEGRAL CALCULATION
------------------------------------------------------------------------------
------------------------------------------------------------------------------
                   ___                                                        
                  /   \      - P O W E R E D   B Y -                         
                 /     \                                                     
                 |  |  |   _    _      __       _____    __    __             
                 |  |  |  | |  | |    /  \     |  _  \  |  |  /  |          
                  \  \/   | |  | |   /    \    | | | |  |  | /  /          
                 / \  \   | |__| |  /  /\  \   | |_| |  |  |/  /          
                |  |  |   |  __  | /  /__\  \  |    /   |      \           
                |  |  |   | |  | | |   __   |  |    \   |  |\   \          
                \     /   | |  | | |  |  |  |  | |\  \  |  | \   \       
                 \___/    |_|  |_| |__|  |__|  |_| \__\ |__|  \__/        
                                                                              
                      - O R C A' S   B I G   F R I E N D -                    
                                      &                                       
                       - I N T E G R A L  F E E D E R -                       
                                                                              
 v1 FN, 2020, v2 2021                                                         
------------------------------------------------------------------------------


Reading SHARK input file /scratch/allen/tmpyp4_amber_gaff2/conf1/conf1/Conf140.orca.SHARKINP.tmp ... ok
----------------------
SHARK INTEGRAL PACKAGE
----------------------

Number of atoms                             ...     90
Number of basis functions                   ...   1230
Number of shells                            ...    738
Maximum angular momentum                    ...      2
Integral batch strategy                     ... SHARK/LIBINT Hybrid
RI-J (if used) integral strategy            ... SPLIT-RIJ (Revised 2003 algorithm where possible)
Printlevel                                  ...      1
Contraction scheme used                     ... PARTIAL GENERAL contraction
Coulomb Range Separation                    ... NOT USED
Exchange Range Separation                   ... NOT USED
Finite Nucleus Model                        ... NOT USED
Auxiliary Coulomb fitting basis             ... NOT available
Auxiliary J/K fitting basis                 ... NOT available
Auxiliary Correlation fitting basis         ... NOT available
Auxiliary 'external' fitting basis          ... NOT available
Integral threshold                          ...     2.500000e-11
Primitive cut-off                           ...     2.500000e-12
Primitive pair pre-selection threshold      ...     2.500000e-12

Calculating pre-screening integrals         ... done (  0.1 sec) Dimension = 738
Calculating pre-screening integrals (ORCA)  ... done (  0.3 sec) Dimension = 426
Organizing shell pair data                  ... done (  0.8 sec)
Shell pair information
Total number of shell pairs                 ...    272691
Shell pairs after pre-screening             ...     71642
Total number of primitive shell pairs       ...    422091
Primitive shell pairs kept                  ...     92434
          la=0 lb=0:  29411 shell pairs
          la=1 lb=0:  25989 shell pairs
          la=1 lb=1:   4709 shell pairs
          la=2 lb=0:   7881 shell pairs
          la=2 lb=1:   3122 shell pairs
          la=2 lb=2:    530 shell pairs

Calculating one electron integrals          ... done (  0.3 sec)
Calculating Nuclear repulsion               ... done (  0.0 sec) ENN=   6228.694276120805 Eh

SHARK setup successfully completed in   2.2 seconds

Maximum memory used throughout the entire GTOINT-calculation: 99.0 MB


           ************************************************************
           *        Program running with 16 parallel MPI-processes    *
           *              working on a common directory               *
           ************************************************************
-------------------------------------------------------------------------------
                                 ORCA SCF
-------------------------------------------------------------------------------

------------
SCF SETTINGS
------------
Hamiltonian:
 Ab initio Hamiltonian  Method          .... Hartree-Fock(GTOs)


General Settings:
 Integral files         IntName         .... /scratch/allen/tmpyp4_amber_gaff2/conf1/conf1/Conf140.orca
 Hartree-Fock type      HFTyp           .... RHF
 Total Charge           Charge          ....    0
 Multiplicity           Mult            ....    1
 Number of Electrons    NEL             ....  358
 Basis Dimension        Dim             ....  918
 Nuclear Repulsion      ENuc            ....   6228.6942761208 Eh

Convergence Acceleration:
 DIIS                   CNVDIIS         .... on
   Start iteration      DIISMaxIt       ....    12
   Startup error        DIISStart       ....  0.200000
   # of expansion vecs  DIISMaxEq       ....     5
   Bias factor          DIISBfac        ....   1.050
   Max. coefficient     DIISMaxC        ....  10.000
 Trust-Rad. Augm. Hess. CNVTRAH         .... auto
   Auto Start mean grad. ratio tolernc. ....  1.125000
   Auto Start start iteration           ....    20
   Auto Start num. interpolation iter.  ....    10
   Max. Number of Micro iterations      ....    16
   Max. Number of Macro iterations      .... Maxiter - #DIIS iter
   Number of Davidson start vectors     ....     2
   Converg. threshold I  (grad. norm)   ....   1.000e-05
   Converg. threshold II (energy diff.) ....   1.000e-08
   Grad. Scal. Fac. for Micro threshold ....   0.100
   Minimum threshold for Micro iter.    ....   0.010
   NR start threshold (gradient norm)   ....   0.001
   Initial trust radius                 ....   0.400
   Minimum AH scaling param. (alpha)    ....   1.000
   Maximum AH scaling param. (alpha)    .... 1000.000
   Orbital update algorithm             .... Taylor
   White noise on init. David. guess    .... on
   Maximum white noise                  ....   0.010
   Quad. conv. algorithm                .... NR
 SOSCF                  CNVSOSCF        .... on
   Start iteration      SOSCFMaxIt      ....   150
   Startup grad/error   SOSCFStart      ....  0.003300
 Level Shifting         CNVShift        .... on
   Level shift para.    LevelShift      ....    0.2500
   Turn off err/grad.   ShiftErr        ....    0.0010
 Zerner damping         CNVZerner       .... off
 Static damping         CNVDamp         .... on
   Fraction old density DampFac         ....    0.7000
   Max. Damping (<1)    DampMax         ....    0.9800
   Min. Damping (>=0)   DampMin         ....    0.0000
   Turn off err/grad.   DampErr         ....    0.1000
 Fernandez-Rico         CNVRico         .... off

SCF Procedure:
 Maximum # iterations   MaxIter         ....   125
 SCF integral mode      SCFMode         .... Direct
   Integral package                     .... SHARK and LIBINT hybrid scheme
 Reset frequency        DirectResetFreq ....    20
 Integral Threshold     Thresh          ....  2.500e-11 Eh
 Primitive CutOff       TCut            ....  2.500e-12 Eh

Convergence Tolerance:
 Convergence Check Mode ConvCheckMode   .... Total+1el-Energy
 Convergence forced     ConvForced      .... 1
 Energy Change          TolE            ....  1.000e-08 Eh
 1-El. energy change                    ....  1.000e-05 Eh
 Orbital Gradient       TolG            ....  1.000e-05
 Orbital Rotation angle TolX            ....  1.000e-05
 DIIS Error             TolErr          ....  5.000e-07


Diagonalization of the overlap matrix:
Smallest eigenvalue                        ... 2.233e-04
Time for diagonalization                   ...    0.359 sec
Threshold for overlap eigenvalues          ... 1.000e-08
Number of eigenvalues below threshold      ... 0
Time for construction of square roots      ...    0.248 sec
Total time needed                          ...    0.612 sec

Time for model grid setup =    1.061 sec

------------------------------
INITIAL GUESS: MODEL POTENTIAL
------------------------------
Loading Hartree-Fock densities                     ... done
Calculating cut-offs                               ... done
Initializing the effective Hamiltonian             ... done
Setting up the integral package (SHARK)            ... done
Starting the Coulomb interaction                   ... done (   1.1 sec)
Reading the grid                                   ... done
Mapping shells                                     ... done
Starting the XC term evaluation                    ... done (   0.2 sec)
Transforming the Hamiltonian                       ... done (   0.2 sec)
Diagonalizing the Hamiltonian                      ... done (   0.3 sec)
Back transforming the eigenvectors                 ... done (   0.1 sec)
Now organizing SCF variables                       ... done
                      ------------------
                      INITIAL GUESS DONE (   3.1 sec)
                      ------------------
--------------
SCF ITERATIONS
--------------
ITER       Energy         Delta-E        Max-DP      RMS-DP      [F,P]     Damp
               ***  Starting incremental Fock matrix formation  ***
  0  -2121.6954826165   0.000000000000 0.06950705  0.00120804  0.2323911 0.7000
  1  -2122.3533688469  -0.657886230401 0.05240361  0.00098160  0.1439099 0.7000
                               ***Turning on DIIS***
  2  -2122.7622076998  -0.408838852956 0.12222578  0.00222829  0.0802411 0.0000
  3  -2117.8826132224   4.879594477397 0.03016325  0.00067006  0.0440183 0.0000
  4  -2123.4340303548  -5.551417132323 0.00916257  0.00022525  0.0072986 0.0000
  5  -2123.5981384027  -0.164108047946 0.00516798  0.00013261  0.0049991 0.0000
  6  -2123.5812515363   0.016886866453 0.00353184  0.00008539  0.0019595 0.0000
  7  -2123.6812126586  -0.099961122340 0.00300202  0.00006706  0.0015533 0.0000
  8  -2123.6937496067  -0.012536948092 0.00315492  0.00006287  0.0014429 0.0000
  9  -2123.6618917871   0.031857819555 0.00252593  0.00004352  0.0011480 0.0000
 10  -2123.6722522493  -0.010360462180 0.00512674  0.00008887  0.0008833 0.0000
                      *** Initiating the SOSCF procedure ***
                           *** Shutting down DIIS ***
                      *** Re-Reading the Fockian *** 
                      *** Removing any level shift *** 
ITER      Energy       Delta-E        Grad      Rot      Max-DP    RMS-DP
 11  -2123.56194201   0.1103102403  0.000212  0.000212  0.000249  0.000005
               *** Restarting incremental Fock matrix formation ***
 12  -2123.62726607  -0.0653240566  0.000845  0.005673  0.001294  0.000032
 13  -2123.62735533  -0.0000892600  0.001009  0.027601  0.006210  0.000124
 14  -2123.62750650  -0.0001511790  0.000373  0.001941  0.000526  0.000012
 15  -2123.62752228  -0.0000157732  0.000174  0.003824  0.000912  0.000019
 16  -2123.62753256  -0.0000102870  0.000167  0.003676  0.000587  0.000012
 17  -2123.62753617  -0.0000036098  0.000138  0.002401  0.000355  0.000008
 18  -2123.62753811  -0.0000019303  0.000077  0.001004  0.000319  0.000004
 19  -2123.62753897  -0.0000008695  0.000048  0.000541  0.000144  0.000003
 20  -2123.62753923  -0.0000002593  0.000024  0.000455  0.000100  0.000002
 21  -2123.62753937  -0.0000001357  0.000024  0.000260  0.000088  0.000002
 22  -2123.62753945  -0.0000000776  0.000014  0.000273  0.000087  0.000001
 23  -2123.62753949  -0.0000000470  0.000007  0.000159  0.000042  0.000001
 24  -2123.62753952  -0.0000000234  0.000004  0.000109  0.000027  0.000000
 25  -2123.62753953  -0.0000000088  0.000004  0.000079  0.000015  0.000000
                  ***Gradient check signals convergence***
              ***Rediagonalizing the Fockian in SOSCF/NRSCF***

               *****************************************************
               *                     SUCCESS                       *
               *           SCF CONVERGED AFTER  26 CYCLES          *
               *****************************************************


----------------
TOTAL SCF ENERGY
----------------

Total Energy       :        -2123.62753953 Eh          -57786.84318 eV

Components:
Nuclear Repulsion  :         6228.69427612 Eh          169491.38803 eV
Electronic Energy  :        -8352.32181565 Eh         -227278.23121 eV
One Electron Energy:       -15298.29483421 Eh         -416287.76610 eV
Two Electron Energy:         6945.97301855 Eh          189009.53489 eV

Virial components:
Potential Energy   :        -4245.69520616 Eh         -115531.24005 eV
Kinetic Energy     :         2122.06766663 Eh           57744.39688 eV
Virial Ratio       :            2.00073507


---------------
SCF CONVERGENCE
---------------

  Last Energy change         ...   -5.6662e-09  Tolerance :   1.0000e-08
  Last MAX-Density change    ...    1.4833e-05  Tolerance :   1.0000e-07
  Last RMS-Density change    ...    3.4578e-07  Tolerance :   5.0000e-09
  Last Orbital Gradient      ...    2.3432e-06  Tolerance :   1.0000e-05
  Last Orbital Rotation      ...    9.8674e-05  Tolerance :   1.0000e-05

             **** THE GBW FILE WAS UPDATED (/scratch/allen/tmpyp4_amber_gaff2/conf1/conf1/Conf140.orca.gbw) ****
             **** DENSITY /scratch/allen/tmpyp4_amber_gaff2/conf1/conf1/Conf140.orca.scfp WAS UPDATED ****
             **** ENERGY FILE WAS UPDATED (/scratch/allen/tmpyp4_amber_gaff2/conf1/conf1/Conf140.orca.en.tmp) ****
             **** THE GBW FILE WAS UPDATED (/scratch/allen/tmpyp4_amber_gaff2/conf1/conf1/Conf140.orca.gbw) ****
             **** DENSITY /scratch/allen/tmpyp4_amber_gaff2/conf1/conf1/Conf140.orca.scfp WAS UPDATED ****
----------------
ORBITAL ENERGIES
----------------

  NO   OCC          E(Eh)            E(eV) 
   0   2.0000     -15.664994      -426.2662 
   1   2.0000     -15.638387      -425.5421 
   2   2.0000     -15.628442      -425.2715 
   3   2.0000     -15.596597      -424.4050 
   4   2.0000     -15.523973      -422.4288 
   5   2.0000     -15.515873      -422.2084 
   6   2.0000     -15.449997      -420.4158 
   7   2.0000     -15.443415      -420.2367 
   8   2.0000     -11.318780      -307.9997 
   9   2.0000     -11.317624      -307.9682 
  10   2.0000     -11.315305      -307.9051 
  11   2.0000     -11.302045      -307.5443 
  12   2.0000     -11.296105      -307.3826 
  13   2.0000     -11.295827      -307.3751 
  14   2.0000     -11.291367      -307.2537 
  15   2.0000     -11.287431      -307.1466 
  16   2.0000     -11.284222      -307.0593 
  17   2.0000     -11.277077      -306.8649 
  18   2.0000     -11.268133      -306.6215 
  19   2.0000     -11.260989      -306.4271 
  20   2.0000     -11.260638      -306.4175 
  21   2.0000     -11.252959      -306.2086 
  22   2.0000     -11.252038      -306.1835 
  23   2.0000     -11.241955      -305.9092 
  24   2.0000     -11.234373      -305.7028 
  25   2.0000     -11.233800      -305.6872 
  26   2.0000     -11.233164      -305.6699 
  27   2.0000     -11.227038      -305.5032 
  28   2.0000     -11.226779      -305.4962 
  29   2.0000     -11.208566      -305.0006 
  30   2.0000     -11.207306      -304.9663 
  31   2.0000     -11.206717      -304.9503 
  32   2.0000     -11.201798      -304.8164 
  33   2.0000     -11.201149      -304.7988 
  34   2.0000     -11.190259      -304.5024 
  35   2.0000     -11.189842      -304.4911 
  36   2.0000     -11.184802      -304.3539 
  37   2.0000     -11.181319      -304.2592 
  38   2.0000     -11.180564      -304.2386 
  39   2.0000     -11.174399      -304.0709 
  40   2.0000     -11.170144      -303.9551 
  41   2.0000     -11.168059      -303.8983 
  42   2.0000     -11.166720      -303.8619 
  43   2.0000     -11.163808      -303.7827 
  44   2.0000     -11.162741      -303.7536 
  45   2.0000     -11.160650      -303.6967 
  46   2.0000     -11.154290      -303.5237 
  47   2.0000     -11.150014      -303.4073 
  48   2.0000     -11.148714      -303.3719 
  49   2.0000     -11.143589      -303.2325 
  50   2.0000     -11.136098      -303.0286 
  51   2.0000     -11.129976      -302.8620 
  52   2.0000      -1.347779       -36.6749 
  53   2.0000      -1.325019       -36.0556 
  54   2.0000      -1.316599       -35.8265 
  55   2.0000      -1.290333       -35.1117 
  56   2.0000      -1.224187       -33.3118 
  57   2.0000      -1.210683       -32.9444 
  58   2.0000      -1.168005       -31.7830 
  59   2.0000      -1.154531       -31.4164 
  60   2.0000      -1.132983       -30.8300 
  61   2.0000      -1.113345       -30.2957 
  62   2.0000      -1.106273       -30.1032 
  63   2.0000      -1.085249       -29.5311 
  64   2.0000      -1.070368       -29.1262 
  65   2.0000      -1.049015       -28.5452 
  66   2.0000      -1.041352       -28.3366 
  67   2.0000      -1.034391       -28.1472 
  68   2.0000      -1.017924       -27.6991 
  69   2.0000      -1.014219       -27.5983 
  70   2.0000      -1.009386       -27.4668 
  71   2.0000      -0.992676       -27.0121 
  72   2.0000      -0.987557       -26.8728 
  73   2.0000      -0.977301       -26.5937 
  74   2.0000      -0.972567       -26.4649 
  75   2.0000      -0.959181       -26.1007 
  76   2.0000      -0.951017       -25.8785 
  77   2.0000      -0.947479       -25.7822 
  78   2.0000      -0.936244       -25.4765 
  79   2.0000      -0.921005       -25.0618 
  80   2.0000      -0.900758       -24.5109 
  81   2.0000      -0.891062       -24.2470 
  82   2.0000      -0.876055       -23.8387 
  83   2.0000      -0.870195       -23.6792 
  84   2.0000      -0.865617       -23.5546 
  85   2.0000      -0.855042       -23.2669 
  86   2.0000      -0.843124       -22.9426 
  87   2.0000      -0.838199       -22.8085 
  88   2.0000      -0.822410       -22.3789 
  89   2.0000      -0.798628       -21.7318 
  90   2.0000      -0.794106       -21.6087 
  91   2.0000      -0.745543       -20.2873 
  92   2.0000      -0.737747       -20.0751 
  93   2.0000      -0.732221       -19.9247 
  94   2.0000      -0.723557       -19.6890 
  95   2.0000      -0.719771       -19.5860 
  96   2.0000      -0.713962       -19.4279 
  97   2.0000      -0.706349       -19.2207 
  98   2.0000      -0.702558       -19.1176 
  99   2.0000      -0.696333       -18.9482 
 100   2.0000      -0.694421       -18.8962 
 101   2.0000      -0.681993       -18.5580 
 102   2.0000      -0.679397       -18.4873 
 103   2.0000      -0.674609       -18.3570 
 104   2.0000      -0.674570       -18.3560 
 105   2.0000      -0.670816       -18.2538 
 106   2.0000      -0.665184       -18.1006 
 107   2.0000      -0.662765       -18.0348 
 108   2.0000      -0.656418       -17.8620 
 109   2.0000      -0.653550       -17.7840 
 110   2.0000      -0.649403       -17.6711 
 111   2.0000      -0.645433       -17.5631 
 112   2.0000      -0.642587       -17.4857 
 113   2.0000      -0.636772       -17.3274 
 114   2.0000      -0.635340       -17.2885 
 115   2.0000      -0.628782       -17.1100 
 116   2.0000      -0.623936       -16.9782 
 117   2.0000      -0.615876       -16.7588 
 118   2.0000      -0.614569       -16.7233 
 119   2.0000      -0.612423       -16.6649 
 120   2.0000      -0.608713       -16.5639 
 121   2.0000      -0.602259       -16.3883 
 122   2.0000      -0.600375       -16.3370 
 123   2.0000      -0.588086       -16.0026 
 124   2.0000      -0.586084       -15.9481 
 125   2.0000      -0.583891       -15.8885 
 126   2.0000      -0.578529       -15.7426 
 127   2.0000      -0.577547       -15.7158 
 128   2.0000      -0.563370       -15.3301 
 129   2.0000      -0.558402       -15.1949 
 130   2.0000      -0.553517       -15.0620 
 131   2.0000      -0.548902       -14.9364 
 132   2.0000      -0.542641       -14.7660 
 133   2.0000      -0.539112       -14.6700 
 134   2.0000      -0.535894       -14.5824 
 135   2.0000      -0.534041       -14.5320 
 136   2.0000      -0.524949       -14.2846 
 137   2.0000      -0.524168       -14.2633 
 138   2.0000      -0.517933       -14.0937 
 139   2.0000      -0.514664       -14.0047 
 140   2.0000      -0.510798       -13.8995 
 141   2.0000      -0.509927       -13.8758 
 142   2.0000      -0.509283       -13.8583 
 143   2.0000      -0.502614       -13.6768 
 144   2.0000      -0.500647       -13.6233 
 145   2.0000      -0.497019       -13.5246 
 146   2.0000      -0.494156       -13.4467 
 147   2.0000      -0.485904       -13.2221 
 148   2.0000      -0.483284       -13.1508 
 149   2.0000      -0.468595       -12.7511 
 150   2.0000      -0.464199       -12.6315 
 151   2.0000      -0.456284       -12.4161 
 152   2.0000      -0.448674       -12.2090 
 153   2.0000      -0.446679       -12.1548 
 154   2.0000      -0.445034       -12.1100 
 155   2.0000      -0.440329       -11.9820 
 156   2.0000      -0.431920       -11.7532 
 157   2.0000      -0.427643       -11.6368 
 158   2.0000      -0.401034       -10.9127 
 159   2.0000      -0.385687       -10.4951 
 160   2.0000      -0.379118       -10.3163 
 161   2.0000      -0.377523       -10.2729 
 162   2.0000      -0.370776       -10.0893 
 163   2.0000      -0.359601        -9.7852 
 164   2.0000      -0.353277        -9.6132 
 165   2.0000      -0.337806        -9.1922 
 166   2.0000      -0.337298        -9.1783 
 167   2.0000      -0.330855        -9.0030 
 168   2.0000      -0.328115        -8.9285 
 169   2.0000      -0.302814        -8.2400 
 170   2.0000      -0.299716        -8.1557 
 171   2.0000      -0.286842        -7.8054 
 172   2.0000      -0.284123        -7.7314 
 173   2.0000      -0.259860        -7.0711 
 174   2.0000      -0.245325        -6.6756 
 175   2.0000      -0.189525        -5.1572 
 176   2.0000      -0.179742        -4.8910 
 177   2.0000      -0.072559        -1.9744 
 178   2.0000      -0.057318        -1.5597 
 179   0.0000       0.028989         0.7888 
 180   0.0000       0.067681         1.8417 
 181   0.0000       0.092165         2.5079 
 182   0.0000       0.105747         2.8775 
 183   0.0000       0.116054         3.1580 
 184   0.0000       0.134261         3.6534 
 185   0.0000       0.141600         3.8531 
 186   0.0000       0.148650         4.0450 
 187   0.0000       0.162486         4.4215 
 188   0.0000       0.162899         4.4327 
 189   0.0000       0.165443         4.5019 
 190   0.0000       0.167658         4.5622 
 191   0.0000       0.183442         4.9917 
 192   0.0000       0.188182         5.1207 
 193   0.0000       0.191605         5.2138 
 194   0.0000       0.202446         5.5088 
 195   0.0000       0.205866         5.6019 
 196   0.0000       0.207709         5.6521 
 197   0.0000       0.210734         5.7344 
 198   0.0000       0.223272         6.0755 
 199   0.0000       0.223733         6.0881 
 200   0.0000       0.228243         6.2108 
 201   0.0000       0.237130         6.4526 
 202   0.0000       0.241229         6.5642 
 203   0.0000       0.241676         6.5763 
 204   0.0000       0.250732         6.8228 
 205   0.0000       0.254723         6.9314 
 206   0.0000       0.256387         6.9766 
 207   0.0000       0.259979         7.0744 
 208   0.0000       0.260806         7.0969 
 209   0.0000       0.261855         7.1254 
 210   0.0000       0.265059         7.2126 
 211   0.0000       0.271056         7.3758 
 212   0.0000       0.271465         7.3869 
 213   0.0000       0.272155         7.4057 
 214   0.0000       0.275754         7.5037 
 215   0.0000       0.277434         7.5494 
 216   0.0000       0.278839         7.5876 
 217   0.0000       0.281216         7.6523 
 218   0.0000       0.284227         7.7342 
 219   0.0000       0.289103         7.8669 
 220   0.0000       0.289341         7.8734 
 221   0.0000       0.293629         7.9901 
 222   0.0000       0.293729         7.9928 
 223   0.0000       0.296431         8.0663 
 224   0.0000       0.298331         8.1180 
 225   0.0000       0.299865         8.1597 
 226   0.0000       0.306970         8.3531 
 227   0.0000       0.308321         8.3899 
 228   0.0000       0.309634         8.4256 
 229   0.0000       0.319138         8.6842 
 230   0.0000       0.322335         8.7712 
 231   0.0000       0.326163         8.8753 
 232   0.0000       0.329273         8.9600 
 233   0.0000       0.330434         8.9916 
 234   0.0000       0.340529         9.2663 
 235   0.0000       0.347712         9.4617 
 236   0.0000       0.355354         9.6697 
 237   0.0000       0.380656        10.3582 
 238   0.0000       0.394685        10.7399 
 239   0.0000       0.397587        10.8189 
 240   0.0000       0.401854        10.9350 
 241   0.0000       0.413933        11.2637 
 242   0.0000       0.418477        11.3873 
 243   0.0000       0.420765        11.4496 
 244   0.0000       0.427156        11.6235 
 245   0.0000       0.434349        11.8192 
 246   0.0000       0.435257        11.8439 
 247   0.0000       0.438496        11.9321 
 248   0.0000       0.443564        12.0700 
 249   0.0000       0.444013        12.0822 
 250   0.0000       0.451418        12.2837 
 251   0.0000       0.459376        12.5002 
 252   0.0000       0.461490        12.5578 
 253   0.0000       0.466441        12.6925 
 254   0.0000       0.469607        12.7786 
 255   0.0000       0.474221        12.9042 
 256   0.0000       0.481687        13.1074 
 257   0.0000       0.482682        13.1344 
 258   0.0000       0.488380        13.2895 
 259   0.0000       0.498648        13.5689 
 260   0.0000       0.501828        13.6554 
 261   0.0000       0.504593        13.7307 
 262   0.0000       0.506472        13.7818 
 263   0.0000       0.509061        13.8523 
 264   0.0000       0.513803        13.9813 
 265   0.0000       0.518857        14.1188 
 266   0.0000       0.520590        14.1660 
 267   0.0000       0.524115        14.2619 
 268   0.0000       0.534131        14.5344 
 269   0.0000       0.537402        14.6235 
 270   0.0000       0.540328        14.7031 
 271   0.0000       0.546741        14.8776 
 272   0.0000       0.549349        14.9485 
 273   0.0000       0.555781        15.1236 
 274   0.0000       0.559999        15.2383 
 275   0.0000       0.564358        15.3570 
 276   0.0000       0.570322        15.5192 
 277   0.0000       0.574306        15.6277 
 278   0.0000       0.579078        15.7575 
 279   0.0000       0.585892        15.9429 
 280   0.0000       0.588053        16.0017 
 281   0.0000       0.590457        16.0672 
 282   0.0000       0.591983        16.1087 
 283   0.0000       0.596432        16.2297 
 284   0.0000       0.598232        16.2787 
 285   0.0000       0.598732        16.2923 
 286   0.0000       0.608121        16.5478 
 287   0.0000       0.612159        16.6577 
 288   0.0000       0.616161        16.7666 
 289   0.0000       0.619793        16.8654 
 290   0.0000       0.627566        17.0769 
 291   0.0000       0.629441        17.1280 
 292   0.0000       0.633328        17.2337 
 293   0.0000       0.635321        17.2880 
 294   0.0000       0.646192        17.5838 
 295   0.0000       0.649971        17.6866 
 296   0.0000       0.653907        17.7937 
 297   0.0000       0.657274        17.8853 
 298   0.0000       0.665777        18.1167 
 299   0.0000       0.666268        18.1301 
 300   0.0000       0.670342        18.2409 
 301   0.0000       0.671266        18.2661 
 302   0.0000       0.678543        18.4641 
 303   0.0000       0.680917        18.5287 
 304   0.0000       0.682544        18.5730 
 305   0.0000       0.686243        18.6736 
 306   0.0000       0.691218        18.8090 
 307   0.0000       0.691606        18.8196 
 308   0.0000       0.695617        18.9287 
 309   0.0000       0.697973        18.9928 
 310   0.0000       0.700417        19.0593 
 311   0.0000       0.703237        19.1361 
 312   0.0000       0.706119        19.2145 
 313   0.0000       0.709655        19.3107 
 314   0.0000       0.711661        19.3653 
 315   0.0000       0.713909        19.4264 
 316   0.0000       0.716928        19.5086 
 317   0.0000       0.718069        19.5397 
 318   0.0000       0.721266        19.6266 
 319   0.0000       0.725926        19.7535 
 320   0.0000       0.726406        19.7665 
 321   0.0000       0.729103        19.8399 
 322   0.0000       0.733987        19.9728 
 323   0.0000       0.736710        20.0469 
 324   0.0000       0.738337        20.0912 
 325   0.0000       0.740264        20.1436 
 326   0.0000       0.742080        20.1930 
 327   0.0000       0.744617        20.2621 
 328   0.0000       0.748021        20.3547 
 329   0.0000       0.751356        20.4454 
 330   0.0000       0.752197        20.4683 
 331   0.0000       0.755167        20.5491 
 332   0.0000       0.759051        20.6548 
 333   0.0000       0.762440        20.7470 
 334   0.0000       0.768656        20.9162 
 335   0.0000       0.775058        21.0904 
 336   0.0000       0.776370        21.1261 
 337   0.0000       0.780862        21.2483 
 338   0.0000       0.784963        21.3599 
 339   0.0000       0.789957        21.4958 
 340   0.0000       0.791919        21.5492 
 341   0.0000       0.795390        21.6437 
 342   0.0000       0.796020        21.6608 
 343   0.0000       0.799720        21.7615 
 344   0.0000       0.804270        21.8853 
 345   0.0000       0.806433        21.9442 
 346   0.0000       0.807567        21.9750 
 347   0.0000       0.809276        22.0215 
 348   0.0000       0.814568        22.1655 
 349   0.0000       0.817398        22.2425 
 350   0.0000       0.820676        22.3317 
 351   0.0000       0.822907        22.3924 
 352   0.0000       0.823471        22.4078 
 353   0.0000       0.825635        22.4667 
 354   0.0000       0.830658        22.6034 
 355   0.0000       0.832690        22.6586 
 356   0.0000       0.833792        22.6886 
 357   0.0000       0.835947        22.7473 
 358   0.0000       0.836672        22.7670 
 359   0.0000       0.838332        22.8122 
 360   0.0000       0.841897        22.9092 
 361   0.0000       0.842990        22.9389 
 362   0.0000       0.843987        22.9661 
 363   0.0000       0.844144        22.9703 
 364   0.0000       0.849533        23.1170 
 365   0.0000       0.854524        23.2528 
 366   0.0000       0.854932        23.2639 
 367   0.0000       0.857557        23.3353 
 368   0.0000       0.861845        23.4520 
 369   0.0000       0.865047        23.5391 
 370   0.0000       0.867877        23.6161 
 371   0.0000       0.871998        23.7283 
 372   0.0000       0.874800        23.8045 
 373   0.0000       0.878452        23.9039 
 374   0.0000       0.880906        23.9707 
 375   0.0000       0.882456        24.0128 
 376   0.0000       0.884718        24.0744 
 377   0.0000       0.888795        24.1853 
 378   0.0000       0.890396        24.2289 
 379   0.0000       0.894266        24.3342 
 380   0.0000       0.897265        24.4158 
 381   0.0000       0.899417        24.4744 
 382   0.0000       0.902442        24.5567 
 383   0.0000       0.903344        24.5813 
 384   0.0000       0.903462        24.5845 
 385   0.0000       0.905164        24.6308 
 386   0.0000       0.906940        24.6791 
 387   0.0000       0.909382        24.7455 
 388   0.0000       0.910950        24.7882 
 389   0.0000       0.915658        24.9163 
 390   0.0000       0.917268        24.9601 
 391   0.0000       0.923048        25.1174 
 392   0.0000       0.924322        25.1521 
 393   0.0000       0.924564        25.1587 
 394   0.0000       0.927295        25.2330 
 395   0.0000       0.930022        25.3072 
 396   0.0000       0.931539        25.3485 
 397   0.0000       0.932644        25.3785 
 398   0.0000       0.941362        25.6158 
 399   0.0000       0.942325        25.6420 
 400   0.0000       0.943075        25.6624 
 401   0.0000       0.949035        25.8246 
 402   0.0000       0.952851        25.9284 
 403   0.0000       0.955548        26.0018 
 404   0.0000       0.958547        26.0834 
 405   0.0000       0.959650        26.1134 
 406   0.0000       0.962237        26.1838 
 407   0.0000       0.964736        26.2518 
 408   0.0000       0.969770        26.3888 
 409   0.0000       0.974457        26.5163 
 410   0.0000       0.978309        26.6211 
 411   0.0000       0.981881        26.7183 
 412   0.0000       0.986777        26.8516 
 413   0.0000       0.987589        26.8737 
 414   0.0000       0.990339        26.9485 
 415   0.0000       1.000673        27.2297 
 416   0.0000       1.003231        27.2993 
 417   0.0000       1.005557        27.3626 
 418   0.0000       1.006301        27.3828 
 419   0.0000       1.018064        27.7029 
 420   0.0000       1.022057        27.8116 
 421   0.0000       1.028715        27.9927 
 422   0.0000       1.034600        28.1529 
 423   0.0000       1.042063        28.3560 
 424   0.0000       1.043887        28.4056 
 425   0.0000       1.053388        28.6641 
 426   0.0000       1.058436        28.8015 
 427   0.0000       1.060758        28.8647 
 428   0.0000       1.065162        28.9845 
 429   0.0000       1.072290        29.1785 
 430   0.0000       1.077398        29.3175 
 431   0.0000       1.083685        29.4886 
 432   0.0000       1.084614        29.5139 
 433   0.0000       1.088691        29.6248 
 434   0.0000       1.098491        29.8915 
 435   0.0000       1.104755        30.0619 
 436   0.0000       1.105951        30.0945 
 437   0.0000       1.110566        30.2200 
 438   0.0000       1.115073        30.3427 
 439   0.0000       1.116379        30.3782 
 440   0.0000       1.121499        30.5175 
 441   0.0000       1.124031        30.5864 
 442   0.0000       1.125956        30.6388 
 443   0.0000       1.128492        30.7078 
 444   0.0000       1.131384        30.7865 
 445   0.0000       1.133341        30.8398 
 446   0.0000       1.138654        30.9844 
 447   0.0000       1.142090        31.0778 
 448   0.0000       1.146141        31.1881 
 449   0.0000       1.150269        31.3004 
 450   0.0000       1.150662        31.3111 
 451   0.0000       1.151755        31.3408 
 452   0.0000       1.157624        31.5005 
 453   0.0000       1.158775        31.5319 
 454   0.0000       1.163115        31.6500 
 455   0.0000       1.170714        31.8567 
 456   0.0000       1.171941        31.8901 
 457   0.0000       1.177625        32.0448 
 458   0.0000       1.179008        32.0824 
 459   0.0000       1.186205        32.2783 
 460   0.0000       1.188141        32.3310 
 461   0.0000       1.195206        32.5232 
 462   0.0000       1.201143        32.6848 
 463   0.0000       1.202741        32.7283 
 464   0.0000       1.206165        32.8214 
 465   0.0000       1.208839        32.8942 
 466   0.0000       1.212422        32.9917 
 467   0.0000       1.214287        33.0424 
 468   0.0000       1.221949        33.2509 
 469   0.0000       1.226469        33.3739 
 470   0.0000       1.229364        33.4527 
 471   0.0000       1.232054        33.5259 
 472   0.0000       1.234427        33.5905 
 473   0.0000       1.235339        33.6153 
 474   0.0000       1.242108        33.7995 
 475   0.0000       1.245912        33.9030 
 476   0.0000       1.250852        34.0374 
 477   0.0000       1.251635        34.0587 
 478   0.0000       1.254213        34.1289 
 479   0.0000       1.255098        34.1529 
 480   0.0000       1.258708        34.2512 
 481   0.0000       1.263421        34.3794 
 482   0.0000       1.269534        34.5458 
 483   0.0000       1.271953        34.6116 
 484   0.0000       1.274279        34.6749 
 485   0.0000       1.276331        34.7307 
 486   0.0000       1.279407        34.8144 
 487   0.0000       1.283024        34.9129 
 488   0.0000       1.287490        35.0344 
 489   0.0000       1.290489        35.1160 
 490   0.0000       1.294872        35.2353 
 491   0.0000       1.296182        35.2709 
 492   0.0000       1.299096        35.3502 
 493   0.0000       1.303476        35.4694 
 494   0.0000       1.310502        35.6606 
 495   0.0000       1.314264        35.7629 
 496   0.0000       1.317130        35.8409 
 497   0.0000       1.323561        36.0159 
 498   0.0000       1.324915        36.0528 
 499   0.0000       1.328893        36.1610 
 500   0.0000       1.334346        36.3094 
 501   0.0000       1.335581        36.3430 
 502   0.0000       1.338821        36.4312 
 503   0.0000       1.348007        36.6811 
 504   0.0000       1.348981        36.7076 
 505   0.0000       1.350591        36.7515 
 506   0.0000       1.351574        36.7782 
 507   0.0000       1.358128        36.9565 
 508   0.0000       1.362468        37.0746 
 509   0.0000       1.364811        37.1384 
 510   0.0000       1.365416        37.1549 
 511   0.0000       1.369205        37.2580 
 512   0.0000       1.373609        37.3778 
[...]
      pz      :     0.022063  p :     0.079710
      px      :     0.043508
      py      :     0.014139
 77 H s       :     0.886184  s :     0.886184
      pz      :     0.047856  p :     0.079147
      px      :     0.015019
      py      :     0.016272
 78 H s       :     0.886606  s :     0.886606
      pz      :     0.025817  p :     0.079095
      px      :     0.020490
      py      :     0.032788
 79 H s       :     0.909852  s :     0.909852
      pz      :     0.021913  p :     0.086482
      px      :     0.021699
      py      :     0.042869
 80 H s       :     0.866832  s :     0.866832
      pz      :     0.039201  p :     0.084578
      px      :     0.030162
      py      :     0.015216
 81 H s       :     0.887194  s :     0.887194
      pz      :     0.037785  p :     0.084040
      px      :     0.016186
      py      :     0.030069
 82 H s       :     0.915936  s :     0.915936
      pz      :     0.022032  p :     0.086762
      px      :     0.031536
      py      :     0.033194
 83 H s       :     0.873600  s :     0.873600
      pz      :     0.039227  p :     0.084019
      px      :     0.015278
      py      :     0.029515
 84 H s       :     0.887229  s :     0.887229
      pz      :     0.035749  p :     0.083533
      px      :     0.031691
      py      :     0.016093
 85 H s       :     0.893490  s :     0.893490
      pz      :     0.022484  p :     0.079754
      px      :     0.014090
      py      :     0.043180
 86 H s       :     0.891175  s :     0.891175
      pz      :     0.024719  p :     0.078817
      px      :     0.032967
      py      :     0.021131
 87 H s       :     0.890157  s :     0.890157
      pz      :     0.047984  p :     0.078710
      px      :     0.015592
      py      :     0.015133
 88 H s       :     0.911690  s :     0.911690
      pz      :     0.021811  p :     0.087018
      px      :     0.042776
      py      :     0.022431
 89 H s       :     0.871644  s :     0.871644
      pz      :     0.037932  p :     0.083839
      px      :     0.030468
      py      :     0.015439


                      *****************************
                      * MAYER POPULATION ANALYSIS *
                      *****************************

  NA   - Mulliken gross atomic population
  ZA   - Total nuclear charge
  QA   - Mulliken gross atomic charge
  VA   - Mayer's total valence
  BVA  - Mayer's bonded valence
  FA   - Mayer's free valence

  ATOM       NA         ZA         QA         VA         BVA        FA
  0 C      5.7951     6.0000     0.2049     3.8389     3.8389    -0.0000
  1 N      7.4528     7.0000    -0.4528     3.3330     3.3330    -0.0000
  2 C      6.0642     6.0000    -0.0642     3.9212     3.9212    -0.0000
  3 N      7.3360     7.0000    -0.3360     3.4575     3.4575    -0.0000
  4 C      6.0543     6.0000    -0.0543     3.9963     3.9963    -0.0000
  5 N      7.5608     7.0000    -0.5608     3.0940     3.0940    -0.0000
  6 C      6.1086     6.0000    -0.1086     4.0084     4.0084    -0.0000
  7 N      7.3398     7.0000    -0.3398     3.4357     3.4357     0.0000
  8 C      5.7945     6.0000     0.2055     3.8404     3.8404    -0.0000
  9 N      7.5627     7.0000    -0.5627     3.0800     3.0800     0.0000
 10 C      5.8816     6.0000     0.1184     3.9067     3.9067     0.0000
 11 N      7.4376     7.0000    -0.4376     3.3830     3.3830     0.0000
 12 C      6.0807     6.0000    -0.0807     3.9115     3.9115    -0.0000
 13 N      7.4329     7.0000    -0.4329     3.4121     3.4121    -0.0000
 14 C      5.7706     6.0000     0.2294     3.7811     3.7811     0.0000
 15 N      7.4414     7.0000    -0.4414     3.3695     3.3695    -0.0000
 16 C      5.7702     6.0000     0.2298     3.7816     3.7816     0.0000
 17 C      6.1049     6.0000    -0.1049     4.0083     4.0083    -0.0000
 18 C      6.1789     6.0000    -0.1789     3.7664     3.7664     0.0000
 19 C      5.7839     6.0000     0.2161     3.8631     3.8631     0.0000
 20 C      5.7868     6.0000     0.2132     3.8275     3.8275    -0.0000
 21 C      6.0903     6.0000    -0.0903     3.9061     3.9061     0.0000
 22 C      6.0881     6.0000    -0.0881     3.9821     3.9821     0.0000
 23 C      6.0425     6.0000    -0.0425     3.9917     3.9917    -0.0000
 24 C      5.8013     6.0000     0.1987     3.8218     3.8218     0.0000
 25 C      5.8860     6.0000     0.1140     3.8899     3.8899     0.0000
 26 C      6.0743     6.0000    -0.0743     3.9066     3.9066    -0.0000
 27 C      5.7865     6.0000     0.2135     3.8685     3.8685    -0.0000
 28 C      6.0584     6.0000    -0.0584     3.9885     3.9885     0.0000
 29 C      6.1810     6.0000    -0.1810     3.7427     3.7427     0.0000
 30 C      5.7576     6.0000     0.2424     3.7966     3.7966    -0.0000
 31 C      5.7751     6.0000     0.2249     3.8210     3.8210    -0.0000
 32 C      6.0622     6.0000    -0.0622     3.9221     3.9221    -0.0000
 33 C      6.0675     6.0000    -0.0675     3.9767     3.9767     0.0000
 34 C      6.0496     6.0000    -0.0496     3.9867     3.9867     0.0000
 35 C      5.7808     6.0000     0.2192     3.8194     3.8194    -0.0000
 36 C      5.8898     6.0000     0.1102     3.8803     3.8803     0.0000
 37 C      6.0651     6.0000    -0.0651     3.9175     3.9175    -0.0000
 38 C      5.7658     6.0000     0.2342     3.8015     3.8015    -0.0000
 39 C      6.0599     6.0000    -0.0599     3.9857     3.9857     0.0000
 40 C      6.1830     6.0000    -0.1830     3.7316     3.7316     0.0000
 41 C      5.7771     6.0000     0.2229     3.8844     3.8844    -0.0000
 42 C      5.8017     6.0000     0.1983     3.8267     3.8267    -0.0000
 43 C      6.0731     6.0000    -0.0731     3.9007     3.9007    -0.0000
 44 C      6.0909     6.0000    -0.0909     3.9857     3.9857    -0.0000
 45 C      6.0590     6.0000    -0.0590     3.9923     3.9923    -0.0000
 46 C      5.7921     6.0000     0.2079     3.8281     3.8281     0.0000
 47 C      5.8843     6.0000     0.1157     3.8940     3.8940     0.0000
 48 C      6.0698     6.0000    -0.0698     3.9078     3.9078     0.0000
 49 C      5.7656     6.0000     0.2344     3.8916     3.8916    -0.0000
 50 C      6.0484     6.0000    -0.0484     3.9906     3.9906     0.0000
 51 C      6.1925     6.0000    -0.1925     3.7368     3.7368     0.0000
 52 H      0.9572     1.0000     0.0428     0.9859     0.9859    -0.0000
 53 H      1.0159     1.0000    -0.0159     0.9985     0.9985     0.0000
 54 H      0.9498     1.0000     0.0502     1.0098     1.0098     0.0000
 55 H      0.9585     1.0000     0.0415     0.9865     0.9865     0.0000
 56 H      0.9491     1.0000     0.0509     0.9701     0.9701     0.0000
 57 H      0.9505     1.0000     0.0495     0.9824     0.9824     0.0000
 58 H      0.9513     1.0000     0.0487     0.9854     0.9854     0.0000
 59 H      1.0006     1.0000    -0.0006     1.0031     1.0031    -0.0000
 60 H      0.9511     1.0000     0.0489     1.0130     1.0130    -0.0000
 61 H      0.8287     1.0000     0.1713     1.0419     1.0419     0.0000
 62 H      0.8251     1.0000     0.1749     1.0436     1.0436     0.0000
 63 H      0.9432     1.0000     0.0568     0.9852     0.9852    -0.0000
 64 H      1.0074     1.0000    -0.0074     0.9972     0.9972    -0.0000
 65 H      0.9530     1.0000     0.0470     1.0096     1.0096    -0.0000
 66 H      0.9430     1.0000     0.0570     0.9853     0.9853    -0.0000
 67 H      0.9365     1.0000     0.0635     0.9720     0.9720    -0.0000
 68 H      0.9420     1.0000     0.0580     0.9868     0.9868    -0.0000
 69 H      0.9422     1.0000     0.0578     0.9829     0.9829    -0.0000
 70 H      1.0274     1.0000    -0.0274     0.9930     0.9930     0.0000
 71 H      0.9531     1.0000     0.0469     1.0061     1.0061     0.0000
 72 H      0.9335     1.0000     0.0665     0.9840     0.9840    -0.0000
 73 H      1.0098     1.0000    -0.0098     1.0001     1.0001    -0.0000
 74 H      0.9440     1.0000     0.0560     1.0102     1.0102    -0.0000
 75 H      0.9343     1.0000     0.0657     0.9845     0.9845    -0.0000
 76 H      0.9292     1.0000     0.0708     0.9720     0.9720    -0.0000
 77 H      0.9352     1.0000     0.0648     0.9854     0.9854     0.0000
 78 H      0.9361     1.0000     0.0639     0.9852     0.9852    -0.0000
 79 H      1.0151     1.0000    -0.0151     0.9983     0.9983     0.0000
 80 H      0.9435     1.0000     0.0565     1.0071     1.0071    -0.0000
 81 H      0.9465     1.0000     0.0535     0.9856     0.9856    -0.0000
 82 H      1.0249     1.0000    -0.0249     0.9935     0.9935     0.0000
 83 H      0.9587     1.0000     0.0413     1.0086     1.0086     0.0000
 84 H      0.9470     1.0000     0.0530     0.9854     0.9854     0.0000
 85 H      0.9404     1.0000     0.0596     0.9715     0.9715     0.0000
 86 H      0.9448     1.0000     0.0552     0.9839     0.9839    -0.0000
 87 H      0.9434     1.0000     0.0566     0.9856     0.9856    -0.0000
 88 H      1.0168     1.0000    -0.0168     0.9961     0.9961     0.0000
 89 H      0.9540     1.0000     0.0460     1.0070     1.0070    -0.0000

  Mayer bond orders larger than 0.100000
B(  0-C ,  1-N ) :   1.0913 B(  0-C , 17-C ) :   1.6940 B(  0-C , 52-H ) :   0.9680 
B(  1-N ,  8-C ) :   1.0921 B(  1-N , 10-C ) :   0.9753 B(  2-C , 12-C ) :   1.5177 
B(  2-C , 16-C ) :   1.3461 B(  2-C , 53-H ) :   0.9766 B(  3-N , 14-C ) :   1.2156 
B(  3-N , 16-C ) :   1.1929 B(  3-N , 61-H ) :   0.8993 B(  4-C ,  6-C ) :   1.2189 
B(  4-C , 17-C ) :   1.2187 B(  4-C , 18-C ) :   1.3973 B(  5-N , 19-C ) :   1.4460 
B(  5-N , 27-C ) :   1.3852 B(  6-C ,  8-C ) :   1.6928 B(  6-C , 54-H ) :   0.9653 
B(  7-N , 30-C ) :   1.1936 B(  7-N , 38-C ) :   1.1949 B(  7-N , 62-H ) :   0.8971 
B(  8-C , 55-H ) :   0.9690 B(  9-N , 41-C ) :   1.3958 B(  9-N , 49-C ) :   1.4258 
B( 10-C , 56-H ) :   0.9766 B( 10-C , 57-H ) :   0.9831 B( 10-C , 58-H ) :   0.9834 
B( 11-N , 20-C ) :   1.1311 B( 11-N , 24-C ) :   1.1140 B( 11-N , 25-C ) :   0.9584 
B( 12-C , 14-C ) :   1.3482 B( 12-C , 59-H ) :   0.9749 B( 13-N , 31-C ) :   1.1501 
B( 13-N , 35-C ) :   1.1439 B( 13-N , 36-C ) :   0.9474 B( 14-C , 18-C ) :   1.1468 
B( 15-N , 42-C ) :   1.1083 B( 15-N , 46-C ) :   1.1193 B( 15-N , 47-C ) :   0.9625 
B( 16-C , 51-C ) :   1.1791 B( 17-C , 60-H ) :   0.9651 B( 18-C , 19-C ) :   1.1535 
B( 19-C , 21-C ) :   1.2350 B( 20-C , 28-C ) :   1.6244 B( 20-C , 63-H ) :   0.9701 
B( 21-C , 26-C ) :   1.6239 B( 21-C , 64-H ) :   0.9711 B( 22-C , 23-C ) :   1.2901 
B( 22-C , 28-C ) :   1.2696 B( 22-C , 29-C ) :   1.2204 B( 23-C , 24-C ) :   1.6166 
B( 23-C , 65-H ) :   0.9706 B( 24-C , 66-H ) :   0.9694 B( 25-C , 67-H ) :   0.9761 
B( 25-C , 68-H ) :   0.9828 B( 25-C , 69-H ) :   0.9822 B( 26-C , 27-C ) :   1.2295 
B( 26-C , 70-H ) :   0.9715 B( 27-C , 29-C ) :   1.2189 B( 28-C , 71-H ) :   0.9717 
B( 29-C , 30-C ) :   1.2353 B( 30-C , 32-C ) :   1.2886 B( 31-C , 39-C ) :   1.6022 
B( 31-C , 72-H ) :   0.9686 B( 32-C , 37-C ) :   1.5706 B( 32-C , 73-H ) :   0.9783 
B( 33-C , 34-C ) :   1.2980 B( 33-C , 39-C ) :   1.2911 B( 33-C , 40-C ) :   1.1982 
B( 34-C , 35-C ) :   1.5987 B( 34-C , 74-H ) :   0.9699 B( 35-C , 75-H ) :   0.9687 
B( 36-C , 76-H ) :   0.9766 B( 36-C , 77-H ) :   0.9817 B( 36-C , 78-H ) :   0.9826 
B( 37-C , 38-C ) :   1.2920 B( 37-C , 79-H ) :   0.9770 B( 38-C , 40-C ) :   1.2269 
B( 39-C , 80-H ) :   0.9709 B( 40-C , 41-C ) :   1.2400 B( 41-C , 43-C ) :   1.1962 
B( 42-C , 50-C ) :   1.6357 B( 42-C , 81-H ) :   0.9697 B( 43-C , 48-C ) :   1.6555 
B( 43-C , 82-H ) :   0.9726 B( 44-C , 45-C ) :   1.2636 B( 44-C , 50-C ) :   1.2686 
B( 44-C , 51-C ) :   1.2638 B( 45-C , 46-C ) :   1.6365 B( 45-C , 83-H ) :   0.9717 
B( 46-C , 84-H ) :   0.9702 B( 47-C , 85-H ) :   0.9762 B( 47-C , 86-H ) :   0.9829 
B( 47-C , 87-H ) :   0.9825 B( 48-C , 49-C ) :   1.1990 B( 48-C , 88-H ) :   0.9746 
B( 49-C , 51-C ) :   1.2311 B( 50-C , 89-H ) :   0.9710 

-------
TIMINGS
-------

Total SCF time: 0 days 0 hours 28 min 30 sec 

Total time                  ....    1710.203 sec
Sum of individual times     ....    1705.774 sec  ( 99.7%)

Fock matrix formation       ....    1683.576 sec  ( 98.4%)
Diagonalization             ....       6.927 sec  (  0.4%)
Density matrix formation    ....       0.639 sec  (  0.0%)
Population analysis         ....       0.532 sec  (  0.0%)
Initial guess               ....       2.055 sec  (  0.1%)
Orbital Transformation      ....       0.000 sec  (  0.0%)
Orbital Orthonormalization  ....       0.000 sec  (  0.0%)
DIIS solution               ....       3.526 sec  (  0.2%)
SOSCF solution              ....       7.458 sec  (  0.4%)

Maximum memory used throughout the entire SCF-calculation: 302.6 MB


           ************************************************************
           *        Program running with 16 parallel MPI-processes    *
           *              working on a common directory               *
           ************************************************************

------------------------------------------------------------------------------
                                ORCA  MP2 
------------------------------------------------------------------------------

Freezing NCore=104 chemical core electrons

----------
MP2 ENERGY (disk based algorithm)
----------

Dimension of the basis                    ...  918
Memory devoted to MP2                     ... 2000 MB   
Data format for buffers                   ... DOUBLE
Compression type for matrix containers    ... UNCOMPRESSED

-------------------------------
PARTIAL EXCHANGE TRANSFORMATION
-------------------------------

Transformation type                        ... one-operator
Generation of integrals (i,mue|j,nue)      ... ON
Generation of integrals (mue,kappa|nue,tau)... OFF
Generation of integrals (i,mue|a,nue)      ... OFF
Dimension of the basis                     ...  918
Number of internal MOs                     ...  127 (  52- 178)
Pair cutoff                                ... 2.500e-12 Eh
Number of AO pairs in the trafo            ... 421821
Total Number of distinct AO pairs          ... 421821
Memory devoted for trafo                   ... 2000.0 MB 
Max. Number of MO pairs treated together   ...  311      
Number Format for Storage                  ... Double (8 Byte)
Integral package used                      ... LIBINT

Starting integral evaluation:
    ... done with AO integral generation
Closing buffer AOK     (38.25 GB; CompressionRatio= 1.33)
Collecting buffer AOK 
Number of MO pairs included in the trafo   ... 8128
------------------------
SORTING OF (i,mue|j,nue)
------------------------

IBATCH = 1 of  2
IBATCH = 2 of  2
Closing buffer KAO     (51.03 GB; CompressionRatio= 1.00)
Collecting buffer KAO 
N(AO-Batches) Done                         ...  85771455 
N(AO-Batches) Skipped                      ...  82265720 
N(IJ)-pairs Skipped                        ...         0 
TOTAL TIME for half transformation         ...  3108.248 sec
AO-integral generation                     ...   210.043 sec
Half transformation                        ...   373.417 sec
K-integral sorting                         ...  2346.828 sec
Process 10:   Internal MO 132
Process 13:   Internal MO 156

Finished integral transformation - now doing MP2 part

OPERATOR COMBINATION   0   0: ij=( 52..178, 52..178)
Process  4:   Internal MO  84
Process  7:   Internal MO 108
Process  1:   Internal MO  60
Process  0:   Internal MO  54
Process  2:   Internal MO  69
Process  0:   Internal MO  57
Process  1:   Internal MO  63
Process  5:   Internal MO  93
Process  3:   Internal MO  78
Process  8:   Internal MO 117
Process  2:   Internal MO  72
Process  1:   Internal MO  66
Process  6:   Internal MO 102
Process 14:   Internal MO 165
Process 11:   Internal MO 141
Process  9:   Internal MO 126
Process  2:   Internal MO  75
Process 12:   Internal MO 150
Process  3:   Internal MO  81
Process  4:   Internal MO  87
Process  7:   Internal MO 111
Process  5:   Internal MO  96
Process 10:   Internal MO 135
Process  6:   Internal MO 105
Process 15:   Internal MO 174
Process  8:   Internal MO 120
Process  4:   Internal MO  90
Process  5:   Internal MO  99
Process  7:   Internal MO 114
Process  9:   Internal MO 129
Process 12:   Internal MO 153
Process 13:   Internal MO 159
Process 11:   Internal MO 144
Process 14:   Internal MO 168
Process 10:   Internal MO 138
Process  8:   Internal MO 123
Process 15:   Internal MO 177
Process 11:   Internal MO 147
Process 13:   Internal MO 162
Process 14:   Internal MO 171
-----------------------------------------------
 MP2 CORRELATION ENERGY   :     -7.283179194 Eh
-----------------------------------------------


-------
TIMINGS
-------
Total time                : 3474.547 sec
Integral trafo            : 3110.451 sec ( 89.5%)
K(i,j)                    :    5.599 sec (  0.2%)
T(i,j)                    :    0.090 sec (  0.0%)

---------------------------------------
MP2 TOTAL ENERGY:    -2130.910718726 Eh
---------------------------------------

Maximum memory used throughout the entire MP2-calculation: 2275.2 MB

-------------------------   --------------------
FINAL SINGLE POINT ENERGY     -2130.910718725848
-------------------------   --------------------


                            ***************************************
                            *     ORCA property calculations      *
                            ***************************************


  WARNING: The energy has been calculated at the MP2 level but the densities
           used in the property calculations are still SCF densities
           MP2 response densities have not been calculated 
           use %mp2 Density relaxed end
           or  %mp2 Density unrelaxed end

                                    ---------------------
                                    Active property flags
                                    ---------------------
   (+) Dipole Moment


------------------------------------------------------------------------------
                       ORCA ELECTRIC PROPERTIES CALCULATION
------------------------------------------------------------------------------

Dipole Moment Calculation                       ... on
Quadrupole Moment Calculation                   ... off
Polarizability Calculation                      ... off
GBWName                                         ... /scratch/allen/tmpyp4_amber_gaff2/conf1/conf1/Conf140.orca.gbw
Electron density                                ... /scratch/allen/tmpyp4_amber_gaff2/conf1/conf1/Conf140.orca.scfp
The origin for moment calculation is the CENTER OF MASS  = ( 0.003197, -0.001899  0.002332)

-------------
DIPOLE MOMENT
-------------
                                X             Y             Z
Electronic contribution:      1.60138      -3.38393      -0.22244
Nuclear contribution   :      0.02515       0.20181       0.22710
                        -----------------------------------------
Total Dipole Moment    :      1.62652      -3.18212       0.00466
                        -----------------------------------------
Magnitude (a.u.)       :      3.57373
Magnitude (Debye)      :      9.08369



--------------------
Rotational spectrum 
--------------------
 
Rotational constants in cm-1:     0.001499     0.001477     0.000761 
Rotational constants in MHz :    44.950123    44.274194    22.819204 

 Dipole components along the rotational axes: 
x,y,z [a.u.] :     2.445114    -2.606310     0.009114 
x,y,z [Debye]:     6.214985    -6.624714     0.023166 

 

Timings for individual modules:

Sum of individual times         ...     5205.934 sec (=  86.766 min)
GTO integral calculation        ...        3.287 sec (=   0.055 min)   0.1 %
SCF iterations                  ...     1711.258 sec (=  28.521 min)  32.9 %
MP2 module                      ...     3491.390 sec (=  58.190 min)  67.1 %
                             ****ORCA TERMINATED NORMALLY****
TOTAL RUN TIME: 0 days 1 hours 26 minutes 49 seconds 274 msec
# of primitive gaussian functions

