 Entering Gaussian System, Link 0=g16
 Input=EWV.gjf
 Output=EWV.log
 Initial command:
 /opt/jsyu/g16c01/g16/l1.exe "/scratch/user/g16/Gau-3013854.inp" -scrdir="/scratch/user/g16/"
 Entering Link 1 = /opt/jsyu/g16c01/g16/l1.exe PID=   3013856.
  
 Copyright (c) 1988-2019, Gaussian, Inc.  All Rights Reserved.
  
 This is part of the Gaussian(R) 16 program.  It is based on
 the Gaussian(R) 09 system (copyright 2009, Gaussian, Inc.),
 the Gaussian(R) 03 system (copyright 2003, Gaussian, Inc.),
 the Gaussian(R) 98 system (copyright 1998, Gaussian, Inc.),
 the Gaussian(R) 94 system (copyright 1995, Gaussian, Inc.),
 the Gaussian 92(TM) system (copyright 1992, Gaussian, Inc.),
 the Gaussian 90(TM) system (copyright 1990, Gaussian, Inc.),
 the Gaussian 88(TM) system (copyright 1988, Gaussian, Inc.),
 the Gaussian 86(TM) system (copyright 1986, Carnegie Mellon
 University), and the Gaussian 82(TM) system (copyright 1983,
 Carnegie Mellon University). Gaussian is a federally registered
 trademark of Gaussian, Inc.
  
 This software contains proprietary and confidential information,
 including trade secrets, belonging to Gaussian, Inc.
  
 This software is provided under written license and may be
 used, copied, transmitted, or stored only in accord with that
 written license.
  
 The following legend is applicable only to US Government
 contracts under FAR:
  
                    RESTRICTED RIGHTS LEGEND
  
 Use, reproduction and disclosure by the US Government is
 subject to restrictions as set forth in subparagraphs (a)
 and (c) of the Commercial Computer Software - Restricted
 Rights clause in FAR 52.227-19.
  
 Gaussian, Inc.
 340 Quinnipiac St., Bldg. 40, Wallingford CT 06492
  
  
 ---------------------------------------------------------------
 Warning -- This program may not be used in any manner that
 competes with the business of Gaussian, Inc. or will provide
 assistance to any competitor of Gaussian, Inc.  The licensee
 of this program is prohibited from giving any competitor of
 Gaussian, Inc. access to this program.  By using this program,
 the user acknowledges that Gaussian, Inc. is engaged in the
 business of creating and licensing software in the field of
 computational chemistry and represents and warrants to the
 licensee that it is not a competitor of Gaussian, Inc. and that
 it will not use this program in any manner prohibited above.
 ---------------------------------------------------------------
  

 Cite this work as:
 Gaussian 16, Revision C.01,
 M. J. Frisch, G. W. Trucks, H. B. Schlegel, G. E. Scuseria, 
 M. A. Robb, J. R. Cheeseman, G. Scalmani, V. Barone, 
 G. A. Petersson, H. Nakatsuji, X. Li, M. Caricato, A. V. Marenich, 
 J. Bloino, B. G. Janesko, R. Gomperts, B. Mennucci, H. P. Hratchian, 
 J. V. Ortiz, A. F. Izmaylov, J. L. Sonnenberg, D. Williams-Young, 
 F. Ding, F. Lipparini, F. Egidi, J. Goings, B. Peng, A. Petrone, 
 T. Henderson, D. Ranasinghe, V. G. Zakrzewski, J. Gao, N. Rega, 
 G. Zheng, W. Liang, M. Hada, M. Ehara, K. Toyota, R. Fukuda, 
 J. Hasegawa, M. Ishida, T. Nakajima, Y. Honda, O. Kitao, H. Nakai, 
 T. Vreven, K. Throssell, J. A. Montgomery, Jr., J. E. Peralta, 
 F. Ogliaro, M. J. Bearpark, J. J. Heyd, E. N. Brothers, K. N. Kudin, 
 V. N. Staroverov, T. A. Keith, R. Kobayashi, J. Normand, 
 K. Raghavachari, A. P. Rendell, J. C. Burant, S. S. Iyengar, 
 J. Tomasi, M. Cossi, J. M. Millam, M. Klene, C. Adamo, R. Cammi, 
 J. W. Ochterski, R. L. Martin, K. Morokuma, O. Farkas, 
 J. B. Foresman, and D. J. Fox, Gaussian, Inc., Wallingford CT, 2019.
 
 ******************************************
 Gaussian 16:  ES64L-G16RevC.01  3-Jul-2019
                25-Mar-2025 
 ******************************************
 %nprocshared=32
 Will use up to   32 processors via shared memory.
 %mem=20GB
 %chk=EWV.chk
 ----------------------------------------------------------------------
 # opt hf/6-31g(d) scrf=(smd,solvent=water) nosymm pop=mk geom=connecti
 vity iop(6/33=2,6/42=6)
 ----------------------------------------------------------------------
 1/18=20,19=15,26=6,38=1,57=2/1,3;
 2/9=110,12=2,15=1,17=6,18=5,40=1/2;
 3/5=1,6=6,7=1,11=9,25=1,30=1,70=32201,71=1,72=1/1,2,3;
 4//1;
 5/5=2,38=5,53=1/2;
 6/7=2,8=2,9=2,10=2,15=8,20=1,28=1,33=2,42=6/1,2;
 7/30=1/1,2,3,16;
 1/18=20,19=15,26=6/3(2);
 2/9=110,15=1/2;
 99//99;
 2/9=110,15=1/2;
 3/5=1,6=6,7=1,11=9,25=1,30=1,70=32205,71=1,72=1/1,2,3;
 4/5=5,16=3,69=1/1;
 5/5=2,38=5,53=1/2;
 7/30=1/1,2,3,16;
 1/18=20,19=15,26=6/3(-5);
 2/9=110,15=1/2;
 6/7=2,8=2,9=2,10=2,15=8,19=2,20=1,28=1,33=2,42=6/1,2;
 99/9=1/99;
 ---
 EWV
 ---
 Symbolic Z-matrix:
 Charge =  1 Multiplicity = 1
 C                    -0.67032  -1.01229   0.16175 
 C                     1.55605   0.14815  -0.05391 
 C                     2.22742   1.36222   0.15338 
 C                    -2.86538  -2.15383   0.38144 
 C                    -4.85419  -0.86054   0.09749 
 C                     1.41404   2.62568   0.27296 
 C                     0.20331   2.53643  -0.64051 
 C                     4.36069   0.20245   0.12848 
 O                     5.71809   0.12049   0.20074 
 C                     6.45261   1.32887   0.43 
 C                     3.62337   1.37762   0.24547 
 N                    -0.59089   1.31381  -0.33096 
 C                    -1.9209    1.38932  -0.35212 
 C                    -2.72191   0.26524  -0.1266 
 C                    -4.12641   0.28262  -0.1374 
 O                    -4.9523    1.3432   -0.3787 
 C                    -6.29654   0.84218  -0.17833 
 O                    -6.19844  -0.58286   0.01378 
 C                    -4.25241  -2.09608   0.35909 
 C                    -2.08266  -0.99986   0.14081 
 C                     0.08597   0.11684  -0.07888 
 C                     2.30242  -1.04351  -0.19085 
 C                     3.68556  -1.02602  -0.10154 
 O                     4.49421  -2.12189  -0.23059 
 C                     3.87     -3.38405  -0.48228 
 H                    -0.16739  -1.94278   0.39519 
 H                    -2.36431  -3.09434   0.58456 
 H                     1.0876    2.78813   1.30917 
 H                     2.00429   3.49869  -0.02067 
 H                    -0.4604    3.39257  -0.52746 
 H                     0.51266   2.46038  -1.68755 
 H                     6.17316   1.78407   1.38641 
 H                     7.50193   1.03202   0.45791 
 H                     6.29461   2.04623  -0.3826 
 H                     4.12701   2.32384   0.40618 
 H                    -2.35092   2.36214  -0.55664 
 H                    -6.72044   1.30528   0.71742 
 H                    -6.89207   1.05096  -1.06854 
 H                    -4.85865  -2.97729   0.53876 
 H                     1.79587  -1.97911  -0.38786 
 H                     4.68475  -4.10694  -0.54682 
 H                     3.19593  -3.66278   0.33567 
 H                     3.31598  -3.37023  -1.42786 
 

 GradGradGradGradGradGradGradGradGradGradGradGradGradGradGradGradGradGrad
 Berny optimization.
 Initialization pass.
                           ----------------------------
                           !    Initial Parameters    !
                           ! (Angstroms and Degrees)  !
 --------------------------                            --------------------------
 ! Name  Definition              Value          Derivative Info.                !
 --------------------------------------------------------------------------------
 ! R1    R(1,20)                 1.4126         estimate D2E/DX2                !
 ! R2    R(1,21)                 1.3801         estimate D2E/DX2                !
 ! R3    R(1,26)                 1.0832         estimate D2E/DX2                !
 ! R4    R(2,3)                  1.4027         estimate D2E/DX2                !
 ! R5    R(2,21)                 1.4706         estimate D2E/DX2                !
 ! R6    R(2,22)                 1.4128         estimate D2E/DX2                !
 ! R7    R(3,6)                  1.5074         estimate D2E/DX2                !
 ! R8    R(3,11)                 1.3991         estimate D2E/DX2                !
 ! R9    R(4,19)                 1.3884         estimate D2E/DX2                !
 ! R10   R(4,20)                 1.415          estimate D2E/DX2                !
 ! R11   R(4,27)                 1.0848         estimate D2E/DX2                !
 ! R12   R(5,15)                 1.3754         estimate D2E/DX2                !
 ! R13   R(5,18)                 1.3752         estimate D2E/DX2                !
 ! R14   R(5,19)                 1.399          estimate D2E/DX2                !
 ! R15   R(6,7)                  1.5193         estimate D2E/DX2                !
 ! R16   R(6,28)                 1.0985         estimate D2E/DX2                !
 ! R17   R(6,29)                 1.094          estimate D2E/DX2                !
 ! R18   R(7,12)                 1.4904         estimate D2E/DX2                !
 ! R19   R(7,30)                 1.0892         estimate D2E/DX2                !
 ! R20   R(7,31)                 1.0944         estimate D2E/DX2                !
 ! R21   R(8,9)                  1.3618         estimate D2E/DX2                !
 ! R22   R(8,11)                 1.3922         estimate D2E/DX2                !
 ! R23   R(8,23)                 1.4205         estimate D2E/DX2                !
 ! R24   R(9,10)                 1.4326         estimate D2E/DX2                !
 ! R25   R(10,32)                1.0955         estimate D2E/DX2                !
 ! R26   R(10,33)                1.0909         estimate D2E/DX2                !
 ! R27   R(10,34)                1.0954         estimate D2E/DX2                !
 ! R28   R(11,35)                1.0839         estimate D2E/DX2                !
 ! R29   R(12,13)                1.3323         estimate D2E/DX2                !
 ! R30   R(12,21)                1.398          estimate D2E/DX2                !
 ! R31   R(13,14)                1.3986         estimate D2E/DX2                !
 ! R32   R(13,36)                1.0831         estimate D2E/DX2                !
 ! R33   R(14,15)                1.4047         estimate D2E/DX2                !
 ! R34   R(14,20)                1.4424         estimate D2E/DX2                !
 ! R35   R(15,16)                1.3657         estimate D2E/DX2                !
 ! R36   R(16,17)                1.4485         estimate D2E/DX2                !
 ! R37   R(17,18)                1.4413         estimate D2E/DX2                !
 ! R38   R(17,37)                1.0939         estimate D2E/DX2                !
 ! R39   R(17,38)                1.0912         estimate D2E/DX2                !
 ! R40   R(19,39)                1.0846         estimate D2E/DX2                !
 ! R41   R(22,23)                1.3861         estimate D2E/DX2                !
 ! R42   R(22,40)                1.082          estimate D2E/DX2                !
 ! R43   R(23,24)                1.368          estimate D2E/DX2                !
 ! R44   R(24,25)                1.4304         estimate D2E/DX2                !
 ! R45   R(25,41)                1.0911         estimate D2E/DX2                !
 ! R46   R(25,42)                1.0959         estimate D2E/DX2                !
 ! R47   R(25,43)                1.096          estimate D2E/DX2                !
 ! A1    A(20,1,21)            122.5555         estimate D2E/DX2                !
 ! A2    A(20,1,26)            118.3591         estimate D2E/DX2                !
 ! A3    A(21,1,26)            119.0745         estimate D2E/DX2                !
 ! A4    A(3,2,21)             119.9588         estimate D2E/DX2                !
 ! A5    A(3,2,22)             119.4405         estimate D2E/DX2                !
 ! A6    A(21,2,22)            120.5642         estimate D2E/DX2                !
 ! A7    A(2,3,6)              118.6142         estimate D2E/DX2                !
 ! A8    A(2,3,11)             119.7885         estimate D2E/DX2                !
 ! A9    A(6,3,11)             121.5972         estimate D2E/DX2                !
 ! A10   A(19,4,20)            121.0608         estimate D2E/DX2                !
 ! A11   A(19,4,27)            120.0332         estimate D2E/DX2                !
 ! A12   A(20,4,27)            118.906          estimate D2E/DX2                !
 ! A13   A(15,5,18)            109.8172         estimate D2E/DX2                !
 ! A14   A(15,5,19)            122.5735         estimate D2E/DX2                !
 ! A15   A(18,5,19)            127.6039         estimate D2E/DX2                !
 ! A16   A(3,6,7)              109.4552         estimate D2E/DX2                !
 ! A17   A(3,6,28)             111.0468         estimate D2E/DX2                !
 ! A18   A(3,6,29)             110.8828         estimate D2E/DX2                !
 ! A19   A(7,6,28)             109.8175         estimate D2E/DX2                !
 ! A20   A(7,6,29)             108.3893         estimate D2E/DX2                !
 ! A21   A(28,6,29)            107.1886         estimate D2E/DX2                !
 ! A22   A(6,7,12)             110.3622         estimate D2E/DX2                !
 ! A23   A(6,7,30)             112.1496         estimate D2E/DX2                !
 ! A24   A(6,7,31)             110.7344         estimate D2E/DX2                !
 ! A25   A(12,7,30)            107.3699         estimate D2E/DX2                !
 ! A26   A(12,7,31)            106.9969         estimate D2E/DX2                !
 ! A27   A(30,7,31)            109.0372         estimate D2E/DX2                !
 ! A28   A(9,8,11)             125.0449         estimate D2E/DX2                !
 ! A29   A(9,8,23)             115.4857         estimate D2E/DX2                !
 ! A30   A(11,8,23)            119.4643         estimate D2E/DX2                !
 ! A31   A(8,9,10)             117.9566         estimate D2E/DX2                !
 ! A32   A(9,10,32)            111.0652         estimate D2E/DX2                !
 ! A33   A(9,10,33)            105.5315         estimate D2E/DX2                !
 ! A34   A(9,10,34)            111.0836         estimate D2E/DX2                !
 ! A35   A(32,10,33)           109.6406         estimate D2E/DX2                !
 ! A36   A(32,10,34)           109.8004         estimate D2E/DX2                !
 ! A37   A(33,10,34)           109.6297         estimate D2E/DX2                !
 ! A38   A(3,11,8)             120.9027         estimate D2E/DX2                !
 ! A39   A(3,11,35)            118.8811         estimate D2E/DX2                !
 ! A40   A(8,11,35)            120.2157         estimate D2E/DX2                !
 ! A41   A(7,12,13)            118.8261         estimate D2E/DX2                !
 ! A42   A(7,12,21)            118.804          estimate D2E/DX2                !
 ! A43   A(13,12,21)           122.3239         estimate D2E/DX2                !
 ! A44   A(12,13,14)           121.576          estimate D2E/DX2                !
 ! A45   A(12,13,36)           116.7588         estimate D2E/DX2                !
 ! A46   A(14,13,36)           121.6647         estimate D2E/DX2                !
 ! A47   A(13,14,15)           124.1587         estimate D2E/DX2                !
 ! A48   A(13,14,20)           118.75           estimate D2E/DX2                !
 ! A49   A(15,14,20)           117.0908         estimate D2E/DX2                !
 ! A50   A(5,15,14)            121.1645         estimate D2E/DX2                !
 ! A51   A(5,15,16)            110.833          estimate D2E/DX2                !
 ! A52   A(14,15,16)           127.9982         estimate D2E/DX2                !
 ! A53   A(15,16,17)           105.5543         estimate D2E/DX2                !
 ! A54   A(16,17,18)           107.2938         estimate D2E/DX2                !
 ! A55   A(16,17,37)           109.0551         estimate D2E/DX2                !
 ! A56   A(16,17,38)           109.1135         estimate D2E/DX2                !
 ! A57   A(18,17,37)           109.6229         estimate D2E/DX2                !
 ! A58   A(18,17,38)           109.5761         estimate D2E/DX2                !
 ! A59   A(37,17,38)           112.0587         estimate D2E/DX2                !
 ! A60   A(5,18,17)            105.92           estimate D2E/DX2                !
 ! A61   A(4,19,5)             118.0004         estimate D2E/DX2                !
 ! A62   A(4,19,39)            121.4621         estimate D2E/DX2                !
 ! A63   A(5,19,39)            120.5375         estimate D2E/DX2                !
 ! A64   A(1,20,4)             122.9142         estimate D2E/DX2                !
 ! A65   A(1,20,14)            116.9729         estimate D2E/DX2                !
 ! A66   A(4,20,14)            120.1093         estimate D2E/DX2                !
 ! A67   A(1,21,2)             124.2107         estimate D2E/DX2                !
 ! A68   A(1,21,12)            117.8141         estimate D2E/DX2                !
 ! A69   A(2,21,12)            117.9568         estimate D2E/DX2                !
 ! A70   A(2,22,23)            120.6827         estimate D2E/DX2                !
 ! A71   A(2,22,40)            119.9794         estimate D2E/DX2                !
 ! A72   A(23,22,40)           119.3258         estimate D2E/DX2                !
 ! A73   A(8,23,22)            119.7087         estimate D2E/DX2                !
 ! A74   A(8,23,24)            115.2834         estimate D2E/DX2                !
 ! A75   A(22,23,24)           125.0053         estimate D2E/DX2                !
 ! A76   A(23,24,25)           117.7414         estimate D2E/DX2                !
 ! A77   A(24,25,41)           105.6138         estimate D2E/DX2                !
 ! A78   A(24,25,42)           111.1926         estimate D2E/DX2                !
 ! A79   A(24,25,43)           111.1787         estimate D2E/DX2                !
 ! A80   A(41,25,42)           109.5671         estimate D2E/DX2                !
 ! A81   A(41,25,43)           109.5578         estimate D2E/DX2                !
 ! A82   A(42,25,43)           109.6456         estimate D2E/DX2                !
 ! D1    D(21,1,20,4)          179.7567         estimate D2E/DX2                !
 ! D2    D(21,1,20,14)          -0.9286         estimate D2E/DX2                !
 ! D3    D(26,1,20,4)           -1.4544         estimate D2E/DX2                !
 ! D4    D(26,1,20,14)         177.8603         estimate D2E/DX2                !
 ! D5    D(20,1,21,2)          179.4029         estimate D2E/DX2                !
 ! D6    D(20,1,21,12)           0.9978         estimate D2E/DX2                !
 ! D7    D(26,1,21,2)            0.6223         estimate D2E/DX2                !
 ! D8    D(26,1,21,12)        -177.7828         estimate D2E/DX2                !
 ! D9    D(21,2,3,6)            -3.2373         estimate D2E/DX2                !
 ! D10   D(21,2,3,11)          176.705          estimate D2E/DX2                !
 ! D11   D(22,2,3,6)           178.9482         estimate D2E/DX2                !
 ! D12   D(22,2,3,11)           -1.1095         estimate D2E/DX2                !
 ! D13   D(3,2,21,1)          -157.896          estimate D2E/DX2                !
 ! D14   D(3,2,21,12)           20.507          estimate D2E/DX2                !
 ! D15   D(22,2,21,1)           19.8936         estimate D2E/DX2                !
 ! D16   D(22,2,21,12)        -161.7035         estimate D2E/DX2                !
 ! D17   D(3,2,22,23)            1.0124         estimate D2E/DX2                !
 ! D18   D(3,2,22,40)         -177.7164         estimate D2E/DX2                !
 ! D19   D(21,2,22,23)        -176.7886         estimate D2E/DX2                !
 ! D20   D(21,2,22,40)           4.4826         estimate D2E/DX2                !
 ! D21   D(2,3,6,7)            -34.6889         estimate D2E/DX2                !
 ! D22   D(2,3,6,28)            86.7228         estimate D2E/DX2                !
 ! D23   D(2,3,6,29)          -154.218          estimate D2E/DX2                !
 ! D24   D(11,3,6,7)           145.37           estimate D2E/DX2                !
 ! D25   D(11,3,6,28)          -93.2183         estimate D2E/DX2                !
 ! D26   D(11,3,6,29)           25.8409         estimate D2E/DX2                !
 ! D27   D(2,3,11,8)             0.2746         estimate D2E/DX2                !
 ! D28   D(2,3,11,35)         -179.9752         estimate D2E/DX2                !
 ! D29   D(6,3,11,8)          -179.7849         estimate D2E/DX2                !
 ! D30   D(6,3,11,35)           -0.0347         estimate D2E/DX2                !
 ! D31   D(20,4,19,5)           -0.2932         estimate D2E/DX2                !
 ! D32   D(20,4,19,39)         179.7561         estimate D2E/DX2                !
 ! D33   D(27,4,19,5)          179.781          estimate D2E/DX2                !
 ! D34   D(27,4,19,39)          -0.1697         estimate D2E/DX2                !
 ! D35   D(19,4,20,1)          179.6183         estimate D2E/DX2                !
 ! D36   D(19,4,20,14)           0.3244         estimate D2E/DX2                !
 ! D37   D(27,4,20,1)           -0.4551         estimate D2E/DX2                !
 ! D38   D(27,4,20,14)        -179.749          estimate D2E/DX2                !
 ! D39   D(18,5,15,14)        -179.181          estimate D2E/DX2                !
 ! D40   D(18,5,15,16)           0.1287         estimate D2E/DX2                !
 ! D41   D(19,5,15,14)           0.0297         estimate D2E/DX2                !
 ! D42   D(19,5,15,16)         179.3394         estimate D2E/DX2                !
 ! D43   D(15,5,18,17)          -4.7857         estimate D2E/DX2                !
 ! D44   D(19,5,18,17)         176.0539         estimate D2E/DX2                !
 ! D45   D(15,5,19,4)            0.118          estimate D2E/DX2                !
 ! D46   D(15,5,19,39)        -179.9308         estimate D2E/DX2                !
 ! D47   D(18,5,19,4)          179.1807         estimate D2E/DX2                !
 ! D48   D(18,5,19,39)          -0.8681         estimate D2E/DX2                !
 ! D49   D(3,6,7,12)            55.5971         estimate D2E/DX2                !
 ! D50   D(3,6,7,30)           175.2597         estimate D2E/DX2                !
 ! D51   D(3,6,7,31)           -62.6904         estimate D2E/DX2                !
 ! D52   D(28,6,7,12)          -66.5538         estimate D2E/DX2                !
 ! D53   D(28,6,7,30)           53.1088         estimate D2E/DX2                !
 ! D54   D(28,6,7,31)          175.1588         estimate D2E/DX2                !
 ! D55   D(29,6,7,12)          176.6494         estimate D2E/DX2                !
 ! D56   D(29,6,7,30)          -63.6881         estimate D2E/DX2                !
 ! D57   D(29,6,7,31)           58.3619         estimate D2E/DX2                !
 ! D58   D(6,7,12,13)          140.523          estimate D2E/DX2                !
 ! D59   D(6,7,12,21)          -41.8871         estimate D2E/DX2                !
 ! D60   D(30,7,12,13)          18.0116         estimate D2E/DX2                !
 ! D61   D(30,7,12,21)        -164.3985         estimate D2E/DX2                !
 ! D62   D(31,7,12,13)         -98.9243         estimate D2E/DX2                !
 ! D63   D(31,7,12,21)          78.6656         estimate D2E/DX2                !
 ! D64   D(11,8,9,10)            0.7627         estimate D2E/DX2                !
 ! D65   D(23,8,9,10)          179.9374         estimate D2E/DX2                !
 ! D66   D(9,8,11,3)           179.8114         estimate D2E/DX2                !
 ! D67   D(9,8,11,35)            0.0645         estimate D2E/DX2                !
 ! D68   D(23,8,11,3)            0.6669         estimate D2E/DX2                !
 ! D69   D(23,8,11,35)        -179.08           estimate D2E/DX2                !
 ! D70   D(9,8,23,22)         -179.9892         estimate D2E/DX2                !
 ! D71   D(9,8,23,24)           -0.5481         estimate D2E/DX2                !
 ! D72   D(11,8,23,22)          -0.7652         estimate D2E/DX2                !
 ! D73   D(11,8,23,24)         178.6759         estimate D2E/DX2                !
 ! D74   D(8,9,10,32)           60.8537         estimate D2E/DX2                !
 ! D75   D(8,9,10,33)          179.597          estimate D2E/DX2                !
 ! D76   D(8,9,10,34)          -61.6631         estimate D2E/DX2                !
 ! D77   D(7,12,13,14)         177.25           estimate D2E/DX2                !
 ! D78   D(7,12,13,36)          -2.4912         estimate D2E/DX2                !
 ! D79   D(21,12,13,14)         -0.2508         estimate D2E/DX2                !
 ! D80   D(21,12,13,36)       -179.992          estimate D2E/DX2                !
 ! D81   D(7,12,21,1)         -177.8943         estimate D2E/DX2                !
 ! D82   D(7,12,21,2)            3.5989         estimate D2E/DX2                !
 ! D83   D(13,12,21,1)          -0.3929         estimate D2E/DX2                !
 ! D84   D(13,12,21,2)        -178.8997         estimate D2E/DX2                !
 ! D85   D(12,13,14,15)       -179.9445         estimate D2E/DX2                !
 ! D86   D(12,13,14,20)          0.3063         estimate D2E/DX2                !
 ! D87   D(36,13,14,15)         -0.216          estimate D2E/DX2                !
 ! D88   D(36,13,14,20)       -179.9652         estimate D2E/DX2                !
 ! D89   D(13,14,15,5)        -179.7567         estimate D2E/DX2                !
 ! D90   D(13,14,15,16)          1.062          estimate D2E/DX2                !
 ! D91   D(20,14,15,5)          -0.0036         estimate D2E/DX2                !
 ! D92   D(20,14,15,16)       -179.1849         estimate D2E/DX2                !
 ! D93   D(13,14,20,1)           0.2632         estimate D2E/DX2                !
 ! D94   D(13,14,20,4)         179.5981         estimate D2E/DX2                !
 ! D95   D(15,14,20,1)        -179.5038         estimate D2E/DX2                !
 ! D96   D(15,14,20,4)          -0.1688         estimate D2E/DX2                !
 ! D97   D(5,15,16,17)           4.5556         estimate D2E/DX2                !
 ! D98   D(14,15,16,17)       -176.1939         estimate D2E/DX2                !
 ! D99   D(15,16,17,18)         -7.3544         estimate D2E/DX2                !
 ! D100  D(15,16,17,37)        111.3087         estimate D2E/DX2                !
 ! D101  D(15,16,17,38)       -125.9936         estimate D2E/DX2                !
 ! D102  D(16,17,18,5)           7.4497         estimate D2E/DX2                !
 ! D103  D(37,17,18,5)        -110.8461         estimate D2E/DX2                !
 ! D104  D(38,17,18,5)         125.7896         estimate D2E/DX2                !
 ! D105  D(2,22,23,8)           -0.0737         estimate D2E/DX2                !
 ! D106  D(2,22,23,24)        -179.4567         estimate D2E/DX2                !
 ! D107  D(40,22,23,8)         178.6633         estimate D2E/DX2                !
 ! D108  D(40,22,23,24)         -0.7197         estimate D2E/DX2                !
 ! D109  D(8,23,24,25)        -179.1467         estimate D2E/DX2                !
 ! D110  D(22,23,24,25)          0.2606         estimate D2E/DX2                !
 ! D111  D(23,24,25,41)       -179.8958         estimate D2E/DX2                !
 ! D112  D(23,24,25,42)        -61.124          estimate D2E/DX2                !
 ! D113  D(23,24,25,43)         61.3508         estimate D2E/DX2                !
 --------------------------------------------------------------------------------
 Trust Radius=3.00D-01 FncErr=5.00D-06 GrdErr=5.00D-06 EigMax=2.50D+02 EigMin=1.00D-04
 Number of steps in this run=    252 maximum allowed number of steps=    258.
 GradGradGradGradGradGradGradGradGradGradGradGradGradGradGradGradGradGrad

                          Input orientation:                          
 ---------------------------------------------------------------------
 Center     Atomic      Atomic             Coordinates (Angstroms)
 Number     Number       Type             X           Y           Z
 ---------------------------------------------------------------------
      1          6           0       -0.670318   -1.012289    0.161753
      2          6           0        1.556048    0.148154   -0.053909
      3          6           0        2.227418    1.362224    0.153383
      4          6           0       -2.865375   -2.153834    0.381444
      5          6           0       -4.854194   -0.860537    0.097494
      6          6           0        1.414042    2.625683    0.272960
      7          6           0        0.203307    2.536431   -0.640513
      8          6           0        4.360687    0.202446    0.128477
      9          8           0        5.718087    0.120487    0.200741
     10          6           0        6.452608    1.328865    0.429997
     11          6           0        3.623374    1.377623    0.245473
     12          7           0       -0.590886    1.313814   -0.330955
     13          6           0       -1.920902    1.389318   -0.352122
     14          6           0       -2.721912    0.265244   -0.126604
     15          6           0       -4.126415    0.282623   -0.137403
     16          8           0       -4.952301    1.343199   -0.378704
     17          6           0       -6.296537    0.842175   -0.178326
     18          8           0       -6.198440   -0.582858    0.013779
     19          6           0       -4.252413   -2.096080    0.359087
     20          6           0       -2.082660   -0.999864    0.140810
     21          6           0        0.085972    0.116836   -0.078879
     22          6           0        2.302417   -1.043505   -0.190848
     23          6           0        3.685556   -1.026021   -0.101541
     24          8           0        4.494211   -2.121891   -0.230586
     25          6           0        3.869999   -3.384045   -0.482277
     26          1           0       -0.167390   -1.942779    0.395193
     27          1           0       -2.364306   -3.094337    0.584557
     28          1           0        1.087601    2.788125    1.309167
     29          1           0        2.004291    3.498692   -0.020666
     30          1           0       -0.460401    3.392571   -0.527456
     31          1           0        0.512663    2.460375   -1.687551
     32          1           0        6.173162    1.784067    1.386407
     33          1           0        7.501933    1.032020    0.457910
     34          1           0        6.294608    2.046225   -0.382597
     35          1           0        4.127011    2.323835    0.406181
     36          1           0       -2.350921    2.362139   -0.556639
     37          1           0       -6.720438    1.305278    0.717418
     38          1           0       -6.892071    1.050955   -1.068541
     39          1           0       -4.858650   -2.977292    0.538755
     40          1           0        1.795874   -1.979111   -0.387856
     41          1           0        4.684750   -4.106944   -0.546823
     42          1           0        3.195929   -3.662784    0.335666
     43          1           0        3.315983   -3.370234   -1.427857
 ---------------------------------------------------------------------
                    Distance matrix (angstroms):
                    1          2          3          4          5
     1  C    0.000000
     2  C    2.519890   0.000000
     3  C    3.746366   1.402738   0.000000
     4  C    2.483881   5.003765   6.192836   0.000000
     5  C    4.187120   6.490885   7.422467   2.389277   0.000000
     6  C    4.194254   2.503030   1.507384   6.416304   7.174629
     7  C    3.741693   2.806756   2.471044   5.697349   6.136967
     8  C    5.175684   2.811087   2.428280   7.604737   9.276040
     9  O    6.488175   4.169914   3.705256   8.881498  10.618201
    10  C    7.502602   5.060093   4.234366   9.947681  11.521624
    11  C    4.914721   2.423852   1.399075   7.388744   8.769288
    12  N    2.379039   2.458626   2.860029   4.207778   4.804911
    13  C    2.756038   3.703863   4.179094   3.739529   3.724004
    14  C    2.433984   4.280179   5.077167   2.476011   2.421617
    15  C    3.702823   5.684667   6.451456   2.792086   1.375374
    16  O    4.916889   6.625121   7.199434   4.142744   2.256733
    17  C    5.933720   7.884176   8.546244   4.589367   2.248479
    18  O    5.546750   7.789162   8.648579   3.703035   1.375177
    19  C    3.747659   6.240623   7.347815   1.388420   1.398977
    20  C    1.412552   3.820479   4.914915   1.414989   2.775372
    21  C    1.380145   1.470622   2.488117   3.752105   5.039008
    22  C    2.993736   1.412753   2.431389   5.316618   7.164754
    23  C    4.363846   2.432234   2.809781   6.664828   8.543672
    24  O    5.296934   3.717139   4.174307   7.385060   9.438820
    25  C    5.162798   4.244325   5.062530   6.901065   9.100317
    26  H    1.083163   2.746622   4.088597   2.706262   4.819336
    27  H    2.717220   5.127432   6.413328   1.084837   3.380331
    28  H    4.341657   3.007801   2.160605   6.396065   7.077133
    29  H    5.247453   3.380552   2.155127   7.471706   8.127463
    30  H    4.463392   3.849228   3.436600   6.113314   6.146943
    31  H    4.108377   3.017251   2.745061   6.081349   6.558811
    32  H    7.493504   5.105728   4.155382   9.910205  11.413054
    33  H    8.429270   6.032970   5.293607  10.846040  12.505421
    34  H    7.626337   5.115140   4.158986  10.105916  11.531502
    35  H    5.848404   3.399282   2.144075   8.303228   9.534021
    36  H    3.837614   4.518725   4.739741   4.640978   4.132784
    37  H    6.502602   8.392503   8.965796   5.190361   2.925393
    38  H    6.669393   8.556591   9.206251   5.346720   3.027603
    39  H    4.641712   7.160169   8.318189   2.162400   2.162263
    40  H    2.705350   2.166632   3.412285   4.727536   6.760930
    41  H    6.225409   5.304489   6.036602   7.853707  10.096819
    42  H    4.690761   4.167041   5.120737   6.246474   8.527238
    43  H    4.896668   4.167032   5.107000   6.554570   8.681997
                    6          7          8          9         10
     6  C    0.000000
     7  C    1.519302   0.000000
     8  C    3.817810   4.829352   0.000000
     9  O    4.980565   6.079251   1.361791   0.000000
    10  C    5.205146   6.454299   2.394967   1.432570   0.000000
    11  C    2.537628   3.718154   1.392250   2.443402   2.835664
    12  N    2.470921   1.490423   5.095517   6.442815   7.084496
    13  C    3.611257   2.431317   6.410772   7.763359   8.410174
    14  C    4.778853   3.738890   7.087469   8.447585   9.252725
    15  C    6.029510   4.907063   8.491644   9.851642  10.645764
    16  O    6.526849   5.298362   9.396292  10.755834  11.433554
    17  C    7.927016   6.732911  10.680815  12.042247  12.772925
    18  O    8.265095   7.151253  10.588910  11.938730  12.801443
    19  C    7.376393   6.504829   8.917505  10.215141  11.239784
    20  C    5.038748   4.282697   6.554573   7.881017   8.851972
    21  C    2.860398   2.486693   4.280597   5.639053   6.500925
    22  C    3.803586   4.174255   2.427105   3.629741   4.820547
    23  C    4.316824   5.010750   1.420507   2.353091   3.672138
    24  O    5.681589   6.346642   2.355695   2.590786   4.022363
    25  C    6.535973   6.965752   3.671064   4.020409   5.451021
    26  H    4.835981   4.612312   5.017630   6.239689   7.384392
    27  H    6.862335   6.308643   7.503487   8.706749   9.865423
    28  H    1.098488   2.155592   4.335073   5.457683   5.629003
    29  H    1.093963   2.133940   4.054637   5.025293   4.969786
    30  H    2.177687   1.089158   5.818078   7.029262   7.277726
    31  H    2.164120   1.094429   4.817000   6.011419   6.406814
    32  H    4.959567   6.349301   2.714586   2.092939   1.095454
    33  H    6.295743   7.532578   3.265600   2.019687   1.090862
    34  H    4.958372   6.116434   2.720435   2.093114   1.095390
    35  H    2.732958   4.066475   2.152212   2.725522   2.529611
    36  H    3.864277   2.561541   7.083738   8.408776   8.918701
    37  H    8.252925   7.162259  11.151431  12.505502  13.176202
    38  H    8.559843   7.261834  11.348012  12.707987  13.431430
    39  H    8.414906   7.577283   9.760903  11.026235  12.103693
    40  H    4.667612   4.794812   3.406473   4.487595   5.770335
    41  H    7.529797   8.014146   4.374001   4.415632   5.798924
    42  H    6.536350   6.952624   4.042226   4.548915   5.960823
    43  H    6.516224   6.722898   4.034554   4.539556   5.947400
                   11         12         13         14         15
    11  C    0.000000
    12  N    4.253978   0.000000
    13  C    5.576401   1.332326   0.000000
    14  C    6.452789   2.383806   1.398577   0.000000
    15  C    7.836125   3.687924   2.476927   1.404652   0.000000
    16  O    8.598429   4.361775   3.031866   2.490015   1.365700
    17  C    9.943387   5.727145   4.413134   3.621252   2.241473
    18  O   10.018243   5.929660   4.724478   3.581233   2.250600
    19  C    8.608574   5.050774   4.253206   2.855553   2.433229
    20  C    6.182412   2.793037   2.444860   1.442446   2.428808
    21  C    3.769350   1.398011   2.391948   2.812208   4.216054
    22  C    2.792340   3.734673   4.876583   5.192382   6.564400
    23  C    2.429360   4.880104   6.109748   6.536332   7.920904
    24  O    3.637525   6.137781   7.314167   7.601425   8.950171
    25  C    4.823269   6.480144   7.505762   7.543017   8.803751
    26  H    5.041565   3.363337   3.838770   3.416609   4.572740
    27  H    7.481024   4.838902   4.601862   3.452596   3.876869
    28  H    3.090486   2.771446   3.710476   4.789442   5.962891
    29  H    2.681640   3.406599   4.468385   5.727426   6.924037
    30  H    4.618945   2.092097   2.485322   3.880114   4.823233
    31  H    3.819091   2.091118   2.975361   4.209232   5.354121
    32  H    2.822826   6.994485   8.288075   9.149774  10.519392
    33  H    3.899717   8.136058   9.464335  10.269207  11.667668
    34  H    2.824357   6.924530   8.241787   9.194295  10.572045
    35  H    1.083879   4.880785   6.166490   7.171430   8.519452
    36  H    6.107770   2.060981   1.083109   2.172449   2.766320
    37  H   10.354826   6.218566   4.917980   4.216901   2.916419
    38  H   10.602261   6.349650   5.033912   4.346816   3.017649
    39  H    9.539184   6.114229   5.337725   3.939847   3.408871
    40  H    3.874084   4.067335   5.016175   5.051314   6.344421
    41  H    5.642227   7.567268   8.595432   8.611112   9.852540
    42  H    5.059303   6.288949   7.223486   7.117861   8.331071
    43  H    5.043478   6.197348   7.157898   7.167017   8.390347
                   16         17         18         19         20
    16  O    0.000000
    17  C    1.448498   0.000000
    18  O    2.327359   1.441266   0.000000
    19  C    3.586477   3.619475   2.489197   0.000000
    20  C    3.740946   4.609958   4.138801   2.440730   0.000000
    21  C    5.194040   6.424362   6.323922   4.889826   2.449132
    22  C    7.639541   8.803292   8.515788   6.661542   4.397818
    23  C    8.961172  10.155700   9.894598   8.023002   5.773364
    24  O   10.063070  11.190561  10.805606   8.766517   6.682224
    25  C   10.009522  11.014163  10.462609   8.266821   6.442570
    26  H    5.855932   6.756577   6.194225   4.088058   2.149897
    27  H    5.226597   5.616098   4.618863   2.147627   2.159410
    28  H    6.435615   7.779772   8.131909   7.298894   5.075872
    29  H    7.291674   8.716977   9.162152   8.401906   6.079988
    30  H    4.939556   6.378628   7.001576   6.729829   4.729883
    31  H    5.729485   7.159716   7.562717   6.903330   4.695941
    32  H   11.273239  12.602736  12.670556  11.171551   8.801158
    33  H   12.486180  13.814435  13.802366  12.163857   9.802731
    34  H   11.268861  12.650233  12.772840  11.355547   8.929235
    35  H    9.165784  10.544540  10.733955   9.473786   7.048220
    36  H    2.799478   4.245150   4.878707   4.932539   3.444048
    37  H    2.080680   1.093853   2.081501   4.217675   5.211060
    38  H    2.079420   1.091207   2.078914   4.348534   5.366453
    39  H    4.417821   4.143676   2.793555   1.084591   3.431429
    40  H    7.521682   8.572670   8.125262   6.095357   4.035026
    41  H   11.072718  12.050653  11.453265   9.205277   7.478277
    42  H    9.589778  10.519779   9.891599   7.611367   5.915455
    43  H    9.575056  10.569118  10.018584   7.880181   6.101206
                   21         22         23         24         25
    21  C    0.000000
    22  C    2.504308   0.000000
    23  C    3.776724   1.386129   0.000000
    24  O    4.946462   2.443042   1.368030   0.000000
    25  C    5.170857   2.832026   2.395674   1.430392   0.000000
    26  H    2.128603   2.692969   3.991539   4.706825   4.375810
    27  H    4.093366   5.156110   6.430357   6.974910   6.331558
    28  H    3.172651   4.290363   4.825679   6.171231   7.003334
    29  H    3.888481   4.555150   4.827652   6.150994   7.146049
    30  H    3.351147   5.236911   6.074069   7.419272   8.042197
    31  H    2.874381   4.209574   4.973694   6.242807   6.847017
    32  H    6.479244   5.046342   4.037173   4.548632   5.958685
    33  H    7.491474   5.635926   4.371870   4.412207   5.794526
    34  H    6.508606   5.051810   4.040401   4.542877   5.947814
    35  H    4.629916   3.876153   3.416753   4.506083   5.782327
    36  H    3.347848   5.778042   6.937276   8.189546   8.469003
    37  H    6.955120   9.367691  10.695343  11.764886  11.644156
    38  H    7.109507   9.470782  10.822898  11.849748  11.654831
    39  H    5.865525   7.453371   8.787542   9.423354   8.797572
    40  H    2.722540   1.082015   2.135709   2.706685   2.506940
    41  H    6.261633   3.897036   3.269366   2.019095   1.091132
    42  H    4.912149   2.817127   2.717242   2.092971   1.095946
    43  H    4.940888   2.823327   2.718645   2.092854   1.096014
                   26         27         28         29         30
    26  H    0.000000
    27  H    2.487646   0.000000
    28  H    4.979137   6.858869   0.000000
    29  H    5.873563   7.932148   1.764563   0.000000
    30  H    5.422462   6.851380   2.476863   2.518492   0.000000
    31  H    4.918136   6.655393   3.068924   2.466082   1.778107
    32  H    7.421219   9.865604   5.184306   4.722211   7.089028
    33  H    8.226292  10.695117   6.704640   6.044632   8.363128
    34  H    7.633775  10.116203   5.524980   4.543949   6.889396
    35  H    6.053594   8.457281   3.204522   2.463418   4.801898
    36  H    4.919971   5.574553   3.935242   4.532868   2.153302
    37  H    7.320939   6.192750   7.969597   9.026446   6.715249
    38  H    7.505085   6.357424   8.505670   9.286265   6.866026
    39  H    4.806116   2.497509   8.318141   9.452581   7.813869
    40  H    2.113975   4.415474   5.109606   5.494051   5.827970
    41  H    5.395764   7.210727   7.995383   8.081299   9.094816
    42  H    3.778078   5.594756   6.856164   7.268680   7.993232
    43  H    4.182706   6.032546   7.098054   7.133223   7.797905
                   31         32         33         34         35
    31  H    0.000000
    32  H    6.476717   0.000000
    33  H    7.449369   1.786985   0.000000
    34  H    5.941827   1.792443   1.786812   0.000000
    35  H    4.179219   2.332151   3.614078   2.323298   0.000000
    36  H    3.080378   8.761825   9.993861   8.653049   6.549205
    37  H    7.709467  12.919818  14.227363  13.082448  10.899609
    38  H    7.563050  13.314073  14.474728  13.241963  11.189960
    39  H    7.960883  12.045328  12.994812  12.267020  10.433678
    40  H    4.800508   6.039054   6.507022   6.036718   4.957826
    41  H    7.863666   6.376265   5.946004   6.362397   6.524891
    42  H    6.984726   6.295725   6.371640   6.535327   6.059001
    43  H    6.474724   6.530725   6.360671   6.269195   6.036877
                   36         37         38         39         40
    36  H    0.000000
    37  H    4.672564   0.000000
    38  H    4.754292   1.812122   0.000000
    39  H    5.999843   4.673177   4.790091   0.000000
    40  H    6.005901   9.194368   9.226322   6.792471   0.000000
    41  H    9.557709  12.687347  12.684593   9.671147   3.591455
    42  H    8.237928  11.097825  11.223140   8.086247   2.306164
    43  H    8.107584  11.277959  11.130157   8.417042   2.308150
                   41         42         43
    41  H    0.000000
    42  H    1.786800   0.000000
    43  H    1.786753   1.791651   0.000000
 Symmetry turned off by external request.
 Stoichiometry    C20H18NO4(1+)
 Framework group  C1[X(C20H18NO4)]
 Deg. of freedom   123
 Full point group                 C1      NOp   1
 Rotational constants (GHZ):           0.5872752           0.0990713           0.0858055
 Standard basis: 6-31G(d) (6D, 7F)
   411 basis functions,   772 primitive gaussians,   411 cartesian basis functions
    88 alpha electrons       88 beta electrons
       nuclear repulsion energy      2085.1601156846 Hartrees.
 NAtoms=   43 NActive=   43 NUniq=   43 SFac= 1.00D+00 NAtFMM=   60 NAOKFM=F Big=F
 Integral buffers will be    131072 words long.
 Raffenetti 1 integral format.
 Two-electron integral symmetry is turned off.
 ------------------------------------------------------------------------------
 Polarizable Continuum Model (PCM)
 =================================
 Model                : PCM.
 Atomic radii         : SMD-Coulomb.
 Polarization charges : Total charges.
 Charge compensation  : None.
 Solution method      : On-the-fly selection.
 Cavity type          : VdW (van der Waals Surface) (Alpha=1.000).
 Cavity algorithm     : GePol (No added spheres)
                        Default sphere list used, NSphG=   43.
                        Lebedev-Laikov grids with approx.  5.0 points / Ang**2.
                        Smoothing algorithm: York/Karplus (Gamma=1.0000).
                        Polarization charges: spherical gaussians, with
                                              point-specific exponents (IZeta= 3).
                        Self-potential: point-specific (ISelfS= 7).
                        Self-field    : sphere-specific E.n sum rule (ISelfD= 2).
 1st derivatives      : Analytical E(r).r(x)/FMM algorithm (CHGder, D1EAlg=3).
                        Cavity 1st derivative terms included.
 Solvent              : Water, Eps=  78.355300 Eps(inf)=   1.777849
 ------------------------------------------------------------------------------
 ------------------------------------------------------------------------------
 Atomic radii for non-electrostatic terms: SMD-CDS.
 ------------------------------------------------------------------------------
 Nuclear repulsion after PCM non-electrostatic terms =     2085.1742991270 Hartrees.
 One-electron integrals computed using PRISM.
 NBasis=   411 RedAO= T EigKep=  2.71D-04  NBF=   411
 NBsUse=   411 1.00D-06 EigRej= -1.00D+00 NBFU=   411
 ExpMin= 1.61D-01 ExpMax= 5.48D+03 ExpMxC= 8.25D+02 IAcc=3 IRadAn=         5 AccDes= 0.00D+00
 Harris functional with IExCor=  205 and IRadAn=       5 diagonalized for initial guess.
 HarFok:  IExCor=  205 AccDes= 0.00D+00 IRadAn=         5 IDoV= 1 UseB2=F ITyADJ=14
 ICtDFT=  3500011 ScaDFX=  1.000000  1.000000  1.000000  1.000000
 FoFCou: FMM=F IPFlag=           0 FMFlag=      100000 FMFlg1=           0
         NFxFlg=           0 DoJE=T BraDBF=F KetDBF=T FulRan=T
         wScrn=  0.000000 ICntrl=       500 IOpCl=  0 I1Cent=   200000004 NGrid=           0
         NMat0=    1 NMatS0=      1 NMatT0=    0 NMatD0=    1 NMtDS0=    0 NMtDT0=    0
 Symmetry not used in FoFCou.
 Requested convergence on RMS density matrix=1.00D-08 within 128 cycles.
 Requested convergence on MAX density matrix=1.00D-06.
 Requested convergence on             energy=1.00D-06.
 No special actions if energy rises.
 Inv3:  Mode=1 IEnd=    28792812.
 Iteration    1 A*A^-1 deviation from unit magnitude is 1.09D-14 for    475.
 Iteration    1 A*A^-1 deviation from orthogonality  is 3.68D-15 for   2596     55.
 Iteration    1 A^-1*A deviation from unit magnitude is 1.11D-14 for    475.
 Iteration    1 A^-1*A deviation from orthogonality  is 1.21D-14 for   1549   1534.
 Error on total polarization charges =  0.05006
 SCF Done:  E(RHF) =  -1121.60254212     A.U. after   16 cycles
            NFock= 16  Conv=0.59D-08     -V/T= 2.0024
 SMD-CDS (non-electrostatic) energy       (kcal/mol) =       8.90
 (included in total energy above)

 **********************************************************************

            Population analysis using the SCF Density.

 **********************************************************************

 Alpha  occ. eigenvalues --  -20.62577 -20.61758 -20.60117 -20.59677 -15.68863
 Alpha  occ. eigenvalues --  -11.35825 -11.34609 -11.33153 -11.32667 -11.31596
 Alpha  occ. eigenvalues --  -11.31593 -11.30799 -11.29068 -11.28749 -11.28435
 Alpha  occ. eigenvalues --  -11.27706 -11.27598 -11.27385 -11.26446 -11.26151
 Alpha  occ. eigenvalues --  -11.25991 -11.25555 -11.24990 -11.24155 -11.24101
 Alpha  occ. eigenvalues --   -1.48603  -1.42441  -1.39828  -1.38572  -1.35517
 Alpha  occ. eigenvalues --   -1.19224  -1.17243  -1.11395  -1.09862  -1.06515
 Alpha  occ. eigenvalues --   -1.05286  -1.01528  -1.00860  -0.95336  -0.94565
 Alpha  occ. eigenvalues --   -0.93503  -0.91588  -0.89013  -0.88313  -0.84879
 Alpha  occ. eigenvalues --   -0.82572  -0.80134  -0.76232  -0.75235  -0.73410
 Alpha  occ. eigenvalues --   -0.72004  -0.71857  -0.69972  -0.68937  -0.68825
 Alpha  occ. eigenvalues --   -0.67354  -0.66260  -0.65785  -0.64987  -0.64041
 Alpha  occ. eigenvalues --   -0.62954  -0.62214  -0.61717  -0.61054  -0.60493
 Alpha  occ. eigenvalues --   -0.59063  -0.58421  -0.57858  -0.57798  -0.56445
 Alpha  occ. eigenvalues --   -0.56006  -0.55009  -0.54860  -0.54155  -0.52930
 Alpha  occ. eigenvalues --   -0.52468  -0.51992  -0.51147  -0.49374  -0.48616
 Alpha  occ. eigenvalues --   -0.48442  -0.47592  -0.46319  -0.40815  -0.36891
 Alpha  occ. eigenvalues --   -0.34295  -0.31715  -0.27410
 Alpha virt. eigenvalues --    0.03967   0.06283   0.13790   0.15842   0.17040
 Alpha virt. eigenvalues --    0.23936   0.24194   0.25157   0.25579   0.25974
 Alpha virt. eigenvalues --    0.26692   0.27178   0.27418   0.28259   0.29224
 Alpha virt. eigenvalues --    0.29859   0.30351   0.31011   0.31889   0.32134
 Alpha virt. eigenvalues --    0.32769   0.32823   0.33085   0.33463   0.33980
 Alpha virt. eigenvalues --    0.34021   0.34382   0.36048   0.36654   0.37193
 Alpha virt. eigenvalues --    0.37948   0.39015   0.40200   0.42019   0.43221
 Alpha virt. eigenvalues --    0.43994   0.45041   0.45239   0.46502   0.48633
 Alpha virt. eigenvalues --    0.49541   0.51325   0.52782   0.54951   0.55693
 Alpha virt. eigenvalues --    0.56502   0.58739   0.60323   0.61116   0.63804
 Alpha virt. eigenvalues --    0.64787   0.67055   0.68594   0.68743   0.69410
 Alpha virt. eigenvalues --    0.69875   0.70350   0.71316   0.71567   0.72523
 Alpha virt. eigenvalues --    0.72847   0.74222   0.74996   0.75356   0.75520
 Alpha virt. eigenvalues --    0.76181   0.76482   0.77495   0.78468   0.78881
 Alpha virt. eigenvalues --    0.79310   0.79813   0.79931   0.80601   0.81183
 Alpha virt. eigenvalues --    0.81779   0.82763   0.83568   0.84497   0.85218
 Alpha virt. eigenvalues --    0.87345   0.87549   0.87826   0.88847   0.90195
 Alpha virt. eigenvalues --    0.90942   0.91500   0.92135   0.93006   0.95122
 Alpha virt. eigenvalues --    0.96438   0.97066   0.97677   0.98999   0.99226
 Alpha virt. eigenvalues --    1.00801   1.02519   1.02951   1.03445   1.04493
 Alpha virt. eigenvalues --    1.05997   1.06664   1.08111   1.08387   1.08992
 Alpha virt. eigenvalues --    1.09593   1.10688   1.10831   1.11436   1.11791
 Alpha virt. eigenvalues --    1.12935   1.13191   1.13904   1.14385   1.14716
 Alpha virt. eigenvalues --    1.15075   1.15741   1.16098   1.16956   1.17119
 Alpha virt. eigenvalues --    1.19173   1.19671   1.21082   1.21462   1.22175
 Alpha virt. eigenvalues --    1.22657   1.23196   1.24353   1.26011   1.26784
 Alpha virt. eigenvalues --    1.27281   1.28214   1.28449   1.30494   1.31063
 Alpha virt. eigenvalues --    1.31820   1.32938   1.34432   1.36897   1.38041
 Alpha virt. eigenvalues --    1.38524   1.39045   1.40132   1.40236   1.42755
 Alpha virt. eigenvalues --    1.44176   1.45271   1.46052   1.46558   1.46957
 Alpha virt. eigenvalues --    1.48728   1.49784   1.52687   1.53463   1.54136
 Alpha virt. eigenvalues --    1.57692   1.58149   1.60343   1.60735   1.61035
 Alpha virt. eigenvalues --    1.62497   1.64056   1.64398   1.65813   1.66453
 Alpha virt. eigenvalues --    1.67915   1.69260   1.70157   1.70719   1.72596
 Alpha virt. eigenvalues --    1.73129   1.73467   1.74637   1.76101   1.77213
 Alpha virt. eigenvalues --    1.78659   1.79124   1.80367   1.81095   1.83930
 Alpha virt. eigenvalues --    1.86236   1.88284   1.91591   1.94278   1.96037
 Alpha virt. eigenvalues --    1.98514   2.01601   2.01712   2.03245   2.04016
 Alpha virt. eigenvalues --    2.04426   2.05202   2.06465   2.07963   2.09375
 Alpha virt. eigenvalues --    2.11436   2.13183   2.14090   2.14511   2.15659
 Alpha virt. eigenvalues --    2.16622   2.17085   2.17838   2.18379   2.19611
 Alpha virt. eigenvalues --    2.20392   2.21543   2.23475   2.23955   2.24298
 Alpha virt. eigenvalues --    2.26366   2.26928   2.27808   2.28546   2.29136
 Alpha virt. eigenvalues --    2.29684   2.30325   2.32611   2.34673   2.35332
 Alpha virt. eigenvalues --    2.36110   2.36847   2.38397   2.39669   2.40928
 Alpha virt. eigenvalues --    2.41383   2.41546   2.42426   2.45063   2.45608
 Alpha virt. eigenvalues --    2.47482   2.47805   2.48508   2.51550   2.53336
 Alpha virt. eigenvalues --    2.54317   2.54860   2.55785   2.56264   2.57229
 Alpha virt. eigenvalues --    2.58599   2.60184   2.60479   2.60809   2.61351
 Alpha virt. eigenvalues --    2.62693   2.63635   2.65710   2.67392   2.67796
 Alpha virt. eigenvalues --    2.69355   2.70623   2.71067   2.73104   2.74053
 Alpha virt. eigenvalues --    2.76199   2.78440   2.80260   2.81063   2.81807
 Alpha virt. eigenvalues --    2.85694   2.87641   2.89480   2.91859   2.93176
 Alpha virt. eigenvalues --    2.94784   2.95379   2.96824   2.99494   2.99817
 Alpha virt. eigenvalues --    3.00007   3.01497   3.02783   3.04079   3.05302
 Alpha virt. eigenvalues --    3.06985   3.08445   3.10008   3.11314   3.15801
 Alpha virt. eigenvalues --    3.16828   3.17542   3.20691   3.24034   3.25705
 Alpha virt. eigenvalues --    3.29635   3.31058   3.31938   3.34771   3.38510
 Alpha virt. eigenvalues --    3.40395   3.42109   3.52624   3.55675   3.67289
 Alpha virt. eigenvalues --    3.76254   3.82519   3.90427   4.36420   4.40446
 Alpha virt. eigenvalues --    4.45998   4.50233   4.50530   4.52799   4.52963
 Alpha virt. eigenvalues --    4.57322   4.61989   4.63770   4.65411   4.69554
 Alpha virt. eigenvalues --    4.70821   4.71491   4.72614   4.77145   4.79626
 Alpha virt. eigenvalues --    4.84801   4.88450   4.90487   4.92449   5.04289
 Alpha virt. eigenvalues --    5.14501   5.39456   5.44886
          Condensed to atoms (all electrons):
               1          2          3          4          5          6
     1  C    5.057522  -0.045607   0.003754  -0.049833  -0.000413  -0.000432
     2  C   -0.045607   4.827291   0.574243  -0.000095   0.000000  -0.044468
     3  C    0.003754   0.574243   4.889628   0.000001   0.000000   0.294246
     4  C   -0.049833  -0.000095   0.000001   4.995117  -0.042892   0.000000
     5  C   -0.000413   0.000000   0.000000  -0.042892   4.612192   0.000000
     6  C   -0.000432  -0.044468   0.294246   0.000000   0.000000   5.137098
     7  C    0.002249  -0.001340  -0.054177   0.000003   0.000001   0.332977
     8  C    0.000010  -0.020001  -0.037976   0.000000   0.000000   0.001475
     9  O    0.000000  -0.000107   0.003947   0.000000   0.000000  -0.000032
    10  C    0.000000   0.000034  -0.000660   0.000000   0.000000  -0.000003
    11  C   -0.000103  -0.040388   0.512368   0.000000   0.000000  -0.033651
    12  N   -0.040896  -0.040212  -0.012344  -0.000216  -0.000162  -0.044506
    13  C   -0.041065   0.003115  -0.000202   0.007080   0.005196   0.002631
    14  C   -0.019398   0.000014   0.000064  -0.042427  -0.037284  -0.000178
    15  C    0.008954  -0.000005   0.000000  -0.038689   0.563071   0.000000
    16  O   -0.000046   0.000000   0.000000  -0.000209  -0.051730   0.000000
    17  C    0.000003   0.000000   0.000000  -0.000170  -0.049841   0.000000
    18  O   -0.000003   0.000000   0.000000   0.002547   0.191135   0.000000
    19  C    0.003745   0.000001   0.000000   0.536959   0.497706   0.000000
    20  C    0.456652   0.002896  -0.000169   0.515552  -0.027927   0.000040
    21  C    0.602070   0.396378  -0.031017   0.002090   0.000044  -0.014612
    22  C   -0.009657   0.487634  -0.051982  -0.000003   0.000000   0.004562
    23  C    0.000446  -0.033640  -0.020055   0.000000   0.000000   0.000168
    24  O    0.000004   0.003288   0.000118   0.000000   0.000000   0.000000
    25  C   -0.000028  -0.000653   0.000013   0.000000   0.000000   0.000000
    26  H    0.363987  -0.002618  -0.000036  -0.000218   0.000012   0.000004
    27  H   -0.000423   0.000001   0.000000   0.376398   0.001453   0.000000
    28  H    0.000020  -0.001137  -0.037814   0.000000   0.000000   0.390914
    29  H    0.000004   0.002425  -0.040809   0.000000   0.000000   0.404980
    30  H    0.000036  -0.000507   0.005010   0.000000   0.000000  -0.033821
    31  H   -0.000166   0.002322  -0.002216   0.000000   0.000000  -0.041084
    32  H    0.000000   0.000000  -0.000273   0.000000   0.000000   0.000003
    33  H    0.000000  -0.000001   0.000018   0.000000   0.000000   0.000000
    34  H    0.000000   0.000003  -0.000222   0.000000   0.000000  -0.000001
    35  H    0.000001   0.001692  -0.022779   0.000000   0.000000  -0.001216
    36  H   -0.000229  -0.000058  -0.000004  -0.000043   0.000152   0.000085
    37  H    0.000000   0.000000   0.000000   0.000000   0.002798   0.000000
    38  H    0.000000   0.000000   0.000000   0.000002   0.002932   0.000000
    39  H   -0.000066   0.000000   0.000000  -0.018636  -0.025195   0.000000
    40  H    0.002773  -0.022411   0.001747  -0.000006   0.000000  -0.000095
    41  H    0.000000   0.000019   0.000000   0.000000   0.000000   0.000000
    42  H   -0.000021  -0.000215  -0.000004   0.000000   0.000000   0.000000
    43  H    0.000001  -0.000351   0.000000   0.000000   0.000000   0.000000
               7          8          9         10         11         12
     1  C    0.002249   0.000010   0.000000   0.000000  -0.000103  -0.040896
     2  C   -0.001340  -0.020001  -0.000107   0.000034  -0.040388  -0.040212
     3  C   -0.054177  -0.037976   0.003947  -0.000660   0.512368  -0.012344
     4  C    0.000003   0.000000   0.000000   0.000000   0.000000  -0.000216
     5  C    0.000001   0.000000   0.000000   0.000000   0.000000  -0.000162
     6  C    0.332977   0.001475  -0.000032  -0.000003  -0.033651  -0.044506
     7  C    5.039604  -0.000025   0.000000   0.000000   0.001274   0.146783
     8  C   -0.000025   4.468859   0.252222  -0.041168   0.541090   0.000005
     9  O    0.000000   0.252222   8.481402   0.174116  -0.053181   0.000000
    10  C    0.000000  -0.041168   0.174116   4.906818  -0.006417   0.000000
    11  C    0.001274   0.541090  -0.053181  -0.006417   5.116653   0.000189
    12  N    0.146783   0.000005   0.000000   0.000000   0.000189   7.205081
    13  C   -0.038237   0.000000   0.000000   0.000000   0.000003   0.386295
    14  C    0.002969   0.000000   0.000000   0.000000   0.000000  -0.013185
    15  C   -0.000018   0.000000   0.000000   0.000000   0.000000   0.001429
    16  O    0.000001   0.000000   0.000000   0.000000   0.000000   0.000066
    17  C    0.000000   0.000000   0.000000   0.000000   0.000000   0.000001
    18  O    0.000000   0.000000   0.000000   0.000000   0.000000   0.000000
    19  C    0.000000   0.000000   0.000000   0.000000   0.000000   0.000036
    20  C   -0.000154   0.000000   0.000000   0.000000   0.000001  -0.025347
    21  C   -0.027975   0.000019  -0.000001   0.000000   0.005464   0.265441
    22  C    0.000177  -0.054310   0.002970  -0.000111  -0.041617   0.003397
    23  C   -0.000032   0.551743  -0.053669   0.002657  -0.052381  -0.000062
    24  O    0.000000  -0.052612  -0.003973  -0.000048   0.002574   0.000000
    25  C    0.000000   0.002646  -0.000046   0.000004  -0.000097   0.000000
    26  H   -0.000062  -0.000002   0.000000   0.000000  -0.000002   0.002699
    27  H    0.000000   0.000000   0.000000   0.000000   0.000000  -0.000001
    28  H   -0.038102  -0.000060   0.000000   0.000000  -0.003406  -0.000778
    29  H   -0.034519   0.000237   0.000000  -0.000004  -0.002237   0.003353
    30  H    0.407510  -0.000001   0.000000   0.000000  -0.000008  -0.036404
    31  H    0.403485  -0.000010   0.000000   0.000000  -0.000273  -0.044414
    32  H    0.000000  -0.001480  -0.034389   0.390331   0.000663   0.000000
    33  H    0.000000   0.001966  -0.030064   0.398866   0.000344   0.000000
    34  H    0.000000  -0.001718  -0.034328   0.390278   0.000722   0.000000
    35  H    0.000038  -0.023810  -0.003779   0.001548   0.374813   0.000001
    36  H   -0.002485   0.000000   0.000000   0.000000   0.000000  -0.028955
    37  H    0.000000   0.000000   0.000000   0.000000   0.000000   0.000000
    38  H    0.000000   0.000000   0.000000   0.000000   0.000000   0.000000
    39  H    0.000000   0.000000   0.000000   0.000000   0.000000   0.000000
    40  H    0.000005   0.001352  -0.000032   0.000001   0.000161  -0.000012
    41  H    0.000000   0.000070  -0.000001   0.000000   0.000004   0.000000
    42  H    0.000000  -0.000252  -0.000004   0.000000  -0.000007   0.000000
    43  H    0.000000  -0.000198  -0.000005   0.000000  -0.000011   0.000000
              13         14         15         16         17         18
     1  C   -0.041065  -0.019398   0.008954  -0.000046   0.000003  -0.000003
     2  C    0.003115   0.000014  -0.000005   0.000000   0.000000   0.000000
     3  C   -0.000202   0.000064   0.000000   0.000000   0.000000   0.000000
     4  C    0.007080  -0.042427  -0.038689  -0.000209  -0.000170   0.002547
     5  C    0.005196  -0.037284   0.563071  -0.051730  -0.049841   0.191135
     6  C    0.002631  -0.000178   0.000000   0.000000   0.000000   0.000000
     7  C   -0.038237   0.002969  -0.000018   0.000001   0.000000   0.000000
     8  C    0.000000   0.000000   0.000000   0.000000   0.000000   0.000000
     9  O    0.000000   0.000000   0.000000   0.000000   0.000000   0.000000
    10  C    0.000000   0.000000   0.000000   0.000000   0.000000   0.000000
    11  C    0.000003   0.000000   0.000000   0.000000   0.000000   0.000000
    12  N    0.386295  -0.013185   0.001429   0.000066   0.000001   0.000000
    13  C    4.706247   0.457354  -0.052085   0.000153  -0.000260  -0.000020
    14  C    0.457354   4.931411   0.478255  -0.044177   0.003920   0.007793
    15  C   -0.052085   0.478255   4.553471   0.223419  -0.042671  -0.041933
    16  O    0.000153  -0.044177   0.223419   8.480609   0.206743  -0.044957
    17  C   -0.000260   0.003920  -0.042671   0.206743   4.563026   0.214564
    18  O   -0.000020   0.007793  -0.041933  -0.044957   0.214564   8.487613
    19  C   -0.001148  -0.027844  -0.028927   0.005682   0.002616  -0.032336
    20  C   -0.038929   0.506242  -0.023670   0.002672   0.000013  -0.000165
    21  C   -0.049937  -0.017516  -0.000269   0.000004   0.000000   0.000000
    22  C   -0.000045  -0.000003   0.000000   0.000000   0.000000   0.000000
    23  C    0.000001   0.000000   0.000000   0.000000   0.000000   0.000000
    24  O    0.000000   0.000000   0.000000   0.000000   0.000000   0.000000
    25  C    0.000000   0.000000   0.000000   0.000000   0.000000   0.000000
    26  H    0.000089   0.002102  -0.000094   0.000000   0.000000   0.000000
    27  H   -0.000093   0.002074   0.000250   0.000000   0.000002  -0.000024
    28  H    0.000076  -0.000030   0.000000   0.000000   0.000000   0.000000
    29  H   -0.000071   0.000000   0.000000   0.000000   0.000000   0.000000
    30  H   -0.001779   0.000850   0.000005  -0.000001   0.000000   0.000000
    31  H   -0.001431  -0.000170  -0.000002   0.000000   0.000000   0.000000
    32  H    0.000000   0.000000   0.000000   0.000000   0.000000   0.000000
    33  H    0.000000   0.000000   0.000000   0.000000   0.000000   0.000000
    34  H    0.000000   0.000000   0.000000   0.000000   0.000000   0.000000
    35  H    0.000000   0.000000   0.000000   0.000000   0.000000   0.000000
    36  H    0.372233  -0.024911  -0.000079   0.002537  -0.000042   0.000006
    37  H   -0.000002   0.000005   0.002377  -0.037467   0.399892  -0.037931
    38  H    0.000000  -0.000103   0.002055  -0.031325   0.399618  -0.032276
    39  H    0.000008   0.000156   0.002052  -0.000020  -0.000105  -0.000331
    40  H   -0.000005   0.000002   0.000000   0.000000   0.000000   0.000000
    41  H    0.000000   0.000000   0.000000   0.000000   0.000000   0.000000
    42  H    0.000000   0.000000   0.000000   0.000000   0.000000   0.000000
    43  H    0.000000   0.000000   0.000000   0.000000   0.000000   0.000000
              19         20         21         22         23         24
     1  C    0.003745   0.456652   0.602070  -0.009657   0.000446   0.000004
     2  C    0.000001   0.002896   0.396378   0.487634  -0.033640   0.003288
     3  C    0.000000  -0.000169  -0.031017  -0.051982  -0.020055   0.000118
     4  C    0.536959   0.515552   0.002090  -0.000003   0.000000   0.000000
     5  C    0.497706  -0.027927   0.000044   0.000000   0.000000   0.000000
     6  C    0.000000   0.000040  -0.014612   0.004562   0.000168   0.000000
     7  C    0.000000  -0.000154  -0.027975   0.000177  -0.000032   0.000000
     8  C    0.000000   0.000000   0.000019  -0.054310   0.551743  -0.052612
     9  O    0.000000   0.000000  -0.000001   0.002970  -0.053669  -0.003973
    10  C    0.000000   0.000000   0.000000  -0.000111   0.002657  -0.000048
    11  C    0.000000   0.000001   0.005464  -0.041617  -0.052381   0.002574
    12  N    0.000036  -0.025347   0.265441   0.003397  -0.000062   0.000000
    13  C   -0.001148  -0.038929  -0.049937  -0.000045   0.000001   0.000000
    14  C   -0.027844   0.506242  -0.017516  -0.000003   0.000000   0.000000
    15  C   -0.028927  -0.023670  -0.000269   0.000000   0.000000   0.000000
    16  O    0.005682   0.002672   0.000004   0.000000   0.000000   0.000000
    17  C    0.002616   0.000013   0.000000   0.000000   0.000000   0.000000
    18  O   -0.032336  -0.000165   0.000000   0.000000   0.000000   0.000000
    19  C    4.933433  -0.040780  -0.000185   0.000000   0.000000   0.000000
    20  C   -0.040780   4.663432  -0.040940   0.000392  -0.000003   0.000000
    21  C   -0.000185  -0.040940   4.546896  -0.036302   0.001512  -0.000058
    22  C    0.000000   0.000392  -0.036302   5.115014   0.553407  -0.050565
    23  C    0.000000  -0.000003   0.001512   0.553407   4.492690   0.242089
    24  O    0.000000   0.000000  -0.000058  -0.050565   0.242089   8.493576
    25  C    0.000000   0.000000   0.000019  -0.006157  -0.041975   0.177386
    26  H    0.000040  -0.021394  -0.020354   0.002440   0.000147  -0.000003
    27  H   -0.022300  -0.026733   0.000045  -0.000001   0.000000   0.000000
    28  H    0.000000   0.000004   0.001652  -0.000120   0.000021   0.000000
    29  H    0.000000   0.000000  -0.000121  -0.000048  -0.000002   0.000000
    30  H    0.000000  -0.000037   0.002629  -0.000003   0.000000   0.000000
    31  H    0.000000   0.000056   0.000794  -0.000097  -0.000007   0.000000
    32  H    0.000000   0.000000   0.000000  -0.000012  -0.000222  -0.000004
    33  H    0.000000   0.000000   0.000000   0.000005   0.000076  -0.000001
    34  H    0.000000   0.000000   0.000000  -0.000008  -0.000235  -0.000005
    35  H    0.000000   0.000000  -0.000088   0.000185   0.001325  -0.000031
    36  H   -0.000014   0.001107   0.001806   0.000001   0.000000   0.000000
    37  H    0.000013  -0.000005   0.000000   0.000000   0.000000   0.000000
    38  H   -0.000029   0.000001   0.000000   0.000000   0.000000   0.000000
    39  H    0.369067   0.001251   0.000001   0.000000   0.000000   0.000000
    40  H    0.000000   0.000108  -0.001631   0.365044  -0.019913  -0.003972
    41  H    0.000000   0.000000   0.000000   0.000356   0.002048  -0.030318
    42  H    0.000000   0.000000   0.000007   0.001162  -0.001804  -0.034860
    43  H    0.000000   0.000000   0.000005   0.000222  -0.001114  -0.035127
              25         26         27         28         29         30
     1  C   -0.000028   0.363987  -0.000423   0.000020   0.000004   0.000036
     2  C   -0.000653  -0.002618   0.000001  -0.001137   0.002425  -0.000507
     3  C    0.000013  -0.000036   0.000000  -0.037814  -0.040809   0.005010
     4  C    0.000000  -0.000218   0.376398   0.000000   0.000000   0.000000
     5  C    0.000000   0.000012   0.001453   0.000000   0.000000   0.000000
     6  C    0.000000   0.000004   0.000000   0.390914   0.404980  -0.033821
     7  C    0.000000  -0.000062   0.000000  -0.038102  -0.034519   0.407510
     8  C    0.002646  -0.000002   0.000000  -0.000060   0.000237  -0.000001
     9  O   -0.000046   0.000000   0.000000   0.000000   0.000000   0.000000
    10  C    0.000004   0.000000   0.000000   0.000000  -0.000004   0.000000
    11  C   -0.000097  -0.000002   0.000000  -0.003406  -0.002237  -0.000008
    12  N    0.000000   0.002699  -0.000001  -0.000778   0.003353  -0.036404
    13  C    0.000000   0.000089  -0.000093   0.000076  -0.000071  -0.001779
    14  C    0.000000   0.002102   0.002074  -0.000030   0.000000   0.000850
    15  C    0.000000  -0.000094   0.000250   0.000000   0.000000   0.000005
    16  O    0.000000   0.000000   0.000000   0.000000   0.000000  -0.000001
    17  C    0.000000   0.000000   0.000002   0.000000   0.000000   0.000000
    18  O    0.000000   0.000000  -0.000024   0.000000   0.000000   0.000000
    19  C    0.000000   0.000040  -0.022300   0.000000   0.000000   0.000000
    20  C    0.000000  -0.021394  -0.026733   0.000004   0.000000  -0.000037
    21  C    0.000019  -0.020354   0.000045   0.001652  -0.000121   0.002629
    22  C   -0.006157   0.002440  -0.000001  -0.000120  -0.000048  -0.000003
    23  C   -0.041975   0.000147   0.000000   0.000021  -0.000002   0.000000
    24  O    0.177386  -0.000003   0.000000   0.000000   0.000000   0.000000
    25  C    4.903998   0.000025   0.000000   0.000000   0.000000   0.000000
    26  H    0.000025   0.371126   0.002558   0.000000   0.000000   0.000002
    27  H    0.000000   0.002558   0.394688   0.000000   0.000000   0.000000
    28  H    0.000000   0.000000   0.000000   0.480166  -0.017788  -0.001349
    29  H    0.000000   0.000000   0.000000  -0.017788   0.453588  -0.002196
    30  H    0.000000   0.000002   0.000000  -0.001349  -0.002196   0.421320
    31  H    0.000000  -0.000001   0.000000   0.003497  -0.000776  -0.017763
    32  H    0.000000   0.000000   0.000000   0.000000  -0.000004   0.000000
    33  H    0.000000   0.000000   0.000000   0.000000   0.000000   0.000000
    34  H    0.000000   0.000000   0.000000   0.000000   0.000002   0.000000
    35  H    0.000001   0.000000   0.000000   0.000086   0.001741   0.000000
    36  H    0.000000   0.000007   0.000001   0.000001  -0.000002   0.000630
    37  H    0.000000   0.000000   0.000000   0.000000   0.000000   0.000000
    38  H    0.000000   0.000000   0.000000   0.000000   0.000000   0.000000
    39  H    0.000000  -0.000004  -0.000931   0.000000   0.000000   0.000000
    40  H    0.001763   0.001289   0.000001   0.000000   0.000001   0.000000
    41  H    0.399183   0.000000   0.000000   0.000000   0.000000   0.000000
    42  H    0.390100   0.000093   0.000000   0.000000   0.000000   0.000000
    43  H    0.390237  -0.000022   0.000000   0.000000   0.000000   0.000000
              31         32         33         34         35         36
     1  C   -0.000166   0.000000   0.000000   0.000000   0.000001  -0.000229
     2  C    0.002322   0.000000  -0.000001   0.000003   0.001692  -0.000058
     3  C   -0.002216  -0.000273   0.000018  -0.000222  -0.022779  -0.000004
     4  C    0.000000   0.000000   0.000000   0.000000   0.000000  -0.000043
     5  C    0.000000   0.000000   0.000000   0.000000   0.000000   0.000152
     6  C   -0.041084   0.000003   0.000000  -0.000001  -0.001216   0.000085
     7  C    0.403485   0.000000   0.000000   0.000000   0.000038  -0.002485
     8  C   -0.000010  -0.001480   0.001966  -0.001718  -0.023810   0.000000
     9  O    0.000000  -0.034389  -0.030064  -0.034328  -0.003779   0.000000
    10  C    0.000000   0.390331   0.398866   0.390278   0.001548   0.000000
    11  C   -0.000273   0.000663   0.000344   0.000722   0.374813   0.000000
    12  N   -0.044414   0.000000   0.000000   0.000000   0.000001  -0.028955
    13  C   -0.001431   0.000000   0.000000   0.000000   0.000000   0.372233
    14  C   -0.000170   0.000000   0.000000   0.000000   0.000000  -0.024911
    15  C   -0.000002   0.000000   0.000000   0.000000   0.000000  -0.000079
    16  O    0.000000   0.000000   0.000000   0.000000   0.000000   0.002537
    17  C    0.000000   0.000000   0.000000   0.000000   0.000000  -0.000042
    18  O    0.000000   0.000000   0.000000   0.000000   0.000000   0.000006
    19  C    0.000000   0.000000   0.000000   0.000000   0.000000  -0.000014
    20  C    0.000056   0.000000   0.000000   0.000000   0.000000   0.001107
    21  C    0.000794   0.000000   0.000000   0.000000  -0.000088   0.001806
    22  C   -0.000097  -0.000012   0.000005  -0.000008   0.000185   0.000001
    23  C   -0.000007  -0.000222   0.000076  -0.000235   0.001325   0.000000
    24  O    0.000000  -0.000004  -0.000001  -0.000005  -0.000031   0.000000
    25  C    0.000000   0.000000   0.000000   0.000000   0.000001   0.000000
    26  H   -0.000001   0.000000   0.000000   0.000000   0.000000   0.000007
    27  H    0.000000   0.000000   0.000000   0.000000   0.000000   0.000001
    28  H    0.003497   0.000000   0.000000   0.000000   0.000086   0.000001
    29  H   -0.000776  -0.000004   0.000000   0.000002   0.001741  -0.000002
    30  H   -0.017763   0.000000   0.000000   0.000000   0.000000   0.000630
    31  H    0.450617   0.000000   0.000000   0.000000  -0.000002   0.000107
    32  H    0.000000   0.512751  -0.024772  -0.036075  -0.000371   0.000000
    33  H    0.000000  -0.024772   0.464761  -0.024871   0.000069   0.000000
    34  H    0.000000  -0.036075  -0.024871   0.512923  -0.000270   0.000000
    35  H   -0.000002  -0.000371   0.000069  -0.000270   0.399832   0.000000
    36  H    0.000107   0.000000   0.000000   0.000000   0.000000   0.331613
    37  H    0.000000   0.000000   0.000000   0.000000   0.000000   0.000001
    38  H    0.000000   0.000000   0.000000   0.000000   0.000000   0.000001
    39  H    0.000000   0.000000   0.000000   0.000000   0.000000   0.000000
    40  H    0.000000   0.000000   0.000000   0.000000   0.000008   0.000000
    41  H    0.000000   0.000000   0.000000   0.000000   0.000000   0.000000
    42  H    0.000000   0.000000   0.000000   0.000000   0.000000   0.000000
    43  H    0.000000   0.000000   0.000000   0.000000   0.000000   0.000000
              37         38         39         40         41         42
     1  C    0.000000   0.000000  -0.000066   0.002773   0.000000  -0.000021
     2  C    0.000000   0.000000   0.000000  -0.022411   0.000019  -0.000215
     3  C    0.000000   0.000000   0.000000   0.001747   0.000000  -0.000004
     4  C    0.000000   0.000002  -0.018636  -0.000006   0.000000   0.000000
     5  C    0.002798   0.002932  -0.025195   0.000000   0.000000   0.000000
     6  C    0.000000   0.000000   0.000000  -0.000095   0.000000   0.000000
     7  C    0.000000   0.000000   0.000000   0.000005   0.000000   0.000000
     8  C    0.000000   0.000000   0.000000   0.001352   0.000070  -0.000252
     9  O    0.000000   0.000000   0.000000  -0.000032  -0.000001  -0.000004
    10  C    0.000000   0.000000   0.000000   0.000001   0.000000   0.000000
    11  C    0.000000   0.000000   0.000000   0.000161   0.000004  -0.000007
    12  N    0.000000   0.000000   0.000000  -0.000012   0.000000   0.000000
    13  C   -0.000002   0.000000   0.000008  -0.000005   0.000000   0.000000
    14  C    0.000005  -0.000103   0.000156   0.000002   0.000000   0.000000
    15  C    0.002377   0.002055   0.002052   0.000000   0.000000   0.000000
    16  O   -0.037467  -0.031325  -0.000020   0.000000   0.000000   0.000000
    17  C    0.399892   0.399618  -0.000105   0.000000   0.000000   0.000000
    18  O   -0.037931  -0.032276  -0.000331   0.000000   0.000000   0.000000
    19  C    0.000013  -0.000029   0.369067   0.000000   0.000000   0.000000
    20  C   -0.000005   0.000001   0.001251   0.000108   0.000000   0.000000
    21  C    0.000000   0.000000   0.000001  -0.001631   0.000000   0.000007
    22  C    0.000000   0.000000   0.000000   0.365044   0.000356   0.001162
    23  C    0.000000   0.000000   0.000000  -0.019913   0.002048  -0.001804
    24  O    0.000000   0.000000   0.000000  -0.003972  -0.030318  -0.034860
    25  C    0.000000   0.000000   0.000000   0.001763   0.399183   0.390100
    26  H    0.000000   0.000000  -0.000004   0.001289   0.000000   0.000093
    27  H    0.000000   0.000000  -0.000931   0.000001   0.000000   0.000000
    28  H    0.000000   0.000000   0.000000   0.000000   0.000000   0.000000
    29  H    0.000000   0.000000   0.000000   0.000001   0.000000   0.000000
    30  H    0.000000   0.000000   0.000000   0.000000   0.000000   0.000000
    31  H    0.000000   0.000000   0.000000   0.000000   0.000000   0.000000
    32  H    0.000000   0.000000   0.000000   0.000000   0.000000   0.000000
    33  H    0.000000   0.000000   0.000000   0.000000   0.000000   0.000000
    34  H    0.000000   0.000000   0.000000   0.000000   0.000000   0.000000
    35  H    0.000000   0.000000   0.000000   0.000008   0.000000   0.000000
    36  H    0.000001   0.000001   0.000000   0.000000   0.000000   0.000000
    37  H    0.484532  -0.038276   0.000001   0.000000   0.000000   0.000000
    38  H   -0.038276   0.466847   0.000000   0.000000   0.000000   0.000000
    39  H    0.000001   0.000000   0.381170   0.000000   0.000000   0.000000
    40  H    0.000000   0.000000   0.000000   0.386875   0.000073  -0.000812
    41  H    0.000000   0.000000   0.000000   0.000073   0.466435  -0.024954
    42  H    0.000000   0.000000   0.000000  -0.000812  -0.024954   0.517969
    43  H    0.000000   0.000000   0.000000   0.000228  -0.025049  -0.037106
              43
     1  C    0.000001
     2  C   -0.000351
     3  C    0.000000
     4  C    0.000000
     5  C    0.000000
     6  C    0.000000
     7  C    0.000000
     8  C   -0.000198
     9  O   -0.000005
    10  C    0.000000
    11  C   -0.000011
    12  N    0.000000
    13  C    0.000000
    14  C    0.000000
    15  C    0.000000
    16  O    0.000000
    17  C    0.000000
    18  O    0.000000
    19  C    0.000000
    20  C    0.000000
    21  C    0.000005
    22  C    0.000222
    23  C   -0.001114
    24  O   -0.035127
    25  C    0.390237
    26  H   -0.000022
    27  H    0.000000
    28  H    0.000000
    29  H    0.000000
    30  H    0.000000
    31  H    0.000000
    32  H    0.000000
    33  H    0.000000
    34  H    0.000000
    35  H    0.000000
    36  H    0.000000
    37  H    0.000000
    38  H    0.000000
    39  H    0.000000
    40  H    0.000228
    41  H   -0.025049
    42  H   -0.037106
    43  H    0.517249
 Mulliken charges:
               1
     1  C   -0.293842
     2  C   -0.047543
     3  C    0.027581
     4  C   -0.242312
     5  C    0.358753
     6  C   -0.355085
     7  C   -0.139951
     8  C    0.411929
     9  O   -0.701047
    10  C   -0.216242
    11  C   -0.322541
    12  N   -0.727281
[...]
 9921 Fit       0.118760
 9922 Fit       0.130740
 9923 Fit       0.126139
 9924 Fit       0.123355
 9925 Fit       0.088464
 9926 Fit       0.091438
 9927 Fit       0.090162
 9928 Fit       0.087575
 9929 Fit       0.086026
 9930 Fit       0.086753
 9931 Fit       0.089579
 9932 Fit       0.095005
 9933 Fit       0.094109
 9934 Fit       0.091879
 9935 Fit       0.089260
 9936 Fit       0.086905
 9937 Fit       0.085128
 9938 Fit       0.084075
 9939 Fit       0.083913
 9940 Fit       0.084958
 9941 Fit       0.087473
 9942 Fit       0.090925
 9943 Fit       0.093860
 9944 Fit       0.099230
 9945 Fit       0.098300
 9946 Fit       0.096222
 9947 Fit       0.093612
 9948 Fit       0.090951
 9949 Fit       0.088521
 9950 Fit       0.086450
 9951 Fit       0.084776
 9952 Fit       0.083491
 9953 Fit       0.082584
 9954 Fit       0.082080
 9955 Fit       0.082108
 9956 Fit       0.082966
 9957 Fit       0.085050
 9958 Fit       0.088447
 9959 Fit       0.092506
 9960 Fit       0.096148
 9961 Fit       0.098529
 9962 Fit       0.104178
 9963 Fit       0.102957
 9964 Fit       0.100631
 9965 Fit       0.097779
 9966 Fit       0.094840
 9967 Fit       0.092071
 9968 Fit       0.089594
 9969 Fit       0.087455
 9970 Fit       0.085652
 9971 Fit       0.084160
 9972 Fit       0.082942
 9973 Fit       0.081956
 9974 Fit       0.081165
 9975 Fit       0.080562
 9976 Fit       0.080215
 9977 Fit       0.080363
 9978 Fit       0.081484
 9979 Fit       0.103805
 9980 Fit       0.105209
 9981 Fit       0.101861
 9982 Fit       0.098523
 9983 Fit       0.095409
 9984 Fit       0.092609
 9985 Fit       0.090149
 9986 Fit       0.088026
 9987 Fit       0.086218
 9988 Fit       0.084692
 9989 Fit       0.083410
 9990 Fit       0.082324
 9991 Fit       0.081381
 9992 Fit       0.080523
 9993 Fit       0.079686
 9994 Fit       0.078837
 9995 Fit       0.078040
 9996 Fit       0.102179
 9997 Fit       0.098819
 9998 Fit       0.095815
 9999 Fit       0.093149
 **** Fit       0.090806
 **** Fit       0.088767
 **** Fit       0.087010
 **** Fit       0.085507
 **** Fit       0.084224
 **** Fit       0.083123
 **** Fit       0.082158
 **** Fit       0.081272
 **** Fit       0.080390
 **** Fit       0.079415
 **** Fit       0.078229
 **** Fit       0.076727
 **** Fit       0.097753
 **** Fit       0.095064
 **** Fit       0.092656
 **** Fit       0.090525
 **** Fit       0.088662
 **** Fit       0.087054
 **** Fit       0.085675
 **** Fit       0.084496
 **** Fit       0.083478
 **** Fit       0.082571
 **** Fit       0.081708
 **** Fit       0.080795
 **** Fit       0.079690
 **** Fit       0.096741
 **** Fit       0.094537
 **** Fit       0.092482
 **** Fit       0.090620
 **** Fit       0.088973
 **** Fit       0.087543
 **** Fit       0.086316
 **** Fit       0.085267
 **** Fit       0.084359
 **** Fit       0.083542
 **** Fit       0.082743
 **** Fit       0.081855
 **** Fit       0.094072
 **** Fit       0.092364
 **** Fit       0.090792
 **** Fit       0.089400
 **** Fit       0.088202
 **** Fit       0.087185
 **** Fit       0.086324
 **** Fit       0.085575
 **** Fit       0.087512
 **** Fit       0.085876
 **** Fit       0.084421
 **** Fit       0.083103
 **** Fit       0.081856
 **** Fit       0.080587
 **** Fit       0.089944
 **** Fit       0.088072
 **** Fit       0.086360
 **** Fit       0.084821
 **** Fit       0.083442
 **** Fit       0.082191
 **** Fit       0.081025
 **** Fit       0.079883
 **** Fit       0.078676
 **** Fit       0.077270
 **** Fit       0.075456
 **** Fit       0.089586
 **** Fit       0.087780
 **** Fit       0.086079
 **** Fit       0.084527
 **** Fit       0.083128
 **** Fit       0.081865
 **** Fit       0.080706
 **** Fit       0.079608
 **** Fit       0.078510
 **** Fit       0.077324
 **** Fit       0.075925
 **** Fit       0.074126
 **** Fit       0.090593
 **** Fit       0.088966
 **** Fit       0.087245
 **** Fit       0.085584
 **** Fit       0.084050
 **** Fit       0.082661
 **** Fit       0.081408
 **** Fit       0.080266
 **** Fit       0.079198
 **** Fit       0.078154
 **** Fit       0.077066
 **** Fit       0.075842
 **** Fit       0.074365
 **** Fit       0.072493
 **** Fit       0.089997
 **** Fit       0.088562
 **** Fit       0.086959
 **** Fit       0.085365
 **** Fit       0.083869
 **** Fit       0.082505
 **** Fit       0.081274
 **** Fit       0.080163
 **** Fit       0.079142
 **** Fit       0.078176
 **** Fit       0.077221
 **** Fit       0.076226
 **** Fit       0.075146
 **** Fit       0.073970
 **** Fit       0.090129
 **** Fit       0.089025
 **** Fit       0.087548
 **** Fit       0.085947
 **** Fit       0.084379
 **** Fit       0.082927
 **** Fit       0.081621
 **** Fit       0.080460
 **** Fit       0.079429
 **** Fit       0.078503
 **** Fit       0.077660
 **** Fit       0.076891
 **** Fit       0.076229
 **** Fit       0.075810
 **** Fit       0.089476
 **** Fit       0.088236
 **** Fit       0.086733
 **** Fit       0.085150
 **** Fit       0.083628
 **** Fit       0.082246
 **** Fit       0.081035
 **** Fit       0.080001
 **** Fit       0.079144
 **** Fit       0.078472
 **** Fit       0.078037
 **** Fit       0.077974
 **** Fit       0.078551
 **** Fit       0.080169
 **** Fit       0.089818
 **** Fit       0.088657
 **** Fit       0.087240
 **** Fit       0.085648
 **** Fit       0.084056
 **** Fit       0.082607
 **** Fit       0.081384
 **** Fit       0.080435
 **** Fit       0.079812
 **** Fit       0.079618
 **** Fit       0.080054
 **** Fit       0.081412
 **** Fit       0.083882
 **** Fit       0.087129
 **** Fit       0.089303
 **** Fit       0.088755
 **** Fit       0.087517
 **** Fit       0.085889
 **** Fit       0.084165
 **** Fit       0.082659
 **** Fit       0.081613
 **** Fit       0.081237
 **** Fit       0.081813
 **** Fit       0.083591
 **** Fit       0.086256
 **** Fit       0.088536
 **** Fit       0.086976
 **** Fit       0.086253
 **** Fit       0.084441
 **** Fit       0.083093
 **** Fit       0.083410
 **** Fit       0.085493
 **** Fit       0.084884
 **** Fit       0.084637
 **** Fit       0.085771
 **** Fit       0.087812
 **** Fit       0.082914
 **** Fit       0.082872
 **** Fit       0.083536
 **** Fit       0.084814
 **** Fit       0.086686
 **** Fit       0.089136
 **** Fit       0.081315
 **** Fit       0.081145
 **** Fit       0.081527
 **** Fit       0.082333
 **** Fit       0.083538
 **** Fit       0.085178
 **** Fit       0.087323
 **** Fit       0.090047
 **** Fit       0.093354
 **** Fit       0.079143
 **** Fit       0.079461
 **** Fit       0.080078
 **** Fit       0.080926
 **** Fit       0.082017
 **** Fit       0.083403
 **** Fit       0.085165
 **** Fit       0.087413
 **** Fit       0.090282
 **** Fit       0.093907
 **** Fit       0.076711
 **** Fit       0.077718
 **** Fit       0.078683
 **** Fit       0.079661
 **** Fit       0.080725
 **** Fit       0.081951
 **** Fit       0.083421
 **** Fit       0.085229
 **** Fit       0.087499
 **** Fit       0.090389
 **** Fit       0.094106
 **** Fit       0.098906
 **** Fit       0.075999
 **** Fit       0.077451
 **** Fit       0.078676
 **** Fit       0.079848
 **** Fit       0.081089
 **** Fit       0.082502
 **** Fit       0.084189
 **** Fit       0.086271
 **** Fit       0.088908
 **** Fit       0.092318
 **** Fit       0.096821
 **** Fit       0.074396
 **** Fit       0.076348
 **** Fit       0.077822
 **** Fit       0.079101
 **** Fit       0.080357
 **** Fit       0.081711
 **** Fit       0.083269
 **** Fit       0.085142
 **** Fit       0.087467
 **** Fit       0.090432
 **** Fit       0.094305
 **** Fit       0.074460
 **** Fit       0.076448
 **** Fit       0.077958
 **** Fit       0.079279
 **** Fit       0.080584
 **** Fit       0.081997
 **** Fit       0.083624
 **** Fit       0.085581
 **** Fit       0.088011
 **** Fit       0.091108
 **** Fit       0.095154
 **** Fit       0.075250
 **** Fit       0.077120
 **** Fit       0.078607
 **** Fit       0.079974
 **** Fit       0.081386
 **** Fit       0.082969
 **** Fit       0.084843
 **** Fit       0.087145
 **** Fit       0.090050
 **** Fit       0.093803
 **** Fit       0.075516
 **** Fit       0.077429
 **** Fit       0.078959
 **** Fit       0.080389
 **** Fit       0.081895
 **** Fit       0.083614
 **** Fit       0.085678
 **** Fit       0.088238
 **** Fit       0.091481
 **** Fit       0.095645
 **** Fit       0.076276
 **** Fit       0.078073
 **** Fit       0.079566
 **** Fit       0.081013
 **** Fit       0.082583
 **** Fit       0.084409
 **** Fit       0.086620
 **** Fit       0.089351
 **** Fit       0.077697
 **** Fit       0.079310
 **** Fit       0.080788
 **** Fit       0.082353
 **** Fit       0.084164
 **** Fit       0.086350
 **** Fit       0.089019
 **** Fit       0.080865
 **** Fit       0.082347
 **** Fit       0.084077
 **** Fit       0.119787
 **** Fit       0.121182
 **** Fit       0.116579
 **** Fit       0.119758
 **** Fit       0.115538
 **** Fit       0.119130
 **** Fit       0.115190
 **** Fit       0.112327
 **** Fit       0.117463
 **** Fit       0.114266
 **** Fit       0.111593
 **** Fit       0.114631
 **** Fit       0.112106
 **** Fit       0.109844
 **** Fit       0.111890
 **** Fit       0.109910
 **** Fit       0.107996
 **** Fit       0.108276
 **** Fit       0.106637
 **** Fit       0.105136
 **** Fit       0.104095
 **** Fit       0.058610
 **** Fit       0.055244
 **** Fit       0.051751
 **** Fit       0.045679
 **** Fit       0.061988
 **** Fit       0.058880
 **** Fit       0.055961
 **** Fit       0.052985
 **** Fit       0.049675
 **** Fit       0.044325
 **** Fit       0.038967
 **** Fit       0.065775
 **** Fit       0.062485
 **** Fit       0.059617
 **** Fit       0.056972
 **** Fit       0.054358
 **** Fit       0.051568
 **** Fit       0.048344
 **** Fit       0.043620
 **** Fit       0.038428
 **** Fit       0.065923
 **** Fit       0.062903
 **** Fit       0.060273
 **** Fit       0.057874
 **** Fit       0.055560
 **** Fit       0.053182
 **** Fit       0.050569
 **** Fit       0.047492
 **** Fit       0.043456
 **** Fit       0.038354
 **** Fit       0.067716
 **** Fit       0.064548
 **** Fit       0.061844
 **** Fit       0.059449
 **** Fit       0.057225
 **** Fit       0.055044
 **** Fit       0.052769
 **** Fit       0.050242
 **** Fit       0.047245
 **** Fit       0.043742
 **** Fit       0.039003
 **** Fit       0.069447
 **** Fit       0.066160
 **** Fit       0.063384
 **** Fit       0.060972
 **** Fit       0.058795
 **** Fit       0.056738
 **** Fit       0.054693
 **** Fit       0.052541
 **** Fit       0.050142
 **** Fit       0.047304
 **** Fit       0.044404
 **** Fit       0.040077
 **** Fit       0.068570
 **** Fit       0.065538
 **** Fit       0.062953
 **** Fit       0.060687
 **** Fit       0.058625
 **** Fit       0.056667
 **** Fit       0.054714
 **** Fit       0.052661
 **** Fit       0.050383
 **** Fit       0.047712
 **** Fit       0.045391
 **** Fit       0.041383
 **** Fit       0.035960
 **** Fit       0.069551
 **** Fit       0.066356
 **** Fit       0.063653
 **** Fit       0.061306
 **** Fit       0.059198
 **** Fit       0.057221
 **** Fit       0.055277
 **** Fit       0.053261
 **** Fit       0.051055
 **** Fit       0.048505
 **** Fit       0.046674
 **** Fit       0.043026
 **** Fit       0.038235
 **** Fit       0.068033
 **** Fit       0.065031
 **** Fit       0.062470
 **** Fit       0.060215
 **** Fit       0.058150
 **** Fit       0.056166
 **** Fit       0.054157
 **** Fit       0.052008
 **** Fit       0.049577
 **** Fit       0.048244
 **** Fit       0.045105
 **** Fit       0.041208
 **** Fit       0.069874
 **** Fit       0.066571
 **** Fit       0.063782
 **** Fit       0.061369
 **** Fit       0.059206
 **** Fit       0.057181
 **** Fit       0.055188
 **** Fit       0.053118
 **** Fit       0.050853
 **** Fit       0.050114
 **** Fit       0.047394
 **** Fit       0.066721
 **** Fit       0.063762
 **** Fit       0.061218
 **** Fit       0.058945
 **** Fit       0.056815
 **** Fit       0.054711
 **** Fit       0.052516
 **** Fit       0.052317
 **** Fit       0.050162
 **** Fit       0.066875
 **** Fit       0.063771
 **** Fit       0.061118
 **** Fit       0.058765
 **** Fit       0.056581
 **** Fit       0.054456
 **** Fit       0.054910
 **** Fit       0.064500
 **** Fit       0.061568
 **** Fit       0.059056
 **** Fit       0.056846
 **** Fit       0.073867
 **** Fit       0.069197
 **** Fit       0.071382
 **** Fit       0.076620
 **** Fit       0.078816
 **** Fit       0.075945
 **** Fit       0.071572
 **** Fit       0.064686
 **** Fit       0.064940
 **** Fit       0.068310
 **** Fit       0.073943
 **** Fit       0.079779
 **** Fit       0.083680
 **** Fit       0.084197
 **** Fit       0.081707
 **** Fit       0.077735
 **** Fit       0.073546
 **** Fit       0.069754
 **** Fit       0.066644
 **** Fit       0.083204
 **** Fit       0.088234
 **** Fit       0.090699
 **** Fit       0.090183
 **** Fit       0.087406
 **** Fit       0.083492
 **** Fit       0.079313
 **** Fit       0.075331
 **** Fit       0.071706
 **** Fit       0.068426
 **** Fit       0.065407
 **** Fit       0.098165
 **** Fit       0.098059
 **** Fit       0.095339
 **** Fit       0.091197
 **** Fit       0.086607
 **** Fit       0.082139
 **** Fit       0.078043
 **** Fit       0.074377
 **** Fit       0.071095
 **** Fit       0.068091
 **** Fit       0.065213
 **** Fit       0.106477
 **** Fit       0.102323
 **** Fit       0.097036
 **** Fit       0.091611
 **** Fit       0.086542
 **** Fit       0.082008
 **** Fit       0.078029
 **** Fit       0.074549
 **** Fit       0.071472
 **** Fit       0.068678
 **** Fit       0.109895
 **** Fit       0.103205
 **** Fit       0.096835
 **** Fit       0.091117
 **** Fit       0.086125
 **** Fit       0.081821
 **** Fit       0.078117
 **** Fit       0.074918
 **** Fit       0.072125
 **** Fit       0.069632
 **** Fit       0.108598
 **** Fit       0.100982
 **** Fit       0.094457
 **** Fit       0.088936
 **** Fit       0.084284
 **** Fit       0.080362
 **** Fit       0.077046
 **** Fit       0.074230
 **** Fit       0.113145
 **** Fit       0.104614
 **** Fit       0.097530
 **** Fit       0.091656
 **** Fit       0.086780
 **** Fit       0.082725
 **** Fit       0.079347
 **** Fit       0.076537
 **** Fit       0.111060
 **** Fit       0.102961
 **** Fit       0.096334
 **** Fit       0.090894
 **** Fit       0.086419
 **** Fit       0.082740
 **** Fit       0.115822
 **** Fit       0.106868
 **** Fit       0.099623
 **** Fit       0.093738
 **** Fit       0.088958
 **** Fit       0.108404
 **** Fit       0.102150
 **** Fit       0.105792
 **** Fit       0.100315
 **** Fit       0.095315
 **** Fit       0.090902
 **** Fit       0.087092
 **** Fit       0.104462
 **** Fit       0.100012
 **** Fit       0.095467
 **** Fit       0.091149
 **** Fit       0.087223
 **** Fit       0.083747
 **** Fit       0.080717
 **** Fit       0.102617
 **** Fit       0.101158
 **** Fit       0.098377
 **** Fit       0.094876
 **** Fit       0.091119
 **** Fit       0.087417
 **** Fit       0.083952
 **** Fit       0.080805
 **** Fit       0.077992
 **** Fit       0.075490
 **** Fit       0.095056
 **** Fit       0.096001
 **** Fit       0.095161
 **** Fit       0.092984
 **** Fit       0.090002
 **** Fit       0.086670
 **** Fit       0.083313
 **** Fit       0.080122
 **** Fit       0.077186
 **** Fit       0.074523
 **** Fit       0.072097
 **** Fit       0.061093
 **** Fit       0.063385
 **** Fit       0.067197
 **** Fit       0.071931
 **** Fit       0.076947
 **** Fit       0.081776
 **** Fit       0.085950
 **** Fit       0.088916
 **** Fit       0.090252
 **** Fit       0.089920
 **** Fit       0.088236
 **** Fit       0.085676
 **** Fit       0.082694
 **** Fit       0.079624
 **** Fit       0.076670
 **** Fit       0.073921
 **** Fit       0.071391
 **** Fit       0.069041
 **** Fit       0.066814
 **** Fit       0.064150
 **** Fit       0.064188
 **** Fit       0.065753
 **** Fit       0.068876
 **** Fit       0.073054
 **** Fit       0.077514
 **** Fit       0.081484
 **** Fit       0.084259
 **** Fit       0.085363
 **** Fit       0.084769
 **** Fit       0.082867
 **** Fit       0.080207
 **** Fit       0.077266
 **** Fit       0.074359
 **** Fit       0.071644
 **** Fit       0.069180
 **** Fit       0.067005
 **** Fit       0.065234
 **** Fit       0.067179
 **** Fit       0.067976
 **** Fit       0.070732
 **** Fit       0.074719
 **** Fit       0.078511
 **** Fit       0.080732
 **** Fit       0.080736
 **** Fit       0.078869
 **** Fit       0.076010
 **** Fit       0.072954
 **** Fit       0.070204
 **** Fit       0.068122
 **** Fit       0.070305
 **** Fit       0.072249
 **** Fit       0.075856
 **** Fit       0.077028
 **** Fit       0.074799
 **** Fit       0.071680
 **** Fit       0.073571
 -----------------------------------------------------------------
 Leave Link  602 at Tue Mar 25 17:55:45 2025, MaxMem=  2684354560 cpu:              13.1 elap:               1.2

 Test job not archived.
 1\1\GINC-ALLEN-UBUNTU\FOpt\RHF\6-31G(d)\C20H18N1O4(1+)\USER\25-Mar-202
 5\0\\# opt hf/6-31g(d) scrf=(smd,solvent=water) nosymm pop=mk geom=con
 nectivity iop(6/33=2,6/42=6)\\EWV\\1,1\C,-0.664324436,-1.0075246003,0.
 1821740428\C,1.5493320553,0.1403262126,-0.0503649332\C,2.2003064174,1.
 3397247531,0.1610600342\C,-2.8654802973,-2.1312397562,0.4156560763\C,-
 4.8297759405,-0.8401750735,0.0850228492\C,1.3849108447,2.6018249087,0.
 2653630312\C,0.1998678142,2.5056501992,-0.6712140291\C,4.3275273723,0.
 2078607505,0.1371409135\O,5.6697874946,0.1391276341,0.215653586\C,6.41
 11437607,1.3181797587,0.4606809838\C,3.5921269502,1.3641550508,0.25875
 17942\N,-0.5956870067,1.2893341371,-0.3593720336\C,-1.8987294759,1.363
 6917541,-0.3903164105\C,-2.706679129,0.2468488635,-0.1436298495\C,-4.1
 058507523,0.2738657273,-0.1685082255\O,-4.9213284819,1.3138966857,-0.4
 431143356\C,-6.2401409854,0.8570953211,-0.1571089086\O,-6.1591655021,-
 0.5506158797,-0.0272401348\C,-4.2378986319,-2.0657408179,0.3811759033\
 C,-2.0841457577,-0.9887869954,0.1531267833\C,0.0698412766,0.0991381835
 ,-0.0811275842\C,2.2989547991,-1.039268966,-0.197076008\C,3.6662077199
 ,-1.0140322012,-0.1047881721\O,4.4694925739,-2.0952208891,-0.239254057
 4\C,3.8896887485,-3.3529421404,-0.5165078318\H,-0.1724544853,-1.924639
 4797,0.4351204607\H,-2.3753262319,-3.0587997506,0.6426079794\H,1.04209
 2416,2.7582014816,1.2840623151\H,1.975855161,3.4631580452,-0.018197671
 6\H,-0.459402443,3.3515195193,-0.5740085981\H,0.5251898369,2.421975399
 ,-1.6987238484\H,6.1356350734,1.7583820887,1.4105606675\H,7.4462678783
 ,1.0149618741,0.4902573079\H,6.2678230279,2.0384259222,-0.3345997028\H
 ,4.0812810686,2.303678312,0.4250826144\H,-2.3298230535,2.3183833882,-0
 .6149204257\H,-6.5707320029,1.2922183875,0.7738506606\H,-6.8908054176,
 1.1119343175,-0.9743359891\H,-4.8431247534,-2.9310314507,0.5747651655\
 H,1.8017353372,-1.9653941648,-0.3982942058\H,4.7111961251,-4.049569307
 7,-0.5854501548\H,3.2234482059,-3.6588396958,0.2805975626\H,3.35216382
 65,-3.3347385065,-1.4565586212\\Version=ES64L-G16RevC.01\HF=-1121.6109
 092\RMSD=7.595e-09\RMSF=7.549e-06\Dipole=-2.4223499,2.0367697,-0.14344
 63\Quadrupole=9.7721743,12.123639,-21.8958133,5.7568103,0.4027029,-1.5
 591284\PG=C01 [X(C20H18N1O4)]\\@


 THE MORE PROGRESS PHYSICAL SCIENCES MAKE, THE MORE THEY TEND TO ENTER
 THE DOMAIN OF MATHEMATICS, WHICH IS A KIND OF CENTRE TO WHICH THEY ALL
 CONVERGE.  WE MAY EVEN JUDGE THE DEGREE OF PERFECTION TO WHICH A 
 SCIENCE HAS ARRIVED BY THE FACILITY WITH WHICH IT MAY BE SUBMITTED
 TO CALCULATION.

                               -- ADOLPHE QUETELET, 1796-1874
 Job cpu time:       0 days  5 hours 21 minutes 17.8 seconds.
 Elapsed time:       0 days  0 hours 28 minutes 38.1 seconds.
 File lengths (MBytes):  RWF=    269 Int=      0 D2E=      0 Chk=     17 Scr=      1
 Normal termination of Gaussian 16 at Tue Mar 25 17:55:45 2025.
