
                                 *****************
                                 * O   R   C   A *
                                 *****************

                                            #,                                       
                                            ###                                      
                                            ####                                     
                                            #####                                    
                                            ######                                   
                                           ########,                                 
                                     ,,################,,,,,                         
                               ,,#################################,,                 
                          ,,##########################################,,             
                       ,#########################################, ''#####,          
                    ,#############################################,,   '####,        
                  ,##################################################,,,,####,       
                ,###########''''           ''''###############################       
              ,#####''   ,,,,##########,,,,          '''####'''          '####       
            ,##' ,,,,###########################,,,                        '##       
           ' ,,###''''                  '''############,,,                           
         ,,##''                                '''############,,,,        ,,,,,,###''
      ,#''                                            '''#######################'''  
     '                                                          ''''####''''         
             ,#######,   #######,   ,#######,      ##                                
            ,#'     '#,  ##    ##  ,#'     '#,    #''#        ######   ,####,        
            ##       ##  ##   ,#'  ##            #'  '#       #        #'  '#        
            ##       ##  #######   ##           ,######,      #####,   #    #        
            '#,     ,#'  ##    ##  '#,     ,#' ,#      #,         ##   #,  ,#        
             '#######'   ##     ##  '#######'  #'      '#     #####' # '####'        



                  #######################################################
                  #                        -***-                        #
                  #          Department of theory and spectroscopy      #
                  #    Directorship and core code : Frank Neese         #
                  #        Max Planck Institute fuer Kohlenforschung    #
                  #                Kaiser Wilhelm Platz 1               #
                  #                 D-45470 Muelheim/Ruhr               #
                  #                      Germany                        #
                  #                                                     #
                  #                  All rights reserved                #
                  #                        -***-                        #
                  #######################################################


                         Program Version 5.0.4 -  RELEASE  -


 With contributions from (in alphabetic order):
   Daniel Aravena         : Magnetic Suceptibility
   Michael Atanasov       : Ab Initio Ligand Field Theory (pilot matlab implementation)
   Alexander A. Auer      : GIAO ZORA, VPT2 properties, NMR spectrum
   Ute Becker             : Parallelization
   Giovanni Bistoni       : ED, misc. LED, open-shell LED, HFLD
   Martin Brehm           : Molecular dynamics
   Dmytro Bykov           : SCF Hessian
   Vijay G. Chilkuri      : MRCI spin determinant printing, contributions to CSF-ICE
   Dipayan Datta          : RHF DLPNO-CCSD density
   Achintya Kumar Dutta   : EOM-CC, STEOM-CC
   Dmitry Ganyushin       : Spin-Orbit,Spin-Spin,Magnetic field MRCI
   Miquel Garcia          : C-PCM and meta-GGA Hessian, CC/C-PCM, Gaussian charge scheme
   Yang Guo               : DLPNO-NEVPT2, F12-NEVPT2, CIM, IAO-localization
   Andreas Hansen         : Spin unrestricted coupled pair/coupled cluster methods
   Benjamin Helmich-Paris : MC-RPA, TRAH-SCF, COSX integrals
   Lee Huntington         : MR-EOM, pCC
   Robert Izsak           : Overlap fitted RIJCOSX, COSX-SCS-MP3, EOM
   Marcus Kettner         : VPT2
   Christian Kollmar      : KDIIS, OOCD, Brueckner-CCSD(T), CCSD density, CASPT2, CASPT2-K
   Simone Kossmann        : Meta GGA functionals, TD-DFT gradient, OOMP2, MP2 Hessian
   Martin Krupicka        : Initial AUTO-CI
   Lucas Lang             : DCDCAS
   Marvin Lechner         : AUTO-CI (C++ implementation), FIC-MRCC
   Dagmar Lenk            : GEPOL surface, SMD
   Dimitrios Liakos       : Extrapolation schemes; Compound Job, initial MDCI parallelization
   Dimitrios Manganas     : Further ROCIS development; embedding schemes
   Dimitrios Pantazis     : SARC Basis sets
   Anastasios Papadopoulos: AUTO-CI, single reference methods and gradients
   Taras Petrenko         : DFT Hessian,TD-DFT gradient, ASA, ECA, R-Raman, ABS, FL, XAS/XES, NRVS
   Peter Pinski           : DLPNO-MP2, DLPNO-MP2 Gradient
   Christoph Reimann      : Effective Core Potentials
   Marius Retegan         : Local ZFS, SOC
   Christoph Riplinger    : Optimizer, TS searches, QM/MM, DLPNO-CCSD(T), (RO)-DLPNO pert. Triples
   Tobias Risthaus        : Range-separated hybrids, TD-DFT gradient, RPA, STAB
   Michael Roemelt        : Original ROCIS implementation
   Masaaki Saitow         : Open-shell DLPNO-CCSD energy and density
   Barbara Sandhoefer     : DKH picture change effects
   Avijit Sen             : IP-ROCIS
   Kantharuban Sivalingam : CASSCF convergence, NEVPT2, FIC-MRCI
   Bernardo de Souza      : ESD, SOC TD-DFT
   Georgi Stoychev        : AutoAux, RI-MP2 NMR, DLPNO-MP2 response
   Willem Van den Heuvel  : Paramagnetic NMR
   Boris Wezisla          : Elementary symmetry handling
   Frank Wennmohs         : Technical directorship


 We gratefully acknowledge several colleagues who have allowed us to
 interface, adapt or use parts of their codes:
   Stefan Grimme, W. Hujo, H. Kruse, P. Pracht,  : VdW corrections, initial TS optimization,
                  C. Bannwarth, S. Ehlert          DFT functionals, gCP, sTDA/sTD-DF
   Ed Valeev, F. Pavosevic, A. Kumar             : LibInt (2-el integral package), F12 methods
   Garnet Chan, S. Sharma, J. Yang, R. Olivares  : DMRG
   Ulf Ekstrom                                   : XCFun DFT Library
   Mihaly Kallay                                 : mrcc  (arbitrary order and MRCC methods)
   Jiri Pittner, Ondrej Demel                    : Mk-CCSD
   Frank Weinhold                                : gennbo (NPA and NBO analysis)
   Christopher J. Cramer and Donald G. Truhlar   : smd solvation model
   Lars Goerigk                                  : TD-DFT with DH, B97 family of functionals
   V. Asgeirsson, H. Jonsson                     : NEB implementation
   FAccTs GmbH                                   : IRC, NEB, NEB-TS, DLPNO-Multilevel, CI-OPT
                                                   MM, QMMM, 2- and 3-layer-ONIOM, Crystal-QMMM,
                                                   LR-CPCM, SF, NACMEs, symmetry and pop. for TD-DFT,
                                                   nearIR, NL-DFT gradient (VV10), updates on ESD,
                                                   ML-optimized integration grids
   S Lehtola, MJT Oliveira, MAL Marques          : LibXC Library
   Liviu Ungur et al                             : ANISO software


 Your calculation uses the libint2 library for the computation of 2-el integrals
 For citations please refer to: http://libint.valeyev.net

 Your ORCA version has been built with support for libXC version: 5.1.0
 For citations please refer to: https://tddft.org/programs/libxc/

 This ORCA versions uses:
   CBLAS   interface :  Fast vector & matrix operations
   LAPACKE interface :  Fast linear algebra routines
   SCALAPACK package :  Parallel linear algebra routines
   Shared memory     :  Shared parallel matrices
   BLAS/LAPACK       :  OpenBLAS 0.3.15  USE64BITINT DYNAMIC_ARCH NO_AFFINITY Sandybridge SINGLE_THREADED
        Core in use  :  Sandybridge
   Copyright (c) 2011-2014, The OpenBLAS Project


================================================================================

----- Orbital basis set information -----
Your calculation utilizes the basis: cc-pVDZ 
       H, B-Ne : Obtained from the ccRepo (grant-hill.group.shef.ac.uk/ccrepo) Feb. 2017
                 T. H. Dunning, Jr., J. Chem. Phys. 90, 1007 (1989)
            He : Obtained from the ccRepo (grant-hill.group.shef.ac.uk/ccrepo) Feb. 2017
                 D. E. Woon, T. H. Dunning, Jr., J. Chem. Phys. 100, 2975 (1994)
  Li-Be, Na-Mg : Obtained from the ccRepo (grant-hill.group.shef.ac.uk/ccrepo) Feb. 2017
                 B. P. Prascher, D. E. Woon, K. A. Peterson, T. H. Dunning, Jr., A. K. Wilson, Theor. Chem. Acc. 128, 69 (2011)
         Al-Ar : Obtained from the ccRepo (grant-hill.group.shef.ac.uk/ccrepo) Feb. 2017
                 D. E. Woon, T. H. Dunning, Jr., J. Chem. Phys. 98, 1358 (1993)
            Ca : Obtained from the Peterson Research Group Website (tyr0.chem.wsu.edu/~kipeters) Feb. 2017
                 J. Koput, K. A. Peterson, J. Phys. Chem. 106, 9595 (2002)
         Sc-Zn : Obtained from the ccRepo (grant-hill.group.shef.ac.uk/ccrepo) Feb. 2017
                 N. B. Balabanov, K. A. Peterson, J. Chem. Phys. 123, 064107 (2005)
                 N. B. Balabanov, K. A. Peterson, J. Chem. Phys. 125, 074110 (2006)
         Ga-Kr : Obtained from the ccRepo (grant-hill.group.shef.ac.uk/ccrepo) Feb. 2017
                 A. K. Wilson, D. E. Woon, K. A. Peterson, T. H. Dunning, Jr., J. Chem. Phys. 110, 7667 (1999)

================================================================================
                                        WARNINGS
                       Please study these warnings very carefully!
================================================================================


WARNING: No MP2 level density has been requested!
         To caclulate MP2 level properties use
         %mp2 Density relaxed end
         or
         %mp2 Density unrelaxed end

WARNING: Post HF methods need fully converged wavefunctions
  ===> : Setting SCFConvForced true
         You can overwrite this default with %scf ConvForced false 


INFO   : the flag for use of the SHARK integral package has been found!

================================================================================
                                       INPUT FILE
================================================================================
NAME = /scratch/allen/tmpyp4_amber_gaff2/2.Mdgx/conf11/conf11/Conf136.orca
|  1> ! PAL2
|  2> ! mp2 cc-pvdz TightSCF  NoKeepInts
|  3> 
|  4> %scf
|  5>   MaxCore 2000
|  6> end
|  7> %mp2
|  8>   MaxCore 2000
|  9> end
| 10> * xyz 0 1
| 11>    C       -4.65600         5.40400        -0.76900
| 12>    C        1.47400         4.04100         0.05700
| 13>    C       -2.80200         4.09300         0.04900
| 14>    C       -2.51500         5.14500         0.93300
| 15>    C       -3.30100         6.28000         0.93900
| 16>    C       -5.19800         7.61200         0.15200
| 17>    C        0.13200         4.30700         0.06100
| 18>    C       -0.56900         3.05600         0.04700
| 19>    C        1.64900         2.61800         0.02300
| 20>    C       -3.90200         4.24700        -0.80900
| 21>    N       -4.35200         6.39900         0.09400
| 22>    N        0.38800         2.06700         0.02500
| 23>    N       -2.01000         0.39500        -0.07500
| 24>    N       -0.38800        -2.07400        -0.02700
| 25>    N        2.01000        -0.40100         0.06500
| 26>    C       -1.96000         2.86100         0.02400
| 27>    C       -2.62300         1.61500        -0.01800
| 28>    C       -5.57300        -4.32900         1.06600
| 29>    C       -4.07300         1.47100         0.05600
| 30>    C       -4.10600        -2.75600        -0.02600
| 31>    C       -4.99500        -2.75700        -1.11100
| 32>    C       -6.13200        -3.54200        -1.07600
| 33>    C       -7.65100        -5.11300         0.04000
| 34>    C       -4.32400         0.14100         0.03700
| 35>    C       -3.02500        -0.52000        -0.04800
| 36>    C       -4.42200        -3.56600         1.07500
| 37>    N       -6.40700        -4.31300         0.00100
| 38>    C       -2.86700        -1.92200        -0.04000
| 39>    C       -1.65000        -2.62400        -0.02700
| 40>    C        3.56800        -6.14200        -1.04000
| 41>    C       -1.47600        -4.04900        -0.03400
| 42>    C        2.80300        -4.09900        -0.00800
| 43>    C        3.65700        -4.38400         1.06900
| 44>    C        4.42700        -5.53000         1.05900
| 45>    C        5.24500        -7.58800         0.01400
| 46>    C       -0.13400        -4.31500        -0.02200
| 47>    C        0.56800        -3.06400        -0.02700
| 48>    C        2.77500        -5.01200        -1.07400
| 49>    N        4.37600        -6.39100         0.01700
| 50>    C        1.95900        -2.86900        -0.00900
| 51>    C        2.62100        -1.62200         0.00900
| 52>    C        5.54300         4.33900        -1.13000
| 53>    C        4.07000        -1.47900        -0.09400
| 54>    C        4.10400         2.75100        -0.02100
| 55>    C        5.02700         2.72900         1.03600
| 56>    C        6.16600         3.50900         0.97800
| 57>    C        7.61900         5.15300        -0.11500
| 58>    C        4.32100        -0.14800        -0.09200
| 59>    C        3.02500         0.51400         0.01500
| 60>    C        4.38700         3.58200        -1.11500
| 61>    C        2.86600         1.91600         0.01300
| 62>    N        6.41300         4.29600        -0.09500
| 63>    H       -5.50500         5.57000        -1.42000
| 64>    H        2.27400         4.76600         0.08100
| 65>    H       -1.68500         5.08200         1.62600
| 66>    H       -3.12400         7.11200         1.60700
| 67>    H       -5.96400         7.47500         0.91900
| 68>    H       -4.56900         8.46700         0.39800
| 69>    H       -5.66500         7.76000        -0.82100
| 70>    H       -0.33200         5.28200         0.06900
| 71>    H       -4.16700         3.47600        -1.52300
| 72>    H        0.18200         1.07200         0.00500
| 73>    H       -0.18300        -1.08000        -0.02100
| 74>    H       -5.86400        -4.96200         1.89500
| 75>    H       -4.79400         2.27200         0.13900
| 76>    H       -4.80000        -2.16000        -1.99400
| 77>    H       -6.84100        -3.58200        -1.89300
| 78>    H       -8.42800        -4.53600         0.54600
| 79>    H       -7.95600        -5.33700        -0.98100
| 80>    H       -7.45600        -6.03700         0.58400
| 81>    H       -5.28700        -0.34400         0.10000
| 82>    H       -3.78000        -3.60100         1.94700
| 83>    H        3.58700        -6.86800        -1.84300
| 84>    H       -2.27600        -4.77400        -0.05000
| 85>    H        3.71400        -3.72400         1.92600
| 86>    H        5.09200        -5.79500         1.87100
| 87>    H        6.20500        -7.32900        -0.43900
| 88>    H        5.39300        -7.91700         1.04200
| 89>    H        4.75900        -8.37300        -0.56400
| 90>    H        0.32900        -5.29000        -0.00800
| 91>    H        2.14600        -4.84200        -1.94000
| 92>    H        5.80800         4.98600        -1.95600
| 93>    H        4.78800        -2.28100        -0.18500
| 94>    H        4.86000         2.11400         1.91200
| 95>    H        6.90100         3.53100         1.77200
| 96>    H        7.38300         6.10900         0.35600
| 97>    H        8.41400         4.65200         0.43500
| 98>    H        7.92100         5.31000        -1.15000
| 99>    H        5.28300         0.33600        -0.17900
|100>    H        3.72000         3.63200        -1.96700
|101> *
|102> 
|103>                          ****END OF INPUT****
================================================================================

                       ****************************
                       * Single Point Calculation *
                       ****************************

---------------------------------
CARTESIAN COORDINATES (ANGSTROEM)
---------------------------------
  C     -4.656000    5.404000   -0.769000
  C      1.474000    4.041000    0.057000
  C     -2.802000    4.093000    0.049000
  C     -2.515000    5.145000    0.933000
  C     -3.301000    6.280000    0.939000
  C     -5.198000    7.612000    0.152000
  C      0.132000    4.307000    0.061000
  C     -0.569000    3.056000    0.047000
  C      1.649000    2.618000    0.023000
  C     -3.902000    4.247000   -0.809000
  N     -4.352000    6.399000    0.094000
  N      0.388000    2.067000    0.025000
  N     -2.010000    0.395000   -0.075000
  N     -0.388000   -2.074000   -0.027000
  N      2.010000   -0.401000    0.065000
  C     -1.960000    2.861000    0.024000
  C     -2.623000    1.615000   -0.018000
  C     -5.573000   -4.329000    1.066000
  C     -4.073000    1.471000    0.056000
  C     -4.106000   -2.756000   -0.026000
  C     -4.995000   -2.757000   -1.111000
  C     -6.132000   -3.542000   -1.076000
  C     -7.651000   -5.113000    0.040000
  C     -4.324000    0.141000    0.037000
  C     -3.025000   -0.520000   -0.048000
  C     -4.422000   -3.566000    1.075000
  N     -6.407000   -4.313000    0.001000
  C     -2.867000   -1.922000   -0.040000
  C     -1.650000   -2.624000   -0.027000
  C      3.568000   -6.142000   -1.040000
  C     -1.476000   -4.049000   -0.034000
  C      2.803000   -4.099000   -0.008000
  C      3.657000   -4.384000    1.069000
  C      4.427000   -5.530000    1.059000
  C      5.245000   -7.588000    0.014000
  C     -0.134000   -4.315000   -0.022000
  C      0.568000   -3.064000   -0.027000
  C      2.775000   -5.012000   -1.074000
  N      4.376000   -6.391000    0.017000
  C      1.959000   -2.869000   -0.009000
  C      2.621000   -1.622000    0.009000
  C      5.543000    4.339000   -1.130000
  C      4.070000   -1.479000   -0.094000
  C      4.104000    2.751000   -0.021000
  C      5.027000    2.729000    1.036000
  C      6.166000    3.509000    0.978000
  C      7.619000    5.153000   -0.115000
  C      4.321000   -0.148000   -0.092000
  C      3.025000    0.514000    0.015000
  C      4.387000    3.582000   -1.115000
  C      2.866000    1.916000    0.013000
  N      6.413000    4.296000   -0.095000
  H     -5.505000    5.570000   -1.420000
  H      2.274000    4.766000    0.081000
  H     -1.685000    5.082000    1.626000
  H     -3.124000    7.112000    1.607000
  H     -5.964000    7.475000    0.919000
  H     -4.569000    8.467000    0.398000
  H     -5.665000    7.760000   -0.821000
  H     -0.332000    5.282000    0.069000
  H     -4.167000    3.476000   -1.523000
  H      0.182000    1.072000    0.005000
  H     -0.183000   -1.080000   -0.021000
  H     -5.864000   -4.962000    1.895000
  H     -4.794000    2.272000    0.139000
  H     -4.800000   -2.160000   -1.994000
  H     -6.841000   -3.582000   -1.893000
  H     -8.428000   -4.536000    0.546000
  H     -7.956000   -5.337000   -0.981000
  H     -7.456000   -6.037000    0.584000
  H     -5.287000   -0.344000    0.100000
  H     -3.780000   -3.601000    1.947000
  H      3.587000   -6.868000   -1.843000
  H     -2.276000   -4.774000   -0.050000
  H      3.714000   -3.724000    1.926000
  H      5.092000   -5.795000    1.871000
  H      6.205000   -7.329000   -0.439000
  H      5.393000   -7.917000    1.042000
  H      4.759000   -8.373000   -0.564000
  H      0.329000   -5.290000   -0.008000
  H      2.146000   -4.842000   -1.940000
  H      5.808000    4.986000   -1.956000
  H      4.788000   -2.281000   -0.185000
  H      4.860000    2.114000    1.912000
  H      6.901000    3.531000    1.772000
  H      7.383000    6.109000    0.356000
  H      8.414000    4.652000    0.435000
  H      7.921000    5.310000   -1.150000
  H      5.283000    0.336000   -0.179000
  H      3.720000    3.632000   -1.967000

----------------------------
CARTESIAN COORDINATES (A.U.)
----------------------------
  NO LB      ZA    FRAG     MASS         X           Y           Z
   0 C     6.0000    0    12.011   -8.798565   10.212080   -1.453199
   1 C     6.0000    0    12.011    2.785456    7.636383    0.107714
   2 C     6.0000    0    12.011   -5.295013    7.734649    0.092597
   3 C     6.0000    0    12.011   -4.752661    9.722641    1.763114
   4 C     6.0000    0    12.011   -6.237986   11.867480    1.774453
   5 C     6.0000    0    12.011   -9.822796   14.384595    0.287238
   6 C     6.0000    0    12.011    0.249444    8.139050    0.115273
   7 C     6.0000    0    12.011   -1.075254    5.775003    0.088817
   8 C     6.0000    0    12.011    3.116158    4.947303    0.043464
   9 C     6.0000    0    12.011   -7.373711    8.025667   -1.528788
  10 N     7.0000    0    14.007   -8.224088   12.092358    0.177634
  11 N     7.0000    0    14.007    0.733214    3.906064    0.047243
  12 N     7.0000    0    14.007   -3.798350    0.746442   -0.141729
  13 N     7.0000    0    14.007   -0.733214   -3.919292   -0.051023
  14 N     7.0000    0    14.007    3.798350   -0.757780    0.122832
  15 C     6.0000    0    12.011   -3.703863    5.406506    0.045353
  16 C     6.0000    0    12.011   -4.956752    3.051908   -0.034015
  17 C     6.0000    0    12.011  -10.531444   -8.180624    2.014448
  18 C     6.0000    0    12.011   -7.696855    2.779787    0.105825
  19 C     6.0000    0    12.011   -7.759216   -5.208085   -0.049133
  20 C     6.0000    0    12.011   -9.439182   -5.209975   -2.099486
  21 C     6.0000    0    12.011  -11.587801   -6.693410   -2.033345
  22 C     6.0000    0    12.011  -14.458295   -9.662170    0.075589
  23 C     6.0000    0    12.011   -8.171176    0.266451    0.069920
  24 C     6.0000    0    12.011   -5.716422   -0.982658   -0.090707
  25 C     6.0000    0    12.011   -8.356369   -6.738763    2.031456
  26 N     7.0000    0    14.007  -12.107475   -8.150389    0.001890
  27 C     6.0000    0    12.011   -5.417845   -3.632054   -0.075589
  28 C     6.0000    0    12.011   -3.118048   -4.958641   -0.051023
  29 C     6.0000    0    12.011    6.742543  -11.606698   -1.965315
  30 C     6.0000    0    12.011   -2.789236   -7.651501   -0.064251
  31 C     6.0000    0    12.011    5.296902   -7.745987   -0.015118
  32 C     6.0000    0    12.011    6.910728   -8.284559    2.020117
  33 C     6.0000    0    12.011    8.365818  -10.450186    2.001220
  34 C     6.0000    0    12.011    9.911614  -14.339242    0.026456
  35 C     6.0000    0    12.011   -0.253223   -8.154168   -0.041574
  36 C     6.0000    0    12.011    1.073364   -5.790121   -0.051023
  37 C     6.0000    0    12.011    5.243990   -9.471307   -2.029566
  38 N     7.0000    0    14.007    8.269442  -12.077240    0.032125
  39 C     6.0000    0    12.011    3.701973   -5.421624   -0.017008
  40 C     6.0000    0    12.011    4.952972   -3.065136    0.017008
  41 C     6.0000    0    12.011   10.474752    8.199522   -2.135391
  42 C     6.0000    0    12.011    7.691185   -2.794905   -0.177634
  43 C     6.0000    0    12.011    7.755436    5.198637   -0.039684
  44 C     6.0000    0    12.011    9.499653    5.157063    1.957756
  45 C     6.0000    0    12.011   11.652051    6.631049    1.848152
  46 C     6.0000    0    12.011   14.397823    9.737759   -0.217319
  47 C     6.0000    0    12.011    8.165507   -0.279679   -0.173855
  48 C     6.0000    0    12.011    5.716422    0.971319    0.028346
  49 C     6.0000    0    12.011    8.290229    6.768999   -2.107045
  50 C     6.0000    0    12.011    5.415955    3.620715    0.024566
  51 N     7.0000    0    14.007   12.118814    8.118263   -0.179524
  52 H     1.0000    0     1.008  -10.402942   10.525775   -2.683411
  53 H     1.0000    0     1.008    4.297237    9.006435    0.153068
  54 H     1.0000    0     1.008   -3.184189    9.603588    3.072695
  55 H     1.0000    0     1.008   -5.903504   13.439732    3.036790
  56 H     1.0000    0     1.008  -11.270327   14.125703    1.736658
  57 H     1.0000    0     1.008   -8.634159   16.000311    0.752111
  58 H     1.0000    0     1.008  -10.705299   14.664275   -1.551465
  59 H     1.0000    0     1.008   -0.627389    9.981533    0.130391
  60 H     1.0000    0     1.008   -7.874489    6.568688   -2.878053
  61 H     1.0000    0     1.008    0.343930    2.025786    0.009449
  62 H     1.0000    0     1.008   -0.345820   -2.040904   -0.039684
  63 H     1.0000    0     1.008  -11.081354   -9.376821    3.581031
  64 H     1.0000    0     1.008   -9.059347    4.293458    0.262672
  65 H     1.0000    0     1.008   -9.070685   -4.081808   -3.768114
  66 H     1.0000    0     1.008  -12.927616   -6.768999   -3.577252
  67 H     1.0000    0     1.008  -15.926612   -8.571798    1.031790
  68 H     1.0000    0     1.008  -15.034661  -10.085468   -1.853821
  69 H     1.0000    0     1.008  -14.089798  -11.408277    1.103600
  70 H     1.0000    0     1.008   -9.990982   -0.650066    0.188973
  71 H     1.0000    0     1.008   -7.143165   -6.804904    3.679297
  72 H     1.0000    0     1.008    6.778448  -12.978639   -3.482765
  73 H     1.0000    0     1.008   -4.301017   -9.021553   -0.094486
  74 H     1.0000    0     1.008    7.018443   -7.037340    3.639613
  75 H     1.0000    0     1.008    9.622485  -10.950963    3.535678
  76 H     1.0000    0     1.008   11.725751  -13.849803   -0.829590
  77 H     1.0000    0     1.008   10.191293  -14.960962    1.969095
  78 H     1.0000    0     1.008    8.993207  -15.822677   -1.065806
  79 H     1.0000    0     1.008    0.621720   -9.996651   -0.015118
  80 H     1.0000    0     1.008    4.055352   -9.150054   -3.666069
  81 H     1.0000    0     1.008   10.975529    9.422175   -3.696304
  82 H     1.0000    0     1.008    9.048009   -4.310465   -0.349599
  83 H     1.0000    0     1.008    9.184069    3.994881    3.613156
  84 H     1.0000    0     1.008   13.041000    6.672623    3.348595
  85 H     1.0000    0     1.008   13.951848   11.544337    0.672743
  86 H     1.0000    0     1.008   15.900156    8.791006    0.822031
  87 H     1.0000    0     1.008   14.968521   10.034446   -2.173185
  88 H     1.0000    0     1.008    9.983423    0.634948   -0.338261
  89 H     1.0000    0     1.008    7.029781    6.863485   -3.717091

--------------------------------
INTERNAL COORDINATES (ANGSTROEM)
--------------------------------
 C      0   0   0     0.000000000000     0.00000000     0.00000000
 C      1   0   0     6.333793886763     0.00000000     0.00000000
 C      1   2   0     2.413537030998    25.23844861     0.00000000
 C      3   1   2     1.403755320560    87.90317217    69.12635927
 C      4   3   1     1.380600231783   120.16158677     0.10664665
 C      5   4   3     2.447897465173   152.51567243     1.70893289
 C      2   1   3     1.368114030335     7.77389434   311.35027382
 C      7   2   4     1.434084376876   108.05010202   249.77338956
 C      2   1   3     1.434123425651   109.17978871    35.58746647
 C      1   2   7     1.381580616540    45.20031502   269.94741684
 N      1   2   7     1.351743318829    81.80654448    60.66739042
 N      9   2   1     1.376127174356   106.58526707   351.09215797
 N     12   9   2     2.925062050624   168.53581413   171.12065651
 N     13  12   9     2.954513327098    91.55032014    11.12112580
 N     14  13  12     2.925371258490    88.43092389   359.84326247
 C      8   7   2     1.404790019896   127.24786865   181.11170171
 C     13  12   9     1.366535034311    81.72106996   188.00453233
 C     14  13  12     5.758810554272    80.56209567   166.76250791
 C     17  13  12     1.459010623676   111.08861209   183.82872609
 C     18  14  13     2.412235892279    27.27532823    36.33507194
 C     20  18  14     1.402692767501    87.95206320   148.94598259
 C     21  20  18     1.382106725257   120.14573887   359.70382047
 C     18  14  13     2.446510985056   144.15733107    82.80075377
 C     19  17  13     1.353610726908   106.29293361   359.75308708
 C     13  12   9     1.366813447402   172.21332906    33.46711076
 C     18  14  13     1.380960173213    15.08449437   309.23336894
 N     22  21  20     1.352773077792   120.73759875     0.27865223
 C     25  13  17     1.410897586645   125.60330303   182.37774668
 C     14  13  12     1.376642291955    80.24689249   177.85461986
 C     14  13  12     5.764089607215   164.51507311   312.20821879
 C     29  14  13     1.435600919476   106.58649366   178.76395472
 C     30  14  13     2.413316804732    27.10625047    82.12560436
 C     32  30  14     1.403734305344    87.90059683   149.76154742
 C     33  32  30     1.380694028378   120.14881443   359.74174632
 C     34  33  32     2.448777858443   152.49203239     2.45173620
 C     31  29  14     1.368160809262   108.16950133     0.70383075
 C     14  13  12     1.376239804685   169.26375223   353.09862627
 C     30  14  13     1.380907310430    14.68948582   353.70041132
 N     34  33  32     1.352658863128   120.85575621     0.19603406
 C     37  14  29     1.404717053360   126.01551127   180.90772073
 C     15  14  13     1.366491126938    81.61824056   183.09049352
 C      2   1   3     4.249062720177   151.07899767   156.35713536
 C     41  15  14     1.459677704153   111.05201287   175.08990246
 C     42   2   1     2.412953791518    41.78584867   210.71804087
 C     44  42   2     1.403446472082    87.95153797   233.97558675
 C     45  44  42     1.381696421071   120.11137308     0.19721020
 C     42   2   1     2.450019795838   135.97209175   121.03288997
 C     43  41  15     1.354461516618   106.26758155     0.30894352
 C     15  14  13     1.367461151185   171.87382904   332.35056460
 C     42   2   1     1.381886391857    32.59078432   259.57332006
 C      9   2   1     1.404988612053   126.98745415   172.09649550
 N     42   2   1     1.352765315936   113.57249190   148.76947916
 H      1   2   7     1.082662458941   150.50018517   192.22823313
 H      2   1   3     1.079907866440   125.12726594   207.77761966
 H      4   3   1     1.083105719678   121.06483213   179.54965162
 H      5   4   3     1.081562295940   122.81481465   179.47530542
 H      6   5   4     1.092617957019   104.44067376   100.03388742
 H      6   5   4     1.089578817709    84.66577674   209.50710415
 H      6   5   4     1.089367706516   133.89161466   322.30866288
 H      7   2  54     1.079807853278   126.66122480     1.30600390
 H     10   1   2     1.083725980126   118.77768745   215.12221034
 H     12   9   2     1.016297692608   125.29023241   180.00180175
 H     14  13  12     1.014936943854    44.97226959   359.42596618
 H     18  14  13     1.082871645210   128.03556573   234.20482432
 H     19  17  13     1.080893611786   126.41830519   178.11313280
 H     21  20  18     1.083569563987   121.05669627   180.67006309
 H     22  21  20     1.082483256222   122.73097286   180.59748951
 H     23  18  14     1.092105306278   103.92715769   234.93429879
 H     23  18  14     1.088871893291   134.19244188    12.25587044
 H     23  18  14     1.089833473518    84.85857450   125.45241208
 H     24  19  17     1.080075460327   127.28078426   178.44613241
 H     26  18  14     1.083408048706   118.76995697   244.94906660
 H     30  14  13     1.082703098730   127.99711412   279.66882698
 H     31  29  14     1.079759695488   125.22293469   180.92530585
 H     33  32  30     1.083188810873   121.01964473   180.74284758
 H     34  33  32     1.082494341787   122.70821597   180.59516895
 H     35  34  33     1.092652735319   105.73575241    97.19771933
 H     35  34  33     1.089462711615    84.05943581   206.43036958
 H     35  34  33     1.089268102902   133.08365142   318.50306270
 H     36  31  29     1.079439669458   126.61599965   178.98859863
 H     38  30  73     1.083742127999   118.77264435   359.90091293
 H     42   2   1     1.082178358682   119.31790784     5.40100962
 H     43  41  15     1.080281907652   126.36969097   182.06329380
 H     45  44  42     1.083277434455   121.10105945   179.58025624
 H     46  45  44     1.082194529648   122.72144639   179.46906377
 H     47  42   2     1.091546151109   106.65128841   315.16475048
 H     47  42   2     1.088818625851   132.46019523    94.52397119
 H     47  42   2     1.089531091801    83.63838232   206.04504406
 H     48  43  41     1.080402239909   127.23657387   181.62955349
 H     50  42   2     1.083186502870   118.77001737    94.71359229

---------------------------
INTERNAL COORDINATES (A.U.)
---------------------------
 C      0   0   0     0.000000000000     0.00000000     0.00000000
 C      1   0   0    11.969135834687     0.00000000     0.00000000
 C      1   2   0     4.560924002664    25.23844861     0.00000000
 C      3   1   2     2.652713114893    87.90317217    69.12635927
 C      4   3   1     2.608956338499   120.16158677     0.10664665
 C      5   4   3     4.625855813097   152.51567243     1.70893289
 C      2   1   3     2.585360837309     7.77389434   311.35027382
 C      7   2   4     2.710026725231   108.05010202   249.77338956
 C      2   1   3     2.710100516721   109.17978871    35.58746647
 C      1   2   7     2.610808997195    45.20031502   269.94741684
 N      1   2   7     2.554424675945    81.80654448    60.66739042
 N      9   2   1     2.600503484979   106.58526707   351.09215797
 N     12   9   2     5.527566200405   168.53581413   171.12065651
 N     13  12   9     5.583221047236    91.55032014    11.12112580
 N     14  13  12     5.528150518591    88.43092389   359.84326247
 C      8   7   2     2.654668413270   127.24786865   181.11170171
 C     13  12   9     2.582376967257    81.72106996   188.00453233
 C     14  13  12    10.882574804710    80.56209567   166.76250791
 C     17  13  12     2.757130505230   111.08861209   183.82872609
 C     18  14  13     4.558465206823    27.27532823    36.33507194
 C     20  18  14     2.650705180609    87.95206320   148.94598259
 C     21  20  18     2.611803198586   120.14573887   359.70382047
 C     18  14  13     4.623235745386   144.15733107    82.80075377
 C     19  17  13     2.557953565794   106.29293361   359.75308708
 C     13  12   9     2.582903091751   172.21332906    33.46711076
 C     18  14  13     2.609636529225    15.08449437   309.23336894
 N     22  21  20     2.556370638369   120.73759875     0.27865223
 C     25  13  17     2.666210041769   125.60330303   182.37774668
 C     14  13  12     2.601476916169    80.24689249   177.85461986
 C     14  13  12    10.892550769017   164.51507311   312.20821879
 C     29  14  13     2.712892575415   106.58649366   178.76395472
 C     30  14  13     4.560507835333    27.10625047    82.12560436
 C     32  30  14     2.652673401891    87.90059683   149.76154742
 C     33  32  30     2.609133588376   120.14881443   359.74174632
 C     34  33  32     4.627519515267   152.49203239     2.45173620
 C     31  29  14     2.585449236669   108.16950133     0.70383075
 C     14  13  12     2.600716325456   169.26375223   353.09862627
 C     30  14  13     2.609536633043    14.68948582   353.70041132
 N     34  33  32     2.556154803934   120.85575621     0.19603406
 C     37  14  29     2.654530526499   126.01551127   180.90772073
 C     15  14  13     2.582293994346    81.61824056   183.09049352
 C      2   1   3     8.029564866989   151.07899767   156.35713536
 C     41  15  14     2.758391104639   111.05201287   175.08990246
 C     42   2   1     4.559821839776    41.78584867   210.71804087
 C     44  42   2     2.652129475853    87.95153797   233.97558675
 C     45  44  42     2.611027836043   120.11137308     0.19721020
 C     42   2   1     4.629866436820   135.97209175   121.03288997
 C     43  41  15     2.559561325344   106.26758155     0.30894352
 C     15  14  13     2.584127074516   171.87382904   332.35056460
 C     42   2   1     2.611386828803    32.59078432   259.57332006
 C      9   2   1     2.655043698059   126.98745415   172.09649550
 N     42   2   1     2.556355970587   113.57249190   148.76947916
 H      1   2   7     2.045935542876   150.50018517   192.22823313
 H      2   1   3     2.040730117440   125.12726594   207.77761966
 H      4   3   1     2.046773184276   121.06483213   179.54965162
 H      5   4   3     2.043856536103   122.81481465   179.47530542
 H      6   5   4     2.064748707770   104.44067376   100.03388742
 H      6   5   4     2.059005566792    84.66577674   209.50710415
 H      6   5   4     2.058606624453   133.89161466   322.30866288
 H      7   2  54     2.040541119952   126.66122480     1.30600390
 H     10   1   2     2.047945306653   118.77768745   215.12221034
 H     12   9   2     1.920524309565   125.29023241   180.00180175
 H     14  13  12     1.917952867083    44.97226959   359.42596618
 H     18  14  13     2.046330847636   128.03556573   234.20482432
 H     19  17  13     2.042592906181   126.41830519   178.11313280
 H     21  20  18     2.047649722989   121.05669627   180.67006309
 H     22  21  20     2.045596898814   122.73097286   180.59748951
 H     23  18  14     2.063779938267   103.92715769   234.93429879
 H     23  18  14     2.057669673245   134.19244188    12.25587044
 H     23  18  14     2.059486796529    84.85857450   125.45241208
 H     24  19  17     2.041046823986   127.28078426   178.44613241
 H     26  18  14     2.047344503340   118.76995697   244.94906660
 H     30  14  13     2.046012340948   127.99711412   279.66882698
 H     31  29  14     2.040450114918   125.22293469   180.92530585
 H     33  32  30     2.046930203877   121.01964473   180.74284758
 H     34  33  32     2.045617847496   122.70821597   180.59516895
 H     35  34  33     2.064814429233   105.73575241    97.19771933
 H     35  34  33     2.058786158072    84.05943581   206.43036958
 H     35  34  33     2.058418400901   133.08365142   318.50306270
 H     36  31  29     2.039845353366   126.61599965   178.98859863
 H     38  30  73     2.047975821711   118.77264435   359.90091293
 H     42   2   1     2.045020725966   119.31790784     5.40100962
 H     43  41  15     2.041436952892   126.36969097   182.06329380
 H     45  44  42     2.047097678177   121.10105945   179.58025624
 H     46  45  44     2.045051284662   122.72144639   179.46906377
 H     47  42   2     2.062723288131   106.65128841   315.16475048
 H     47  42   2     2.057569012371   132.46019523    94.52397119
 H     47  42   2     2.058915377895    83.63838232   206.04504406
 H     48  43  41     2.041664347903   127.23657387   181.62955349
 H     50  42   2     2.046925842384   118.77001737    94.71359229

---------------------
BASIS SET INFORMATION
---------------------
There are 3 groups of distinct atoms

 Group   1 Type C   : 17s4p1d contracted to 3s2p1d pattern {881/31/1}
 Group   2 Type N   : 17s4p1d contracted to 3s2p1d pattern {881/31/1}
 Group   3 Type H   : 4s1p contracted to 2s1p pattern {31/1}

Atom   0C    basis set group =>   1
Atom   1N    basis set group =>   2
Atom   2C    basis set group =>   1
Atom   3N    basis set group =>   2
Atom   4C    basis set group =>   1
Atom   5N    basis set group =>   2
Atom   6C    basis set group =>   1
Atom   7N    basis set group =>   2
Atom   8C    basis set group =>   1
Atom   9N    basis set group =>   2
Atom  10C    basis set group =>   1
Atom  11N    basis set group =>   2
Atom  12C    basis set group =>   1
Atom  13N    basis set group =>   2
Atom  14C    basis set group =>   1
Atom  15N    basis set group =>   2
Atom  16C    basis set group =>   1
Atom  17C    basis set group =>   1
Atom  18C    basis set group =>   1
Atom  19C    basis set group =>   1
Atom  20C    basis set group =>   1
Atom  21C    basis set group =>   1
Atom  22C    basis set group =>   1
Atom  23C    basis set group =>   1
Atom  24C    basis set group =>   1
Atom  25C    basis set group =>   1
Atom  26C    basis set group =>   1
Atom  27C    basis set group =>   1
Atom  28C    basis set group =>   1
Atom  29C    basis set group =>   1
Atom  30C    basis set group =>   1
Atom  31C    basis set group =>   1
Atom  32C    basis set group =>   1
Atom  33C    basis set group =>   1
Atom  34C    basis set group =>   1
Atom  35C    basis set group =>   1
Atom  36C    basis set group =>   1
Atom  37C    basis set group =>   1
Atom  38C    basis set group =>   1
Atom  39C    basis set group =>   1
Atom  40C    basis set group =>   1
Atom  41C    basis set group =>   1
Atom  42C    basis set group =>   1
Atom  43C    basis set group =>   1
Atom  44C    basis set group =>   1
Atom  45C    basis set group =>   1
Atom  46C    basis set group =>   1
Atom  47C    basis set group =>   1
Atom  48C    basis set group =>   1
Atom  49C    basis set group =>   1
Atom  50C    basis set group =>   1
Atom  51C    basis set group =>   1
Atom  52H    basis set group =>   3
Atom  53H    basis set group =>   3
Atom  54H    basis set group =>   3
Atom  55H    basis set group =>   3
Atom  56H    basis set group =>   3
Atom  57H    basis set group =>   3
Atom  58H    basis set group =>   3
Atom  59H    basis set group =>   3
Atom  60H    basis set group =>   3
Atom  61H    basis set group =>   3
Atom  62H    basis set group =>   3
Atom  63H    basis set group =>   3
Atom  64H    basis set group =>   3
Atom  65H    basis set group =>   3
Atom  66H    basis set group =>   3
Atom  67H    basis set group =>   3
Atom  68H    basis set group =>   3
Atom  69H    basis set group =>   3
Atom  70H    basis set group =>   3
Atom  71H    basis set group =>   3
Atom  72H    basis set group =>   3
Atom  73H    basis set group =>   3
Atom  74H    basis set group =>   3
Atom  75H    basis set group =>   3
Atom  76H    basis set group =>   3
Atom  77H    basis set group =>   3
Atom  78H    basis set group =>   3
Atom  79H    basis set group =>   3
Atom  80H    basis set group =>   3
Atom  81H    basis set group =>   3
Atom  82H    basis set group =>   3
Atom  83H    basis set group =>   3
Atom  84H    basis set group =>   3
Atom  85H    basis set group =>   3
Atom  86H    basis set group =>   3
Atom  87H    basis set group =>   3
Atom  88H    basis set group =>   3
Atom  89H    basis set group =>   3


           ************************************************************
           *        Program running with 16 parallel MPI-processes    *
           *              working on a common directory               *
           ************************************************************
------------------------------------------------------------------------------
                           ORCA GTO INTEGRAL CALCULATION
------------------------------------------------------------------------------
------------------------------------------------------------------------------
                   ___                                                        
                  /   \      - P O W E R E D   B Y -                         
                 /     \                                                     
                 |  |  |   _    _      __       _____    __    __             
                 |  |  |  | |  | |    /  \     |  _  \  |  |  /  |          
                  \  \/   | |  | |   /    \    | | | |  |  | /  /          
                 / \  \   | |__| |  /  /\  \   | |_| |  |  |/  /          
                |  |  |   |  __  | /  /__\  \  |    /   |      \           
                |  |  |   | |  | | |   __   |  |    \   |  |\   \          
                \     /   | |  | | |  |  |  |  | |\  \  |  | \   \       
                 \___/    |_|  |_| |__|  |__|  |_| \__\ |__|  \__/        
                                                                              
                      - O R C A' S   B I G   F R I E N D -                    
                                      &                                       
                       - I N T E G R A L  F E E D E R -                       
                                                                              
 v1 FN, 2020, v2 2021                                                         
------------------------------------------------------------------------------


Reading SHARK input file /scratch/allen/tmpyp4_amber_gaff2/conf1/conf1/Conf136.orca.SHARKINP.tmp ... ok
----------------------
SHARK INTEGRAL PACKAGE
----------------------

Number of atoms                             ...     90
Number of basis functions                   ...   1230
Number of shells                            ...    738
Maximum angular momentum                    ...      2
Integral batch strategy                     ... SHARK/LIBINT Hybrid
RI-J (if used) integral strategy            ... SPLIT-RIJ (Revised 2003 algorithm where possible)
Printlevel                                  ...      1
Contraction scheme used                     ... PARTIAL GENERAL contraction
Coulomb Range Separation                    ... NOT USED
Exchange Range Separation                   ... NOT USED
Finite Nucleus Model                        ... NOT USED
Auxiliary Coulomb fitting basis             ... NOT available
Auxiliary J/K fitting basis                 ... NOT available
Auxiliary Correlation fitting basis         ... NOT available
Auxiliary 'external' fitting basis          ... NOT available
Integral threshold                          ...     2.500000e-11
Primitive cut-off                           ...     2.500000e-12
Primitive pair pre-selection threshold      ...     2.500000e-12

Calculating pre-screening integrals         ... done (  0.1 sec) Dimension = 738
Calculating pre-screening integrals (ORCA)  ... done (  0.3 sec) Dimension = 426
Organizing shell pair data                  ... done (  0.5 sec)
Shell pair information
Total number of shell pairs                 ...    272691
Shell pairs after pre-screening             ...     71628
Total number of primitive shell pairs       ...    422091
Primitive shell pairs kept                  ...     92408
          la=0 lb=0:  29422 shell pairs
          la=1 lb=0:  25974 shell pairs
          la=1 lb=1:   4706 shell pairs
          la=2 lb=0:   7874 shell pairs
          la=2 lb=1:   3122 shell pairs
          la=2 lb=2:    530 shell pairs

Calculating one electron integrals          ... done (  0.2 sec)
Calculating Nuclear repulsion               ... done (  0.0 sec) ENN=   6227.540269316424 Eh

SHARK setup successfully completed in   1.7 seconds

Maximum memory used throughout the entire GTOINT-calculation: 99.0 MB


           ************************************************************
           *        Program running with 16 parallel MPI-processes    *
           *              working on a common directory               *
           ************************************************************
-------------------------------------------------------------------------------
                                 ORCA SCF
-------------------------------------------------------------------------------

------------
SCF SETTINGS
------------
Hamiltonian:
 Ab initio Hamiltonian  Method          .... Hartree-Fock(GTOs)


General Settings:
 Integral files         IntName         .... /scratch/allen/tmpyp4_amber_gaff2/conf1/conf1/Conf136.orca
 Hartree-Fock type      HFTyp           .... RHF
 Total Charge           Charge          ....    0
 Multiplicity           Mult            ....    1
 Number of Electrons    NEL             ....  358
 Basis Dimension        Dim             ....  918
 Nuclear Repulsion      ENuc            ....   6227.5402693164 Eh

Convergence Acceleration:
 DIIS                   CNVDIIS         .... on
   Start iteration      DIISMaxIt       ....    12
   Startup error        DIISStart       ....  0.200000
   # of expansion vecs  DIISMaxEq       ....     5
   Bias factor          DIISBfac        ....   1.050
   Max. coefficient     DIISMaxC        ....  10.000
 Trust-Rad. Augm. Hess. CNVTRAH         .... auto
   Auto Start mean grad. ratio tolernc. ....  1.125000
   Auto Start start iteration           ....    20
   Auto Start num. interpolation iter.  ....    10
   Max. Number of Micro iterations      ....    16
   Max. Number of Macro iterations      .... Maxiter - #DIIS iter
   Number of Davidson start vectors     ....     2
   Converg. threshold I  (grad. norm)   ....   1.000e-05
   Converg. threshold II (energy diff.) ....   1.000e-08
   Grad. Scal. Fac. for Micro threshold ....   0.100
   Minimum threshold for Micro iter.    ....   0.010
   NR start threshold (gradient norm)   ....   0.001
   Initial trust radius                 ....   0.400
   Minimum AH scaling param. (alpha)    ....   1.000
   Maximum AH scaling param. (alpha)    .... 1000.000
   Orbital update algorithm             .... Taylor
   White noise on init. David. guess    .... on
   Maximum white noise                  ....   0.010
   Quad. conv. algorithm                .... NR
 SOSCF                  CNVSOSCF        .... on
   Start iteration      SOSCFMaxIt      ....   150
   Startup grad/error   SOSCFStart      ....  0.003300
 Level Shifting         CNVShift        .... on
   Level shift para.    LevelShift      ....    0.2500
   Turn off err/grad.   ShiftErr        ....    0.0010
 Zerner damping         CNVZerner       .... off
 Static damping         CNVDamp         .... on
   Fraction old density DampFac         ....    0.7000
   Max. Damping (<1)    DampMax         ....    0.9800
   Min. Damping (>=0)   DampMin         ....    0.0000
   Turn off err/grad.   DampErr         ....    0.1000
 Fernandez-Rico         CNVRico         .... off

SCF Procedure:
 Maximum # iterations   MaxIter         ....   125
 SCF integral mode      SCFMode         .... Direct
   Integral package                     .... SHARK and LIBINT hybrid scheme
 Reset frequency        DirectResetFreq ....    20
 Integral Threshold     Thresh          ....  2.500e-11 Eh
 Primitive CutOff       TCut            ....  2.500e-12 Eh

Convergence Tolerance:
 Convergence Check Mode ConvCheckMode   .... Total+1el-Energy
 Convergence forced     ConvForced      .... 1
 Energy Change          TolE            ....  1.000e-08 Eh
 1-El. energy change                    ....  1.000e-05 Eh
 Orbital Gradient       TolG            ....  1.000e-05
 Orbital Rotation angle TolX            ....  1.000e-05
 DIIS Error             TolErr          ....  5.000e-07


Diagonalization of the overlap matrix:
Smallest eigenvalue                        ... 2.242e-04
Time for diagonalization                   ...    0.407 sec
Threshold for overlap eigenvalues          ... 1.000e-08
Number of eigenvalues below threshold      ... 0
Time for construction of square roots      ...    0.193 sec
Total time needed                          ...    0.605 sec

Time for model grid setup =    1.006 sec

------------------------------
INITIAL GUESS: MODEL POTENTIAL
------------------------------
Loading Hartree-Fock densities                     ... done
Calculating cut-offs                               ... done
Initializing the effective Hamiltonian             ... done
Setting up the integral package (SHARK)            ... done
Starting the Coulomb interaction                   ... done (   1.1 sec)
Reading the grid                                   ... done
Mapping shells                                     ... done
Starting the XC term evaluation                    ... done (   0.2 sec)
Transforming the Hamiltonian                       ... done (   0.2 sec)
Diagonalizing the Hamiltonian                      ... done (   0.3 sec)
Back transforming the eigenvectors                 ... done (   0.1 sec)
Now organizing SCF variables                       ... done
                      ------------------
                      INITIAL GUESS DONE (   2.9 sec)
                      ------------------
--------------
SCF ITERATIONS
--------------
ITER       Energy         Delta-E        Max-DP      RMS-DP      [F,P]     Damp
               ***  Starting incremental Fock matrix formation  ***
  0  -2121.6919618923   0.000000000000 0.06873993  0.00120720  0.2325669 0.7000
  1  -2122.3520281882  -0.660066295903 0.05211524  0.00098043  0.1439790 0.7000
                               ***Turning on DIIS***
  2  -2122.7620661305  -0.410037942318 0.11841730  0.00222432  0.0802392 0.0000
  3  -2117.8411626972   4.920903433314 0.03015575  0.00067276  0.0440982 0.0000
  4  -2123.4308390199  -5.589676322657 0.00888780  0.00022599  0.0072658 0.0000
  5  -2123.5994777629  -0.168638743056 0.00513635  0.00013314  0.0049930 0.0000
  6  -2123.5823030442   0.017174718729 0.00348014  0.00008586  0.0019491 0.0000
  7  -2123.6836656734  -0.101362629199 0.00295129  0.00006744  0.0015370 0.0000
  8  -2123.6975306292  -0.013864955790 0.00308071  0.00006313  0.0014277 0.0000
  9  -2123.6646745046   0.032856124591 0.00247259  0.00004345  0.0011324 0.0000
 10  -2123.6758074423  -0.011132937701 0.00504701  0.00008746  0.0008686 0.0000
                      *** Initiating the SOSCF procedure ***
                           *** Shutting down DIIS ***
                      *** Re-Reading the Fockian *** 
                      *** Removing any level shift *** 
ITER      Energy       Delta-E        Grad      Rot      Max-DP    RMS-DP
 11  -2123.56449501   0.1113124311  0.000237  0.000237  0.000260  0.000006
               *** Restarting incremental Fock matrix formation ***
 12  -2123.62919509  -0.0647000806  0.000852  0.005733  0.001229  0.000030
 13  -2123.62927538  -0.0000802929  0.000983  0.026861  0.005873  0.000115
 14  -2123.62940407  -0.0001286896  0.000415  0.001891  0.000532  0.000012
 15  -2123.62941927  -0.0000151990  0.000180  0.003884  0.000951  0.000018
 16  -2123.62942912  -0.0000098428  0.000160  0.004231  0.000698  0.000014
 17  -2123.62943323  -0.0000041092  0.000137  0.002861  0.000378  0.000009
 18  -2123.62943535  -0.0000021219  0.000076  0.001257  0.000305  0.000005
 19  -2123.62943634  -0.0000009917  0.000054  0.000508  0.000158  0.000003
 20  -2123.62943663  -0.0000002915  0.000026  0.000482  0.000112  0.000002
 21  -2123.62943678  -0.0000001525  0.000024  0.000239  0.000074  0.000001
 22  -2123.62943686  -0.0000000812  0.000014  0.000316  0.000095  0.000002
 23  -2123.62943692  -0.0000000526  0.000009  0.000123  0.000042  0.000001
 24  -2123.62943694  -0.0000000192  0.000004  0.000083  0.000025  0.000000
 25  -2123.62943695  -0.0000000105  0.000003  0.000053  0.000015  0.000000
                  ***Gradient check signals convergence***
              ***Rediagonalizing the Fockian in SOSCF/NRSCF***

               *****************************************************
               *                     SUCCESS                       *
               *           SCF CONVERGED AFTER  26 CYCLES          *
               *****************************************************


----------------
TOTAL SCF ENERGY
----------------

Total Energy       :        -2123.62943695 Eh          -57786.89481 eV

Components:
Nuclear Repulsion  :         6227.54026932 Eh          169459.98591 eV
Electronic Energy  :        -8351.16970627 Eh         -227246.88072 eV
One Electron Energy:       -15296.05425529 Eh         -416226.79685 eV
Two Electron Energy:         6944.88454902 Eh          188979.91613 eV

Virial components:
Potential Energy   :        -4245.66804168 Eh         -115530.50087 eV
Kinetic Energy     :         2122.03860472 Eh           57743.60606 eV
Virial Ratio       :            2.00074967


---------------
SCF CONVERGENCE
---------------

  Last Energy change         ...   -6.6484e-09  Tolerance :   1.0000e-08
  Last MAX-Density change    ...    1.2017e-05  Tolerance :   1.0000e-07
  Last RMS-Density change    ...    2.3541e-07  Tolerance :   5.0000e-09
  Last Orbital Gradient      ...    1.9023e-06  Tolerance :   1.0000e-05
  Last Orbital Rotation      ...    6.1057e-05  Tolerance :   1.0000e-05

             **** THE GBW FILE WAS UPDATED (/scratch/allen/tmpyp4_amber_gaff2/conf1/conf1/Conf136.orca.gbw) ****
             **** DENSITY /scratch/allen/tmpyp4_amber_gaff2/conf1/conf1/Conf136.orca.scfp WAS UPDATED ****
             **** ENERGY FILE WAS UPDATED (/scratch/allen/tmpyp4_amber_gaff2/conf1/conf1/Conf136.orca.en.tmp) ****
             **** THE GBW FILE WAS UPDATED (/scratch/allen/tmpyp4_amber_gaff2/conf1/conf1/Conf136.orca.gbw) ****
             **** DENSITY /scratch/allen/tmpyp4_amber_gaff2/conf1/conf1/Conf136.orca.scfp WAS UPDATED ****
----------------
ORBITAL ENERGIES
----------------

  NO   OCC          E(Eh)            E(eV) 
   0   2.0000     -15.659787      -426.1245 
   1   2.0000     -15.638882      -425.5556 
   2   2.0000     -15.628412      -425.2707 
   3   2.0000     -15.601634      -424.5421 
   4   2.0000     -15.523015      -422.4027 
   5   2.0000     -15.515766      -422.2054 
   6   2.0000     -15.448761      -420.3822 
   7   2.0000     -15.443603      -420.2418 
   8   2.0000     -11.315545      -307.9116 
   9   2.0000     -11.313286      -307.8502 
  10   2.0000     -11.310861      -307.7842 
  11   2.0000     -11.302329      -307.5520 
  12   2.0000     -11.296024      -307.3805 
  13   2.0000     -11.295895      -307.3769 
  14   2.0000     -11.292105      -307.2738 
  15   2.0000     -11.287060      -307.1365 
  16   2.0000     -11.284366      -307.0632 
  17   2.0000     -11.280231      -306.9507 
  18   2.0000     -11.264940      -306.5346 
  19   2.0000     -11.264867      -306.5326 
  20   2.0000     -11.263193      -306.4871 
  21   2.0000     -11.249235      -306.1072 
  22   2.0000     -11.248325      -306.0825 
  23   2.0000     -11.242390      -305.9210 
  24   2.0000     -11.234621      -305.7096 
  25   2.0000     -11.234041      -305.6938 
  26   2.0000     -11.233050      -305.6668 
  27   2.0000     -11.226881      -305.4990 
  28   2.0000     -11.226658      -305.4929 
  29   2.0000     -11.211290      -305.0747 
  30   2.0000     -11.207015      -304.9584 
  31   2.0000     -11.206582      -304.9466 
  32   2.0000     -11.205913      -304.9284 
  33   2.0000     -11.205788      -304.9250 
  34   2.0000     -11.190947      -304.5212 
  35   2.0000     -11.190518      -304.5095 
  36   2.0000     -11.182255      -304.2846 
  37   2.0000     -11.179197      -304.2014 
  38   2.0000     -11.178631      -304.1860 
  39   2.0000     -11.174083      -304.0623 
  40   2.0000     -11.168073      -303.8987 
  41   2.0000     -11.167707      -303.8888 
  42   2.0000     -11.165323      -303.8239 
  43   2.0000     -11.165138      -303.8189 
  44   2.0000     -11.164240      -303.7944 
  45   2.0000     -11.161799      -303.7280 
  46   2.0000     -11.151939      -303.4597 
  47   2.0000     -11.149497      -303.3932 
  48   2.0000     -11.148157      -303.3568 
  49   2.0000     -11.145375      -303.2811 
  50   2.0000     -11.137376      -303.0634 
  51   2.0000     -11.132206      -302.9227 
  52   2.0000      -1.343331       -36.5539 
  53   2.0000      -1.325423       -36.0666 
  54   2.0000      -1.316517       -35.8243 
  55   2.0000      -1.294572       -35.2271 
  56   2.0000      -1.222924       -33.2774 
  57   2.0000      -1.210996       -32.9529 
  58   2.0000      -1.166363       -31.7383 
  59   2.0000      -1.155283       -31.4368 
  60   2.0000      -1.129189       -30.7268 
  61   2.0000      -1.113622       -30.3032 
  62   2.0000      -1.106072       -30.0977 
  63   2.0000      -1.088467       -29.6187 
  64   2.0000      -1.066219       -29.0133 
  65   2.0000      -1.049365       -28.5547 
  66   2.0000      -1.041235       -28.3335 
  67   2.0000      -1.032243       -28.0888 
  68   2.0000      -1.021669       -27.8010 
  69   2.0000      -1.013494       -27.5786 
  70   2.0000      -1.009332       -27.4653 
  71   2.0000      -0.993254       -27.0278 
  72   2.0000      -0.987051       -26.8590 
  73   2.0000      -0.975578       -26.5468 
  74   2.0000      -0.972996       -26.4766 
  75   2.0000      -0.958831       -26.0911 
  76   2.0000      -0.950778       -25.8720 
  77   2.0000      -0.947339       -25.7784 
  78   2.0000      -0.937090       -25.4995 
  79   2.0000      -0.921836       -25.0844 
  80   2.0000      -0.898073       -24.4378 
  81   2.0000      -0.889026       -24.1916 
  82   2.0000      -0.876279       -23.8448 
  83   2.0000      -0.869433       -23.6585 
  84   2.0000      -0.864120       -23.5139 
  85   2.0000      -0.854752       -23.2590 
  86   2.0000      -0.845843       -23.0166 
  87   2.0000      -0.839253       -22.8372 
  88   2.0000      -0.822055       -22.3693 
  89   2.0000      -0.798747       -21.7350 
  90   2.0000      -0.795360       -21.6428 
  91   2.0000      -0.743213       -20.2239 
  92   2.0000      -0.736311       -20.0360 
  93   2.0000      -0.731492       -19.9049 
  94   2.0000      -0.723027       -19.6746 
  95   2.0000      -0.719513       -19.5789 
  96   2.0000      -0.713343       -19.4110 
  97   2.0000      -0.705320       -19.1927 
  98   2.0000      -0.701428       -19.0868 
  99   2.0000      -0.695995       -18.9390 
 100   2.0000      -0.692647       -18.8479 
 101   2.0000      -0.681590       -18.5470 
 102   2.0000      -0.678867       -18.4729 
 103   2.0000      -0.674191       -18.3457 
 104   2.0000      -0.671267       -18.2661 
 105   2.0000      -0.670562       -18.2469 
 106   2.0000      -0.663990       -18.0681 
 107   2.0000      -0.662407       -18.0250 
 108   2.0000      -0.656911       -17.8755 
 109   2.0000      -0.654365       -17.8062 
 110   2.0000      -0.650284       -17.6951 
 111   2.0000      -0.647430       -17.6175 
 112   2.0000      -0.643445       -17.5090 
 113   2.0000      -0.636753       -17.3269 
 114   2.0000      -0.631713       -17.1898 
 115   2.0000      -0.631526       -17.1847 
 116   2.0000      -0.623223       -16.9588 
 117   2.0000      -0.616149       -16.7663 
 118   2.0000      -0.613540       -16.6953 
 119   2.0000      -0.611722       -16.6458 
 120   2.0000      -0.608556       -16.5596 
 121   2.0000      -0.601753       -16.3745 
 122   2.0000      -0.598469       -16.2852 
 123   2.0000      -0.590122       -16.0580 
 124   2.0000      -0.589110       -16.0305 
 125   2.0000      -0.584579       -15.9072 
 126   2.0000      -0.578314       -15.7367 
 127   2.0000      -0.576623       -15.6907 
 128   2.0000      -0.563311       -15.3285 
 129   2.0000      -0.558553       -15.1990 
 130   2.0000      -0.554114       -15.0782 
 131   2.0000      -0.549551       -14.9541 
 132   2.0000      -0.542225       -14.7547 
 133   2.0000      -0.538331       -14.6487 
 134   2.0000      -0.534181       -14.5358 
 135   2.0000      -0.532593       -14.4926 
 136   2.0000      -0.525160       -14.2903 
 137   2.0000      -0.523673       -14.2499 
 138   2.0000      -0.517686       -14.0870 
 139   2.0000      -0.516592       -14.0572 
 140   2.0000      -0.509772       -13.8716 
 141   2.0000      -0.509103       -13.8534 
 142   2.0000      -0.508361       -13.8332 
 143   2.0000      -0.501948       -13.6587 
 144   2.0000      -0.500521       -13.6199 
 145   2.0000      -0.497391       -13.5347 
 146   2.0000      -0.493996       -13.4423 
 147   2.0000      -0.487285       -13.2597 
 148   2.0000      -0.486684       -13.2433 
 149   2.0000      -0.469156       -12.7664 
 150   2.0000      -0.463134       -12.6025 
 151   2.0000      -0.455138       -12.3849 
 152   2.0000      -0.448187       -12.1958 
 153   2.0000      -0.446958       -12.1623 
 154   2.0000      -0.445936       -12.1345 
 155   2.0000      -0.440045       -11.9742 
 156   2.0000      -0.433543       -11.7973 
 157   2.0000      -0.429095       -11.6763 
 158   2.0000      -0.398401       -10.8411 
 159   2.0000      -0.384944       -10.4749 
 160   2.0000      -0.379140       -10.3169 
 161   2.0000      -0.374200       -10.1825 
 162   2.0000      -0.370854       -10.0915 
 163   2.0000      -0.359849        -9.7920 
 164   2.0000      -0.353110        -9.6086 
 165   2.0000      -0.337432        -9.1820 
 166   2.0000      -0.336255        -9.1500 
 167   2.0000      -0.334712        -9.1080 
 168   2.0000      -0.328569        -8.9408 
 169   2.0000      -0.301369        -8.2007 
 170   2.0000      -0.299799        -8.1579 
 171   2.0000      -0.287369        -7.8197 
 172   2.0000      -0.285115        -7.7584 
 173   2.0000      -0.258542        -7.0353 
 174   2.0000      -0.246214        -6.6998 
 175   2.0000      -0.189200        -5.1484 
 176   2.0000      -0.179336        -4.8800 
 177   2.0000      -0.070863        -1.9283 
 178   2.0000      -0.056679        -1.5423 
 179   0.0000       0.029412         0.8003 
 180   0.0000       0.068563         1.8657 
 181   0.0000       0.092502         2.5171 
 182   0.0000       0.103506         2.8165 
 183   0.0000       0.119649         3.2558 
 184   0.0000       0.134009         3.6466 
 185   0.0000       0.141713         3.8562 
 186   0.0000       0.151386         4.1194 
 187   0.0000       0.160297         4.3619 
 188   0.0000       0.162447         4.4204 
 189   0.0000       0.163390         4.4461 
 190   0.0000       0.167750         4.5647 
 191   0.0000       0.180868         4.9217 
 192   0.0000       0.190973         5.1966 
 193   0.0000       0.194390         5.2896 
 194   0.0000       0.202208         5.5024 
 195   0.0000       0.205696         5.5973 
 196   0.0000       0.207840         5.6556 
 197   0.0000       0.210856         5.7377 
 198   0.0000       0.220706         6.0057 
 199   0.0000       0.225492         6.1359 
 200   0.0000       0.226312         6.1583 
 201   0.0000       0.237066         6.4509 
 202   0.0000       0.241725         6.5777 
 203   0.0000       0.243917         6.6373 
 204   0.0000       0.252334         6.8664 
 205   0.0000       0.253916         6.9094 
 206   0.0000       0.255159         6.9432 
 207   0.0000       0.259940         7.0733 
 208   0.0000       0.262300         7.1375 
 209   0.0000       0.262666         7.1475 
 210   0.0000       0.266224         7.2443 
 211   0.0000       0.270446         7.3592 
 212   0.0000       0.271272         7.3817 
 213   0.0000       0.273718         7.4482 
 214   0.0000       0.275978         7.5097 
 215   0.0000       0.278735         7.5848 
 216   0.0000       0.280558         7.6344 
 217   0.0000       0.281540         7.6611 
 218   0.0000       0.283254         7.7077 
 219   0.0000       0.289045         7.8653 
 220   0.0000       0.289739         7.8842 
 221   0.0000       0.293199         7.9783 
 222   0.0000       0.293764         7.9937 
 223   0.0000       0.296794         8.0762 
 224   0.0000       0.297911         8.1066 
 225   0.0000       0.300048         8.1647 
 226   0.0000       0.306528         8.3410 
 227   0.0000       0.308060         8.3827 
 228   0.0000       0.310097         8.4382 
 229   0.0000       0.315921         8.5967 
 230   0.0000       0.318526         8.6675 
 231   0.0000       0.324343         8.8258 
 232   0.0000       0.325571         8.8592 
 233   0.0000       0.330402         8.9907 
 234   0.0000       0.336239         9.1495 
 235   0.0000       0.343191         9.3387 
 236   0.0000       0.355150         9.6641 
 237   0.0000       0.382497        10.4083 
 238   0.0000       0.394966        10.7476 
 239   0.0000       0.398408        10.8412 
 240   0.0000       0.403097        10.9688 
 241   0.0000       0.415668        11.3109 
 242   0.0000       0.417894        11.3715 
 243   0.0000       0.423809        11.5324 
 244   0.0000       0.426529        11.6065 
 245   0.0000       0.432358        11.7650 
 246   0.0000       0.434435        11.8216 
 247   0.0000       0.438387        11.9291 
 248   0.0000       0.441647        12.0178 
 249   0.0000       0.443949        12.0805 
 250   0.0000       0.451221        12.2783 
 251   0.0000       0.458198        12.4682 
 252   0.0000       0.461011        12.5447 
 253   0.0000       0.462766        12.5925 
 254   0.0000       0.469745        12.7824 
 255   0.0000       0.474475        12.9111 
 256   0.0000       0.482753        13.1364 
 257   0.0000       0.483678        13.1615 
 258   0.0000       0.490302        13.3418 
 259   0.0000       0.497975        13.5506 
 260   0.0000       0.501477        13.6459 
 261   0.0000       0.503731        13.7072 
 262   0.0000       0.507445        13.8083 
 263   0.0000       0.509034        13.8515 
 264   0.0000       0.512906        13.9569 
 265   0.0000       0.516500        14.0547 
 266   0.0000       0.519186        14.1278 
 267   0.0000       0.523766        14.2524 
 268   0.0000       0.535320        14.5668 
 269   0.0000       0.537576        14.6282 
 270   0.0000       0.540764        14.7149 
 271   0.0000       0.545577        14.8459 
 272   0.0000       0.547503        14.8983 
 273   0.0000       0.554618        15.0919 
 274   0.0000       0.559648        15.2288 
 275   0.0000       0.564218        15.3531 
 276   0.0000       0.571882        15.5617 
 277   0.0000       0.576123        15.6771 
 278   0.0000       0.580125        15.7860 
 279   0.0000       0.584389        15.9020 
 280   0.0000       0.586736        15.9659 
 281   0.0000       0.590609        16.0713 
 282   0.0000       0.592529        16.1235 
 283   0.0000       0.596869        16.2416 
 284   0.0000       0.598596        16.2886 
 285   0.0000       0.599294        16.3076 
 286   0.0000       0.607980        16.5440 
 287   0.0000       0.611761        16.6469 
 288   0.0000       0.615907        16.7597 
 289   0.0000       0.616553        16.7773 
 290   0.0000       0.626595        17.0505 
 291   0.0000       0.627717        17.0811 
 292   0.0000       0.634584        17.2679 
 293   0.0000       0.636142        17.3103 
 294   0.0000       0.646000        17.5786 
 295   0.0000       0.650241        17.6940 
 296   0.0000       0.654543        17.8110 
 297   0.0000       0.657902        17.9024 
 298   0.0000       0.664569        18.0838 
 299   0.0000       0.666688        18.1415 
 300   0.0000       0.669112        18.2075 
 301   0.0000       0.671697        18.2778 
 302   0.0000       0.678929        18.4746 
 303   0.0000       0.682050        18.5595 
 304   0.0000       0.683535        18.5999 
 305   0.0000       0.686573        18.6826 
 306   0.0000       0.690939        18.8014 
 307   0.0000       0.692928        18.8555 
 308   0.0000       0.695401        18.9228 
 309   0.0000       0.697091        18.9688 
 310   0.0000       0.700625        19.0650 
 311   0.0000       0.704067        19.1586 
 312   0.0000       0.705966        19.2103 
 313   0.0000       0.709742        19.3131 
 314   0.0000       0.711530        19.3617 
 315   0.0000       0.713569        19.4172 
 316   0.0000       0.716899        19.5078 
 317   0.0000       0.717733        19.5305 
 318   0.0000       0.720867        19.6158 
 319   0.0000       0.725700        19.7473 
 320   0.0000       0.726747        19.7758 
 321   0.0000       0.729044        19.8383 
 322   0.0000       0.734623        19.9901 
 323   0.0000       0.736531        20.0420 
 324   0.0000       0.739582        20.1250 
 325   0.0000       0.740659        20.1544 
 326   0.0000       0.740838        20.1592 
 327   0.0000       0.743817        20.2403 
 328   0.0000       0.747264        20.3341 
 329   0.0000       0.750764        20.4293 
 330   0.0000       0.752401        20.4739 
 331   0.0000       0.754631        20.5345 
 332   0.0000       0.758574        20.6418 
 333   0.0000       0.762907        20.7598 
 334   0.0000       0.769065        20.9273 
 335   0.0000       0.774707        21.0809 
 336   0.0000       0.777716        21.1627 
 337   0.0000       0.779649        21.2153 
 338   0.0000       0.786121        21.3914 
 339   0.0000       0.790433        21.5088 
 340   0.0000       0.791496        21.5377 
 341   0.0000       0.791879        21.5481 
 342   0.0000       0.795358        21.6428 
 343   0.0000       0.800109        21.7721 
 344   0.0000       0.804734        21.8979 
 345   0.0000       0.806483        21.9455 
 346   0.0000       0.807595        21.9758 
 347   0.0000       0.809174        22.0187 
 348   0.0000       0.815135        22.1810 
 349   0.0000       0.816843        22.2274 
 350   0.0000       0.821240        22.3471 
 351   0.0000       0.823718        22.4145 
 352   0.0000       0.825213        22.4552 
 353   0.0000       0.827496        22.5173 
 354   0.0000       0.830077        22.5876 
 355   0.0000       0.832609        22.6564 
 356   0.0000       0.833906        22.6917 
 357   0.0000       0.834332        22.7033 
 358   0.0000       0.836744        22.7690 
 359   0.0000       0.838741        22.8233 
 360   0.0000       0.841713        22.9042 
 361   0.0000       0.842464        22.9246 
 362   0.0000       0.843710        22.9585 
 363   0.0000       0.844110        22.9694 
 364   0.0000       0.849407        23.1136 
 365   0.0000       0.851442        23.1689 
 366   0.0000       0.854193        23.2438 
 367   0.0000       0.855436        23.2776 
 368   0.0000       0.862075        23.4583 
 369   0.0000       0.863622        23.5003 
 370   0.0000       0.864964        23.5369 
 371   0.0000       0.871730        23.7210 
 372   0.0000       0.875201        23.8154 
 373   0.0000       0.877466        23.8771 
 374   0.0000       0.879006        23.9190 
 375   0.0000       0.883034        24.0286 
 376   0.0000       0.885029        24.0829 
 377   0.0000       0.889970        24.2173 
 378   0.0000       0.891647        24.2630 
 379   0.0000       0.893548        24.3147 
 380   0.0000       0.898203        24.4414 
 381   0.0000       0.898537        24.4504 
 382   0.0000       0.902255        24.5516 
 383   0.0000       0.903471        24.5847 
 384   0.0000       0.903838        24.5947 
 385   0.0000       0.905358        24.6360 
 386   0.0000       0.907885        24.7048 
 387   0.0000       0.910082        24.7646 
 388   0.0000       0.910925        24.7875 
 389   0.0000       0.914092        24.8737 
 390   0.0000       0.918052        24.9815 
 391   0.0000       0.922484        25.1021 
 392   0.0000       0.923560        25.1313 
 393   0.0000       0.924438        25.1552 
 394   0.0000       0.927111        25.2280 
 395   0.0000       0.930029        25.3074 
 396   0.0000       0.932688        25.3797 
 397   0.0000       0.934071        25.4174 
 398   0.0000       0.939984        25.5783 
 399   0.0000       0.941665        25.6240 
 400   0.0000       0.943190        25.6655 
 401   0.0000       0.949082        25.8258 
 402   0.0000       0.949858        25.8470 
 403   0.0000       0.956339        26.0233 
 404   0.0000       0.957206        26.0469 
 405   0.0000       0.959038        26.0968 
 406   0.0000       0.959762        26.1164 
 407   0.0000       0.963825        26.2270 
 408   0.0000       0.969055        26.3693 
 409   0.0000       0.972447        26.4616 
 410   0.0000       0.976903        26.5829 
 411   0.0000       0.981087        26.6967 
 412   0.0000       0.983530        26.7632 
 413   0.0000       0.985883        26.8272 
 414   0.0000       0.988240        26.8914 
 415   0.0000       0.995441        27.0873 
 416   0.0000       1.001917        27.2635 
 417   0.0000       1.002853        27.2890 
 418   0.0000       1.005614        27.3641 
 419   0.0000       1.016149        27.6508 
 420   0.0000       1.021857        27.8061 
 421   0.0000       1.028149        27.9773 
 422   0.0000       1.031916        28.0799 
 423   0.0000       1.041094        28.3296 
 424   0.0000       1.044512        28.4226 
 425   0.0000       1.051341        28.6084 
 426   0.0000       1.056887        28.7594 
 427   0.0000       1.061901        28.8958 
 428   0.0000       1.063935        28.9512 
 429   0.0000       1.070626        29.1332 
 430   0.0000       1.076978        29.3061 
 431   0.0000       1.082843        29.4656 
 432   0.0000       1.084208        29.5028 
 433   0.0000       1.088823        29.6284 
 434   0.0000       1.099587        29.9213 
 435   0.0000       1.103912        30.0390 
 436   0.0000       1.106664        30.1138 
 437   0.0000       1.109475        30.1904 
 438   0.0000       1.115066        30.3425 
 439   0.0000       1.116207        30.3735 
 440   0.0000       1.121979        30.5306 
 441   0.0000       1.123942        30.5840 
 442   0.0000       1.127086        30.6696 
 443   0.0000       1.129104        30.7245 
 444   0.0000       1.132299        30.8114 
 445   0.0000       1.133349        30.8400 
 446   0.0000       1.136635        30.9294 
 447   0.0000       1.142039        31.0765 
 448   0.0000       1.145264        31.1642 
 449   0.0000       1.148161        31.2431 
 450   0.0000       1.150860        31.3165 
 451   0.0000       1.152269        31.3548 
 452   0.0000       1.156834        31.4791 
 453   0.0000       1.157493        31.4970 
 454   0.0000       1.161393        31.6031 
 455   0.0000       1.169830        31.8327 
 456   0.0000       1.172419        31.9031 
 457   0.0000       1.177204        32.0333 
 458   0.0000       1.179731        32.1021 
 459   0.0000       1.186237        32.2791 
 460   0.0000       1.187644        32.3174 
 461   0.0000       1.193609        32.4798 
 462   0.0000       1.200987        32.6805 
 463   0.0000       1.202902        32.7326 
 464   0.0000       1.206609        32.8335 
 465   0.0000       1.208594        32.8875 
 466   0.0000       1.213215        33.0133 
 467   0.0000       1.214629        33.0517 
 468   0.0000       1.221804        33.2470 
 469   0.0000       1.228077        33.4177 
 470   0.0000       1.229560        33.4580 
 471   0.0000       1.232309        33.5328 
 472   0.0000       1.234924        33.6040 
 473   0.0000       1.236188        33.6384 
 474   0.0000       1.242075        33.7986 
 475   0.0000       1.246917        33.9304 
 476   0.0000       1.251950        34.0673 
 477   0.0000       1.252339        34.0779 
 478   0.0000       1.253533        34.1104 
 479   0.0000       1.255389        34.1609 
 480   0.0000       1.259633        34.2764 
 481   0.0000       1.264628        34.4123 
 482   0.0000       1.269782        34.5525 
 483   0.0000       1.272429        34.6246 
 484   0.0000       1.273036        34.6411 
 485   0.0000       1.276503        34.7354 
 486   0.0000       1.279320        34.8121 
 487   0.0000       1.283070        34.9141 
 488   0.0000       1.287562        35.0363 
 489   0.0000       1.290800        35.1245 
 490   0.0000       1.294533        35.2260 
 491   0.0000       1.297843        35.3161 
 492   0.0000       1.299940        35.3732 
 493   0.0000       1.305409        35.5220 
 494   0.0000       1.310768        35.6678 
 495   0.0000       1.314809        35.7778 
 496   0.0000       1.316182        35.8151 
 497   0.0000       1.324023        36.0285 
 498   0.0000       1.324734        36.0478 
 499   0.0000       1.329188        36.1691 
 500   0.0000       1.333746        36.2931 
 501   0.0000       1.336161        36.3588 
 502   0.0000       1.340610        36.4798 
 503   0.0000       1.348468        36.6937 
 504   0.0000       1.350214        36.7412 
 505   0.0000       1.350890        36.7596 
 506   0.0000       1.352665        36.8079 
 507   0.0000       1.359090        36.9827 
 508   0.0000       1.362635        37.0792 
 509   0.0000       1.363735        37.1091 
 510   0.0000       1.365707        37.1628 
 511   0.0000       1.368207        37.2308 
 512   0.0000       1.371806        37.3287 
[...]
      pz      :     0.022044  p :     0.079681
      px      :     0.043465
      py      :     0.014172
 77 H s       :     0.886789  s :     0.886789
      pz      :     0.047809  p :     0.079093
      px      :     0.015017
      py      :     0.016267
 78 H s       :     0.887212  s :     0.887212
      pz      :     0.025793  p :     0.079039
      px      :     0.020504
      py      :     0.032742
 79 H s       :     0.909659  s :     0.909659
      pz      :     0.021952  p :     0.086530
      px      :     0.021714
      py      :     0.042864
 80 H s       :     0.867660  s :     0.867660
      pz      :     0.039132  p :     0.084482
      px      :     0.030113
      py      :     0.015237
 81 H s       :     0.887200  s :     0.887200
      pz      :     0.037780  p :     0.084010
      px      :     0.016178
      py      :     0.030052
 82 H s       :     0.915808  s :     0.915808
      pz      :     0.022053  p :     0.086781
      px      :     0.031497
      py      :     0.033230
 83 H s       :     0.873436  s :     0.873436
      pz      :     0.039230  p :     0.084013
      px      :     0.015274
      py      :     0.029510
 84 H s       :     0.887225  s :     0.887225
      pz      :     0.035756  p :     0.083569
      px      :     0.031697
      py      :     0.016116
 85 H s       :     0.893548  s :     0.893548
      pz      :     0.022487  p :     0.079749
      px      :     0.014090
      py      :     0.043173
 86 H s       :     0.891100  s :     0.891100
      pz      :     0.024720  p :     0.078825
      px      :     0.032972
      py      :     0.021133
 87 H s       :     0.890157  s :     0.890157
      pz      :     0.047981  p :     0.078709
      px      :     0.015595
      py      :     0.015133
 88 H s       :     0.912143  s :     0.912143
      pz      :     0.021867  p :     0.087007
      px      :     0.042722
      py      :     0.022418
 89 H s       :     0.871733  s :     0.871733
      pz      :     0.037930  p :     0.083851
      px      :     0.030474
      py      :     0.015448


                      *****************************
                      * MAYER POPULATION ANALYSIS *
                      *****************************

  NA   - Mulliken gross atomic population
  ZA   - Total nuclear charge
  QA   - Mulliken gross atomic charge
  VA   - Mayer's total valence
  BVA  - Mayer's bonded valence
  FA   - Mayer's free valence

  ATOM       NA         ZA         QA         VA         BVA        FA
  0 C      5.7952     6.0000     0.2048     3.8377     3.8377    -0.0000
  1 N      7.4511     7.0000    -0.4511     3.3379     3.3379     0.0000
  2 C      6.0640     6.0000    -0.0640     3.9208     3.9208    -0.0000
  3 N      7.3360     7.0000    -0.3360     3.4552     3.4552    -0.0000
  4 C      6.0571     6.0000    -0.0571     3.9880     3.9880    -0.0000
  5 N      7.5608     7.0000    -0.5608     3.0924     3.0924    -0.0000
  6 C      6.0982     6.0000    -0.0982     4.0080     4.0080     0.0000
  7 N      7.3395     7.0000    -0.3395     3.4367     3.4367     0.0000
  8 C      5.7960     6.0000     0.2040     3.8381     3.8381    -0.0000
  9 N      7.5628     7.0000    -0.5628     3.0808     3.0808    -0.0000
 10 C      5.8821     6.0000     0.1179     3.9046     3.9046    -0.0000
 11 N      7.4374     7.0000    -0.4374     3.3837     3.3837    -0.0000
 12 C      6.0784     6.0000    -0.0784     3.9157     3.9157    -0.0000
 13 N      7.4341     7.0000    -0.4341     3.4064     3.4064     0.0000
 14 C      5.7673     6.0000     0.2327     3.7819     3.7819     0.0000
 15 N      7.4413     7.0000    -0.4413     3.3699     3.3699    -0.0000
 16 C      5.7696     6.0000     0.2304     3.7831     3.7831    -0.0000
 17 C      6.0963     6.0000    -0.0963     4.0075     4.0075     0.0000
 18 C      6.1862     6.0000    -0.1862     3.7676     3.7676    -0.0000
 19 C      5.7803     6.0000     0.2197     3.8655     3.8655    -0.0000
 20 C      5.7875     6.0000     0.2125     3.8271     3.8271     0.0000
 21 C      6.0870     6.0000    -0.0870     3.9086     3.9086    -0.0000
 22 C      6.0876     6.0000    -0.0876     3.9823     3.9823     0.0000
 23 C      6.0436     6.0000    -0.0436     3.9914     3.9914    -0.0000
 24 C      5.7999     6.0000     0.2001     3.8220     3.8220     0.0000
 25 C      5.8861     6.0000     0.1139     3.8897     3.8897     0.0000
 26 C      6.0738     6.0000    -0.0738     3.9059     3.9059    -0.0000
 27 C      5.7851     6.0000     0.2149     3.8712     3.8712    -0.0000
 28 C      6.0573     6.0000    -0.0573     3.9883     3.9883    -0.0000
 29 C      6.1815     6.0000    -0.1815     3.7412     3.7412    -0.0000
 30 C      5.7588     6.0000     0.2412     3.7959     3.7959    -0.0000
 31 C      5.7775     6.0000     0.2225     3.8222     3.8222    -0.0000
 32 C      6.0627     6.0000    -0.0627     3.9213     3.9213    -0.0000
 33 C      6.0700     6.0000    -0.0700     3.9783     3.9783    -0.0000
 34 C      6.0496     6.0000    -0.0496     3.9876     3.9876     0.0000
 35 C      5.7835     6.0000     0.2165     3.8204     3.8204    -0.0000
 36 C      5.8891     6.0000     0.1109     3.8823     3.8823     0.0000
 37 C      6.0653     6.0000    -0.0653     3.9175     3.9175     0.0000
 38 C      5.7652     6.0000     0.2348     3.8012     3.8012    -0.0000
 39 C      6.0602     6.0000    -0.0602     3.9867     3.9867     0.0000
 40 C      6.1840     6.0000    -0.1840     3.7332     3.7332    -0.0000
 41 C      5.7776     6.0000     0.2224     3.8838     3.8838    -0.0000
 42 C      5.8010     6.0000     0.1990     3.8268     3.8268     0.0000
 43 C      6.0732     6.0000    -0.0732     3.9011     3.9011    -0.0000
 44 C      6.0906     6.0000    -0.0906     3.9856     3.9856     0.0000
 45 C      6.0580     6.0000    -0.0580     3.9924     3.9924     0.0000
 46 C      5.7929     6.0000     0.2071     3.8277     3.8277    -0.0000
 47 C      5.8843     6.0000     0.1157     3.8940     3.8940     0.0000
 48 C      6.0708     6.0000    -0.0708     3.9071     3.9071    -0.0000
 49 C      5.7671     6.0000     0.2329     3.8903     3.8903     0.0000
 50 C      6.0491     6.0000    -0.0491     3.9906     3.9906     0.0000
 51 C      6.1919     6.0000    -0.1919     3.7369     3.7369     0.0000
 52 H      0.9554     1.0000     0.0446     0.9858     0.9858    -0.0000
 53 H      1.0156     1.0000    -0.0156     0.9986     0.9986     0.0000
 54 H      0.9515     1.0000     0.0485     1.0090     1.0090     0.0000
 55 H      0.9567     1.0000     0.0433     0.9865     0.9865    -0.0000
 56 H      0.9477     1.0000     0.0523     0.9703     0.9703    -0.0000
 57 H      0.9493     1.0000     0.0507     0.9825     0.9825     0.0000
 58 H      0.9502     1.0000     0.0498     0.9856     0.9856    -0.0000
 59 H      1.0031     1.0000    -0.0031     1.0022     1.0022    -0.0000
 60 H      0.9533     1.0000     0.0467     1.0123     1.0123     0.0000
 61 H      0.8285     1.0000     0.1715     1.0420     1.0420     0.0000
 62 H      0.8254     1.0000     0.1746     1.0436     1.0436     0.0000
 63 H      0.9430     1.0000     0.0570     0.9853     0.9853     0.0000
 64 H      1.0102     1.0000    -0.0102     0.9969     0.9969    -0.0000
 65 H      0.9530     1.0000     0.0470     1.0096     1.0096    -0.0000
 66 H      0.9427     1.0000     0.0573     0.9852     0.9852    -0.0000
 67 H      0.9365     1.0000     0.0635     0.9720     0.9720     0.0000
 68 H      0.9419     1.0000     0.0581     0.9868     0.9868    -0.0000
 69 H      0.9419     1.0000     0.0581     0.9829     0.9829     0.0000
 70 H      1.0269     1.0000    -0.0269     0.9931     0.9931     0.0000
 71 H      0.9528     1.0000     0.0472     1.0062     1.0062     0.0000
 72 H      0.9352     1.0000     0.0648     0.9842     0.9842    -0.0000
 73 H      1.0106     1.0000    -0.0106     0.9998     0.9998    -0.0000
 74 H      0.9456     1.0000     0.0544     1.0101     1.0101    -0.0000
 75 H      0.9361     1.0000     0.0639     0.9847     0.9847    -0.0000
 76 H      0.9308     1.0000     0.0692     0.9719     0.9719     0.0000
 77 H      0.9364     1.0000     0.0636     0.9853     0.9853     0.0000
 78 H      0.9372     1.0000     0.0628     0.9851     0.9851     0.0000
 79 H      1.0149     1.0000    -0.0149     0.9985     0.9985     0.0000
 80 H      0.9452     1.0000     0.0548     1.0071     1.0071     0.0000
 81 H      0.9465     1.0000     0.0535     0.9856     0.9856    -0.0000
 82 H      1.0247     1.0000    -0.0247     0.9936     0.9936     0.0000
 83 H      0.9584     1.0000     0.0416     1.0087     1.0087     0.0000
 84 H      0.9470     1.0000     0.0530     0.9854     0.9854    -0.0000
 85 H      0.9406     1.0000     0.0594     0.9715     0.9715     0.0000
 86 H      0.9446     1.0000     0.0554     0.9839     0.9839    -0.0000
 87 H      0.9434     1.0000     0.0566     0.9856     0.9856     0.0000
 88 H      1.0177     1.0000    -0.0177     0.9958     0.9958    -0.0000
 89 H      0.9542     1.0000     0.0458     1.0069     1.0069     0.0000

  Mayer bond orders larger than 0.100000
B(  0-C ,  1-N ) :   1.0959 B(  0-C , 17-C ) :   1.6834 B(  0-C , 52-H ) :   0.9685 
B(  1-N ,  8-C ) :   1.0934 B(  1-N , 10-C ) :   0.9732 B(  2-C , 12-C ) :   1.5220 
B(  2-C , 16-C ) :   1.3413 B(  2-C , 53-H ) :   0.9770 B(  3-N , 14-C ) :   1.2136 
B(  3-N , 16-C ) :   1.1933 B(  3-N , 61-H ) :   0.8992 B(  4-C ,  6-C ) :   1.2249 
B(  4-C , 17-C ) :   1.2261 B(  4-C , 18-C ) :   1.3753 B(  5-N , 19-C ) :   1.4419 
B(  5-N , 27-C ) :   1.3884 B(  6-C ,  8-C ) :   1.6845 B(  6-C , 54-H ) :   0.9675 
B(  7-N , 30-C ) :   1.1934 B(  7-N , 38-C ) :   1.1962 B(  7-N , 62-H ) :   0.8973 
B(  8-C , 55-H ) :   0.9695 B(  9-N , 41-C ) :   1.3976 B(  9-N , 49-C ) :   1.4244 
B( 10-C , 56-H ) :   0.9765 B( 10-C , 57-H ) :   0.9829 B( 10-C , 58-H ) :   0.9834 
B( 11-N , 20-C ) :   1.1304 B( 11-N , 24-C ) :   1.1159 B( 11-N , 25-C ) :   0.9582 
B( 12-C , 14-C ) :   1.3438 B( 12-C , 59-H ) :   0.9751 B( 13-N , 31-C ) :   1.1455 
B( 13-N , 35-C ) :   1.1390 B( 13-N , 36-C ) :   0.9496 B( 14-C , 18-C ) :   1.1566 
B( 15-N , 42-C ) :   1.1094 B( 15-N , 46-C ) :   1.1185 B( 15-N , 47-C ) :   0.9625 
B( 16-C , 51-C ) :   1.1832 B( 17-C , 60-H ) :   0.9673 B( 18-C , 19-C ) :   1.1645 
B( 19-C , 21-C ) :   1.2310 B( 20-C , 28-C ) :   1.6237 B( 20-C , 63-H ) :   0.9701 
B( 21-C , 26-C ) :   1.6279 B( 21-C , 64-H ) :   0.9714 B( 22-C , 23-C ) :   1.2895 
B( 22-C , 28-C ) :   1.2708 B( 22-C , 29-C ) :   1.2210 B( 23-C , 24-C ) :   1.6163 
B( 23-C , 65-H ) :   0.9706 B( 24-C , 66-H ) :   0.9693 B( 25-C , 67-H ) :   0.9761 
B( 25-C , 68-H ) :   0.9828 B( 25-C , 69-H ) :   0.9822 B( 26-C , 27-C ) :   1.2255 
B( 26-C , 70-H ) :   0.9719 B( 27-C , 29-C ) :   1.2212 B( 28-C , 71-H ) :   0.9717 
B( 29-C , 30-C ) :   1.2313 B( 30-C , 32-C ) :   1.2925 B( 31-C , 39-C ) :   1.6072 
B( 31-C , 72-H ) :   0.9688 B( 32-C , 37-C ) :   1.5665 B( 32-C , 73-H ) :   0.9782 
B( 33-C , 34-C ) :   1.2941 B( 33-C , 39-C ) :   1.2870 B( 33-C , 40-C ) :   1.2068 
B( 34-C , 35-C ) :   1.6037 B( 34-C , 74-H ) :   0.9700 B( 35-C , 75-H ) :   0.9689 
B( 36-C , 76-H ) :   0.9765 B( 36-C , 77-H ) :   0.9818 B( 36-C , 78-H ) :   0.9827 
B( 37-C , 38-C ) :   1.2955 B( 37-C , 79-H ) :   0.9771 B( 38-C , 40-C ) :   1.2238 
B( 39-C , 80-H ) :   0.9710 B( 40-C , 41-C ) :   1.2361 B( 41-C , 43-C ) :   1.1997 
B( 42-C , 50-C ) :   1.6353 B( 42-C , 81-H ) :   0.9696 B( 43-C , 48-C ) :   1.6519 
B( 43-C , 82-H ) :   0.9727 B( 44-C , 45-C ) :   1.2647 B( 44-C , 50-C ) :   1.2684 
B( 44-C , 51-C ) :   1.2625 B( 45-C , 46-C ) :   1.6359 B( 45-C , 83-H ) :   0.9716 
B( 46-C , 84-H ) :   0.9702 B( 47-C , 85-H ) :   0.9762 B( 47-C , 86-H ) :   0.9829 
B( 47-C , 87-H ) :   0.9825 B( 48-C , 49-C ) :   1.2020 B( 48-C , 88-H ) :   0.9745 
B( 49-C , 51-C ) :   1.2282 B( 50-C , 89-H ) :   0.9711 

-------
TIMINGS
-------

Total SCF time: 0 days 0 hours 21 min 21 sec 

Total time                  ....    1281.907 sec
Sum of individual times     ....    1278.302 sec  ( 99.7%)

Fock matrix formation       ....    1258.578 sec  ( 98.2%)
Diagonalization             ....       6.699 sec  (  0.5%)
Density matrix formation    ....       0.349 sec  (  0.0%)
Population analysis         ....       0.428 sec  (  0.0%)
Initial guess               ....       1.939 sec  (  0.2%)
Orbital Transformation      ....       0.000 sec  (  0.0%)
Orbital Orthonormalization  ....       0.000 sec  (  0.0%)
DIIS solution               ....       2.930 sec  (  0.2%)
SOSCF solution              ....       6.373 sec  (  0.5%)

Maximum memory used throughout the entire SCF-calculation: 302.6 MB


           ************************************************************
           *        Program running with 16 parallel MPI-processes    *
           *              working on a common directory               *
           ************************************************************

------------------------------------------------------------------------------
                                ORCA  MP2 
------------------------------------------------------------------------------

Freezing NCore=104 chemical core electrons

----------
MP2 ENERGY (disk based algorithm)
----------

Dimension of the basis                    ...  918
Memory devoted to MP2                     ... 2000 MB   
Data format for buffers                   ... DOUBLE
Compression type for matrix containers    ... UNCOMPRESSED

-------------------------------
PARTIAL EXCHANGE TRANSFORMATION
-------------------------------

Transformation type                        ... one-operator
Generation of integrals (i,mue|j,nue)      ... ON
Generation of integrals (mue,kappa|nue,tau)... OFF
Generation of integrals (i,mue|a,nue)      ... OFF
Dimension of the basis                     ...  918
Number of internal MOs                     ...  127 (  52- 178)
Pair cutoff                                ... 2.500e-12 Eh
Number of AO pairs in the trafo            ... 421821
Total Number of distinct AO pairs          ... 421821
Memory devoted for trafo                   ... 2000.0 MB 
Max. Number of MO pairs treated together   ...  311      
Number Format for Storage                  ... Double (8 Byte)
Integral package used                      ... LIBINT

Starting integral evaluation:
    ... done with AO integral generation
Closing buffer AOK     (38.25 GB; CompressionRatio= 1.33)
Collecting buffer AOK 
Number of MO pairs included in the trafo   ... 8128
------------------------
SORTING OF (i,mue|j,nue)
------------------------

IBATCH = 1 of  2
IBATCH = 2 of  2
Closing buffer KAO     (51.03 GB; CompressionRatio= 1.00)
Collecting buffer KAO 
N(AO-Batches) Done                         ...  85699440 
N(AO-Batches) Skipped                      ...  82250190 
N(IJ)-pairs Skipped                        ...         0 
TOTAL TIME for half transformation         ...  2903.504 sec
AO-integral generation                     ...   176.968 sec
Half transformation                        ...   317.217 sec
K-integral sorting                         ...  2265.331 sec
Process 13:   Internal MO 156
Process 10:   Internal MO 132

Finished integral transformation - now doing MP2 part

OPERATOR COMBINATION   0   0: ij=( 52..178, 52..178)
Process  4:   Internal MO  84
Process  1:   Internal MO  60
Process  7:   Internal MO 108
Process  0:   Internal MO  54
Process  2:   Internal MO  69
Process  0:   Internal MO  57
Process  1:   Internal MO  63
Process  3:   Internal MO  78
Process  5:   Internal MO  93
Process  8:   Internal MO 117
Process  1:   Internal MO  66
Process  2:   Internal MO  72
Process  6:   Internal MO 102
Process  4:   Internal MO  87
Process 11:   Internal MO 141
Process 14:   Internal MO 165
Process  2:   Internal MO  75
Process  3:   Internal MO  81
Process  9:   Internal MO 126
Process  7:   Internal MO 111
Process  5:   Internal MO  96
Process 12:   Internal MO 150
Process  4:   Internal MO  90
Process 10:   Internal MO 135
Process 15:   Internal MO 174
Process  6:   Internal MO 105
Process  8:   Internal MO 120
Process 13:   Internal MO 159
Process  5:   Internal MO  99
Process  7:   Internal MO 114
Process  9:   Internal MO 129
Process 11:   Internal MO 144
Process 14:   Internal MO 168
Process  8:   Internal MO 123
Process 10:   Internal MO 138
Process 12:   Internal MO 153
Process 15:   Internal MO 177
Process 13:   Internal MO 162
Process 11:   Internal MO 147
Process 14:   Internal MO 171
-----------------------------------------------
 MP2 CORRELATION ENERGY   :     -7.284705767 Eh
-----------------------------------------------


-------
TIMINGS
-------
Total time                : 3404.974 sec
Integral trafo            : 2905.439 sec ( 85.3%)
K(i,j)                    :    5.736 sec (  0.2%)
T(i,j)                    :    0.097 sec (  0.0%)

---------------------------------------
MP2 TOTAL ENERGY:    -2130.914142721 Eh
---------------------------------------

Maximum memory used throughout the entire MP2-calculation: 2275.2 MB

-------------------------   --------------------
FINAL SINGLE POINT ENERGY     -2130.914142720694
-------------------------   --------------------


                            ***************************************
                            *     ORCA property calculations      *
                            ***************************************


  WARNING: The energy has been calculated at the MP2 level but the densities
           used in the property calculations are still SCF densities
           MP2 response densities have not been calculated 
           use %mp2 Density relaxed end
           or  %mp2 Density unrelaxed end

                                    ---------------------
                                    Active property flags
                                    ---------------------
   (+) Dipole Moment


------------------------------------------------------------------------------
                       ORCA ELECTRIC PROPERTIES CALCULATION
------------------------------------------------------------------------------

Dipole Moment Calculation                       ... on
Quadrupole Moment Calculation                   ... off
Polarizability Calculation                      ... off
GBWName                                         ... /scratch/allen/tmpyp4_amber_gaff2/conf1/conf1/Conf136.orca.gbw
Electron density                                ... /scratch/allen/tmpyp4_amber_gaff2/conf1/conf1/Conf136.orca.scfp
The origin for moment calculation is the CENTER OF MASS  = ( 0.003141, -0.001913  0.002597)

-------------
DIPOLE MOMENT
-------------
                                X             Y             Z
Electronic contribution:      1.26783      -2.94676      -0.21997
Nuclear contribution   :      0.01870       0.19738       0.22867
                        -----------------------------------------
Total Dipole Moment    :      1.28653      -2.74938       0.00870
                        -----------------------------------------
Magnitude (a.u.)       :      3.03551
Magnitude (Debye)      :      7.71565



--------------------
Rotational spectrum 
--------------------
 
Rotational constants in cm-1:     0.001499     0.001476     0.000761 
Rotational constants in MHz :    44.939108    44.256039    22.826579 

 Dipole components along the rotational axes: 
x,y,z [a.u.] :     2.045357    -2.242911     0.013004 
x,y,z [Debye]:     5.198883    -5.701027     0.033054 

 

Timings for individual modules:

Sum of individual times         ...     4710.464 sec (=  78.508 min)
GTO integral calculation        ...        2.668 sec (=   0.044 min)   0.1 %
SCF iterations                  ...     1282.808 sec (=  21.380 min)  27.2 %
MP2 module                      ...     3424.988 sec (=  57.083 min)  72.7 %
                             ****ORCA TERMINATED NORMALLY****
TOTAL RUN TIME: 0 days 1 hours 18 minutes 33 seconds 906 msec
# of primitive gaussian functions

