
                                 *****************
                                 * O   R   C   A *
                                 *****************

                                            #,                                       
                                            ###                                      
                                            ####                                     
                                            #####                                    
                                            ######                                   
                                           ########,                                 
                                     ,,################,,,,,                         
                               ,,#################################,,                 
                          ,,##########################################,,             
                       ,#########################################, ''#####,          
                    ,#############################################,,   '####,        
                  ,##################################################,,,,####,       
                ,###########''''           ''''###############################       
              ,#####''   ,,,,##########,,,,          '''####'''          '####       
            ,##' ,,,,###########################,,,                        '##       
           ' ,,###''''                  '''############,,,                           
         ,,##''                                '''############,,,,        ,,,,,,###''
      ,#''                                            '''#######################'''  
     '                                                          ''''####''''         
             ,#######,   #######,   ,#######,      ##                                
            ,#'     '#,  ##    ##  ,#'     '#,    #''#        ######   ,####,        
            ##       ##  ##   ,#'  ##            #'  '#       #        #'  '#        
            ##       ##  #######   ##           ,######,      #####,   #    #        
            '#,     ,#'  ##    ##  '#,     ,#' ,#      #,         ##   #,  ,#        
             '#######'   ##     ##  '#######'  #'      '#     #####' # '####'        



                  #######################################################
                  #                        -***-                        #
                  #          Department of theory and spectroscopy      #
                  #    Directorship and core code : Frank Neese         #
                  #        Max Planck Institute fuer Kohlenforschung    #
                  #                Kaiser Wilhelm Platz 1               #
                  #                 D-45470 Muelheim/Ruhr               #
                  #                      Germany                        #
                  #                                                     #
                  #                  All rights reserved                #
                  #                        -***-                        #
                  #######################################################


                         Program Version 5.0.4 -  RELEASE  -


 With contributions from (in alphabetic order):
   Daniel Aravena         : Magnetic Suceptibility
   Michael Atanasov       : Ab Initio Ligand Field Theory (pilot matlab implementation)
   Alexander A. Auer      : GIAO ZORA, VPT2 properties, NMR spectrum
   Ute Becker             : Parallelization
   Giovanni Bistoni       : ED, misc. LED, open-shell LED, HFLD
   Martin Brehm           : Molecular dynamics
   Dmytro Bykov           : SCF Hessian
   Vijay G. Chilkuri      : MRCI spin determinant printing, contributions to CSF-ICE
   Dipayan Datta          : RHF DLPNO-CCSD density
   Achintya Kumar Dutta   : EOM-CC, STEOM-CC
   Dmitry Ganyushin       : Spin-Orbit,Spin-Spin,Magnetic field MRCI
   Miquel Garcia          : C-PCM and meta-GGA Hessian, CC/C-PCM, Gaussian charge scheme
   Yang Guo               : DLPNO-NEVPT2, F12-NEVPT2, CIM, IAO-localization
   Andreas Hansen         : Spin unrestricted coupled pair/coupled cluster methods
   Benjamin Helmich-Paris : MC-RPA, TRAH-SCF, COSX integrals
   Lee Huntington         : MR-EOM, pCC
   Robert Izsak           : Overlap fitted RIJCOSX, COSX-SCS-MP3, EOM
   Marcus Kettner         : VPT2
   Christian Kollmar      : KDIIS, OOCD, Brueckner-CCSD(T), CCSD density, CASPT2, CASPT2-K
   Simone Kossmann        : Meta GGA functionals, TD-DFT gradient, OOMP2, MP2 Hessian
   Martin Krupicka        : Initial AUTO-CI
   Lucas Lang             : DCDCAS
   Marvin Lechner         : AUTO-CI (C++ implementation), FIC-MRCC
   Dagmar Lenk            : GEPOL surface, SMD
   Dimitrios Liakos       : Extrapolation schemes; Compound Job, initial MDCI parallelization
   Dimitrios Manganas     : Further ROCIS development; embedding schemes
   Dimitrios Pantazis     : SARC Basis sets
   Anastasios Papadopoulos: AUTO-CI, single reference methods and gradients
   Taras Petrenko         : DFT Hessian,TD-DFT gradient, ASA, ECA, R-Raman, ABS, FL, XAS/XES, NRVS
   Peter Pinski           : DLPNO-MP2, DLPNO-MP2 Gradient
   Christoph Reimann      : Effective Core Potentials
   Marius Retegan         : Local ZFS, SOC
   Christoph Riplinger    : Optimizer, TS searches, QM/MM, DLPNO-CCSD(T), (RO)-DLPNO pert. Triples
   Tobias Risthaus        : Range-separated hybrids, TD-DFT gradient, RPA, STAB
   Michael Roemelt        : Original ROCIS implementation
   Masaaki Saitow         : Open-shell DLPNO-CCSD energy and density
   Barbara Sandhoefer     : DKH picture change effects
   Avijit Sen             : IP-ROCIS
   Kantharuban Sivalingam : CASSCF convergence, NEVPT2, FIC-MRCI
   Bernardo de Souza      : ESD, SOC TD-DFT
   Georgi Stoychev        : AutoAux, RI-MP2 NMR, DLPNO-MP2 response
   Willem Van den Heuvel  : Paramagnetic NMR
   Boris Wezisla          : Elementary symmetry handling
   Frank Wennmohs         : Technical directorship


 We gratefully acknowledge several colleagues who have allowed us to
 interface, adapt or use parts of their codes:
   Stefan Grimme, W. Hujo, H. Kruse, P. Pracht,  : VdW corrections, initial TS optimization,
                  C. Bannwarth, S. Ehlert          DFT functionals, gCP, sTDA/sTD-DF
   Ed Valeev, F. Pavosevic, A. Kumar             : LibInt (2-el integral package), F12 methods
   Garnet Chan, S. Sharma, J. Yang, R. Olivares  : DMRG
   Ulf Ekstrom                                   : XCFun DFT Library
   Mihaly Kallay                                 : mrcc  (arbitrary order and MRCC methods)
   Jiri Pittner, Ondrej Demel                    : Mk-CCSD
   Frank Weinhold                                : gennbo (NPA and NBO analysis)
   Christopher J. Cramer and Donald G. Truhlar   : smd solvation model
   Lars Goerigk                                  : TD-DFT with DH, B97 family of functionals
   V. Asgeirsson, H. Jonsson                     : NEB implementation
   FAccTs GmbH                                   : IRC, NEB, NEB-TS, DLPNO-Multilevel, CI-OPT
                                                   MM, QMMM, 2- and 3-layer-ONIOM, Crystal-QMMM,
                                                   LR-CPCM, SF, NACMEs, symmetry and pop. for TD-DFT,
                                                   nearIR, NL-DFT gradient (VV10), updates on ESD,
                                                   ML-optimized integration grids
   S Lehtola, MJT Oliveira, MAL Marques          : LibXC Library
   Liviu Ungur et al                             : ANISO software


 Your calculation uses the libint2 library for the computation of 2-el integrals
 For citations please refer to: http://libint.valeyev.net

 Your ORCA version has been built with support for libXC version: 5.1.0
 For citations please refer to: https://tddft.org/programs/libxc/

 This ORCA versions uses:
   CBLAS   interface :  Fast vector & matrix operations
   LAPACKE interface :  Fast linear algebra routines
   SCALAPACK package :  Parallel linear algebra routines
   Shared memory     :  Shared parallel matrices
   BLAS/LAPACK       :  OpenBLAS 0.3.15  USE64BITINT DYNAMIC_ARCH NO_AFFINITY Sandybridge SINGLE_THREADED
        Core in use  :  Sandybridge
   Copyright (c) 2011-2014, The OpenBLAS Project


================================================================================

----- Orbital basis set information -----
Your calculation utilizes the basis: cc-pVDZ 
       H, B-Ne : Obtained from the ccRepo (grant-hill.group.shef.ac.uk/ccrepo) Feb. 2017
                 T. H. Dunning, Jr., J. Chem. Phys. 90, 1007 (1989)
            He : Obtained from the ccRepo (grant-hill.group.shef.ac.uk/ccrepo) Feb. 2017
                 D. E. Woon, T. H. Dunning, Jr., J. Chem. Phys. 100, 2975 (1994)
  Li-Be, Na-Mg : Obtained from the ccRepo (grant-hill.group.shef.ac.uk/ccrepo) Feb. 2017
                 B. P. Prascher, D. E. Woon, K. A. Peterson, T. H. Dunning, Jr., A. K. Wilson, Theor. Chem. Acc. 128, 69 (2011)
         Al-Ar : Obtained from the ccRepo (grant-hill.group.shef.ac.uk/ccrepo) Feb. 2017
                 D. E. Woon, T. H. Dunning, Jr., J. Chem. Phys. 98, 1358 (1993)
            Ca : Obtained from the Peterson Research Group Website (tyr0.chem.wsu.edu/~kipeters) Feb. 2017
                 J. Koput, K. A. Peterson, J. Phys. Chem. 106, 9595 (2002)
         Sc-Zn : Obtained from the ccRepo (grant-hill.group.shef.ac.uk/ccrepo) Feb. 2017
                 N. B. Balabanov, K. A. Peterson, J. Chem. Phys. 123, 064107 (2005)
                 N. B. Balabanov, K. A. Peterson, J. Chem. Phys. 125, 074110 (2006)
         Ga-Kr : Obtained from the ccRepo (grant-hill.group.shef.ac.uk/ccrepo) Feb. 2017
                 A. K. Wilson, D. E. Woon, K. A. Peterson, T. H. Dunning, Jr., J. Chem. Phys. 110, 7667 (1999)

================================================================================
                                        WARNINGS
                       Please study these warnings very carefully!
================================================================================


WARNING: No MP2 level density has been requested!
         To caclulate MP2 level properties use
         %mp2 Density relaxed end
         or
         %mp2 Density unrelaxed end

WARNING: Post HF methods need fully converged wavefunctions
  ===> : Setting SCFConvForced true
         You can overwrite this default with %scf ConvForced false 


INFO   : the flag for use of the SHARK integral package has been found!

================================================================================
                                       INPUT FILE
================================================================================
NAME = /scratch/allen/tmpyp4_amber_gaff2/2.Mdgx/conf11/conf11/Conf26.orca
|  1> ! PAL2
|  2> ! mp2 cc-pvdz TightSCF  NoKeepInts
|  3> 
|  4> %scf
|  5>   MaxCore 2000
|  6> end
|  7> %mp2
|  8>   MaxCore 2000
|  9> end
| 10> * xyz 0 1
| 11>    C       -3.11500         6.44900        -0.37200
| 12>    C        1.47400         4.04100         0.05700
| 13>    C       -2.80200         4.09300         0.04900
| 14>    C       -4.11300         4.06000         0.54900
| 15>    C       -4.87600         5.21100         0.56900
| 16>    C       -5.23100         7.59000         0.11700
| 17>    C        0.13200         4.30700         0.06100
| 18>    C       -0.56900         3.05600         0.04700
| 19>    C        1.64900         2.61800         0.02300
| 20>    C       -2.31500         5.32300        -0.41900
| 21>    N       -4.37400         6.38300         0.11600
| 22>    N        0.38800         2.06700         0.02500
| 23>    N       -2.01000         0.39500        -0.07500
| 24>    N       -0.38800        -2.07400        -0.02700
| 25>    N        2.01000        -0.40100         0.06500
| 26>    C       -1.96000         2.86100         0.02400
| 27>    C       -2.62300         1.61500        -0.01800
| 28>    C       -5.57300        -4.32900         1.06600
| 29>    C       -4.07300         1.47100         0.05600
| 30>    C       -4.10600        -2.75600        -0.02600
| 31>    C       -4.99500        -2.75700        -1.11100
| 32>    C       -6.13200        -3.54200        -1.07600
| 33>    C       -7.65100        -5.11300         0.04000
| 34>    C       -4.32400         0.14100         0.03700
| 35>    C       -3.02500        -0.52000        -0.04800
| 36>    C       -4.42200        -3.56600         1.07500
| 37>    N       -6.40700        -4.31300         0.00100
| 38>    C       -2.86700        -1.92200        -0.04000
| 39>    C       -1.65000        -2.62400        -0.02700
| 40>    C        3.56800        -6.14200        -1.04000
| 41>    C       -1.47600        -4.04900        -0.03400
| 42>    C        2.80300        -4.09900        -0.00800
| 43>    C        3.65700        -4.38400         1.06900
| 44>    C        4.42700        -5.53000         1.05900
| 45>    C        5.24500        -7.58800         0.01400
| 46>    C       -0.13400        -4.31500        -0.02200
| 47>    C        0.56800        -3.06400        -0.02700
| 48>    C        2.77500        -5.01200        -1.07400
| 49>    N        4.37600        -6.39100         0.01700
| 50>    C        1.95900        -2.86900        -0.00900
| 51>    C        2.62100        -1.62200         0.00900
| 52>    C        5.54300         4.33900        -1.13000
| 53>    C        4.07000        -1.47900        -0.09400
| 54>    C        4.10400         2.75100        -0.02100
| 55>    C        5.02700         2.72900         1.03600
| 56>    C        6.16600         3.50900         0.97800
| 57>    C        7.61900         5.15300        -0.11500
| 58>    C        4.32100        -0.14800        -0.09200
| 59>    C        3.02500         0.51400         0.01500
| 60>    C        4.38700         3.58200        -1.11500
| 61>    C        2.86600         1.91600         0.01300
| 62>    N        6.41300         4.29600        -0.09500
| 63>    H       -2.77700         7.42000        -0.71000
| 64>    H        2.27400         4.76600         0.08100
| 65>    H       -4.54900         3.13900         0.91500
| 66>    H       -5.89400         5.23300         0.93600
| 67>    H       -5.82100         7.60700        -0.80300
| 68>    H       -5.88900         7.55300         0.98400
| 69>    H       -4.59300         8.47200         0.16900
| 70>    H       -0.33200         5.28200         0.06900
| 71>    H       -1.30600         5.41700        -0.80300
| 72>    H        0.18200         1.07200         0.00500
| 73>    H       -0.18300        -1.08000        -0.02100
| 74>    H       -5.86400        -4.96200         1.89500
| 75>    H       -4.79400         2.27200         0.13900
| 76>    H       -4.80000        -2.16000        -1.99400
| 77>    H       -6.84100        -3.58200        -1.89300
| 78>    H       -8.42800        -4.53600         0.54600
| 79>    H       -7.95600        -5.33700        -0.98100
| 80>    H       -7.45600        -6.03700         0.58400
| 81>    H       -5.28700        -0.34400         0.10000
| 82>    H       -3.78000        -3.60100         1.94700
| 83>    H        3.58700        -6.86800        -1.84300
| 84>    H       -2.27600        -4.77400        -0.05000
| 85>    H        3.71400        -3.72400         1.92600
| 86>    H        5.09200        -5.79500         1.87100
| 87>    H        6.20500        -7.32900        -0.43900
| 88>    H        5.39300        -7.91700         1.04200
| 89>    H        4.75900        -8.37300        -0.56400
| 90>    H        0.32900        -5.29000        -0.00800
| 91>    H        2.14600        -4.84200        -1.94000
| 92>    H        5.80800         4.98600        -1.95600
| 93>    H        4.78800        -2.28100        -0.18500
| 94>    H        4.86000         2.11400         1.91200
| 95>    H        6.90100         3.53100         1.77200
| 96>    H        7.38300         6.10900         0.35600
| 97>    H        8.41400         4.65200         0.43500
| 98>    H        7.92100         5.31000        -1.15000
| 99>    H        5.28300         0.33600        -0.17900
|100>    H        3.72000         3.63200        -1.96700
|101> *
|102> 
|103>                          ****END OF INPUT****
================================================================================

                       ****************************
                       * Single Point Calculation *
                       ****************************

---------------------------------
CARTESIAN COORDINATES (ANGSTROEM)
---------------------------------
  C     -3.115000    6.449000   -0.372000
  C      1.474000    4.041000    0.057000
  C     -2.802000    4.093000    0.049000
  C     -4.113000    4.060000    0.549000
  C     -4.876000    5.211000    0.569000
  C     -5.231000    7.590000    0.117000
  C      0.132000    4.307000    0.061000
  C     -0.569000    3.056000    0.047000
  C      1.649000    2.618000    0.023000
  C     -2.315000    5.323000   -0.419000
  N     -4.374000    6.383000    0.116000
  N      0.388000    2.067000    0.025000
  N     -2.010000    0.395000   -0.075000
  N     -0.388000   -2.074000   -0.027000
  N      2.010000   -0.401000    0.065000
  C     -1.960000    2.861000    0.024000
  C     -2.623000    1.615000   -0.018000
  C     -5.573000   -4.329000    1.066000
  C     -4.073000    1.471000    0.056000
  C     -4.106000   -2.756000   -0.026000
  C     -4.995000   -2.757000   -1.111000
  C     -6.132000   -3.542000   -1.076000
  C     -7.651000   -5.113000    0.040000
  C     -4.324000    0.141000    0.037000
  C     -3.025000   -0.520000   -0.048000
  C     -4.422000   -3.566000    1.075000
  N     -6.407000   -4.313000    0.001000
  C     -2.867000   -1.922000   -0.040000
  C     -1.650000   -2.624000   -0.027000
  C      3.568000   -6.142000   -1.040000
  C     -1.476000   -4.049000   -0.034000
  C      2.803000   -4.099000   -0.008000
  C      3.657000   -4.384000    1.069000
  C      4.427000   -5.530000    1.059000
  C      5.245000   -7.588000    0.014000
  C     -0.134000   -4.315000   -0.022000
  C      0.568000   -3.064000   -0.027000
  C      2.775000   -5.012000   -1.074000
  N      4.376000   -6.391000    0.017000
  C      1.959000   -2.869000   -0.009000
  C      2.621000   -1.622000    0.009000
  C      5.543000    4.339000   -1.130000
  C      4.070000   -1.479000   -0.094000
  C      4.104000    2.751000   -0.021000
  C      5.027000    2.729000    1.036000
  C      6.166000    3.509000    0.978000
  C      7.619000    5.153000   -0.115000
  C      4.321000   -0.148000   -0.092000
  C      3.025000    0.514000    0.015000
  C      4.387000    3.582000   -1.115000
  C      2.866000    1.916000    0.013000
  N      6.413000    4.296000   -0.095000
  H     -2.777000    7.420000   -0.710000
  H      2.274000    4.766000    0.081000
  H     -4.549000    3.139000    0.915000
  H     -5.894000    5.233000    0.936000
  H     -5.821000    7.607000   -0.803000
  H     -5.889000    7.553000    0.984000
  H     -4.593000    8.472000    0.169000
  H     -0.332000    5.282000    0.069000
  H     -1.306000    5.417000   -0.803000
  H      0.182000    1.072000    0.005000
  H     -0.183000   -1.080000   -0.021000
  H     -5.864000   -4.962000    1.895000
  H     -4.794000    2.272000    0.139000
  H     -4.800000   -2.160000   -1.994000
  H     -6.841000   -3.582000   -1.893000
  H     -8.428000   -4.536000    0.546000
  H     -7.956000   -5.337000   -0.981000
  H     -7.456000   -6.037000    0.584000
  H     -5.287000   -0.344000    0.100000
  H     -3.780000   -3.601000    1.947000
  H      3.587000   -6.868000   -1.843000
  H     -2.276000   -4.774000   -0.050000
  H      3.714000   -3.724000    1.926000
  H      5.092000   -5.795000    1.871000
  H      6.205000   -7.329000   -0.439000
  H      5.393000   -7.917000    1.042000
  H      4.759000   -8.373000   -0.564000
  H      0.329000   -5.290000   -0.008000
  H      2.146000   -4.842000   -1.940000
  H      5.808000    4.986000   -1.956000
  H      4.788000   -2.281000   -0.185000
  H      4.860000    2.114000    1.912000
  H      6.901000    3.531000    1.772000
  H      7.383000    6.109000    0.356000
  H      8.414000    4.652000    0.435000
  H      7.921000    5.310000   -1.150000
  H      5.283000    0.336000   -0.179000
  H      3.720000    3.632000   -1.967000

----------------------------
CARTESIAN COORDINATES (A.U.)
----------------------------
  NO LB      ZA    FRAG     MASS         X           Y           Z
   0 C     6.0000    0    12.011   -5.886497   12.186844   -0.702978
   1 C     6.0000    0    12.011    2.785456    7.636383    0.107714
   2 C     6.0000    0    12.011   -5.295013    7.734649    0.092597
   3 C     6.0000    0    12.011   -7.772444    7.672288    1.037460
   4 C     6.0000    0    12.011   -9.214305    9.847363    1.075254
   5 C     6.0000    0    12.011   -9.885157   14.343021    0.221098
   6 C     6.0000    0    12.011    0.249444    8.139050    0.115273
   7 C     6.0000    0    12.011   -1.075254    5.775003    0.088817
   8 C     6.0000    0    12.011    3.116158    4.947303    0.043464
   9 C     6.0000    0    12.011   -4.374716   10.059012   -0.791795
  10 N     7.0000    0    14.007   -8.265662   12.062122    0.219208
  11 N     7.0000    0    14.007    0.733214    3.906064    0.047243
  12 N     7.0000    0    14.007   -3.798350    0.746442   -0.141729
  13 N     7.0000    0    14.007   -0.733214   -3.919292   -0.051023
  14 N     7.0000    0    14.007    3.798350   -0.757780    0.122832
  15 C     6.0000    0    12.011   -3.703863    5.406506    0.045353
  16 C     6.0000    0    12.011   -4.956752    3.051908   -0.034015
  17 C     6.0000    0    12.011  -10.531444   -8.180624    2.014448
  18 C     6.0000    0    12.011   -7.696855    2.779787    0.105825
  19 C     6.0000    0    12.011   -7.759216   -5.208085   -0.049133
  20 C     6.0000    0    12.011   -9.439182   -5.209975   -2.099486
  21 C     6.0000    0    12.011  -11.587801   -6.693410   -2.033345
  22 C     6.0000    0    12.011  -14.458295   -9.662170    0.075589
  23 C     6.0000    0    12.011   -8.171176    0.266451    0.069920
  24 C     6.0000    0    12.011   -5.716422   -0.982658   -0.090707
  25 C     6.0000    0    12.011   -8.356369   -6.738763    2.031456
  26 N     7.0000    0    14.007  -12.107475   -8.150389    0.001890
  27 C     6.0000    0    12.011   -5.417845   -3.632054   -0.075589
  28 C     6.0000    0    12.011   -3.118048   -4.958641   -0.051023
  29 C     6.0000    0    12.011    6.742543  -11.606698   -1.965315
  30 C     6.0000    0    12.011   -2.789236   -7.651501   -0.064251
  31 C     6.0000    0    12.011    5.296902   -7.745987   -0.015118
  32 C     6.0000    0    12.011    6.910728   -8.284559    2.020117
  33 C     6.0000    0    12.011    8.365818  -10.450186    2.001220
  34 C     6.0000    0    12.011    9.911614  -14.339242    0.026456
  35 C     6.0000    0    12.011   -0.253223   -8.154168   -0.041574
  36 C     6.0000    0    12.011    1.073364   -5.790121   -0.051023
  37 C     6.0000    0    12.011    5.243990   -9.471307   -2.029566
  38 N     7.0000    0    14.007    8.269442  -12.077240    0.032125
  39 C     6.0000    0    12.011    3.701973   -5.421624   -0.017008
  40 C     6.0000    0    12.011    4.952972   -3.065136    0.017008
  41 C     6.0000    0    12.011   10.474752    8.199522   -2.135391
  42 C     6.0000    0    12.011    7.691185   -2.794905   -0.177634
  43 C     6.0000    0    12.011    7.755436    5.198637   -0.039684
  44 C     6.0000    0    12.011    9.499653    5.157063    1.957756
  45 C     6.0000    0    12.011   11.652051    6.631049    1.848152
  46 C     6.0000    0    12.011   14.397823    9.737759   -0.217319
  47 C     6.0000    0    12.011    8.165507   -0.279679   -0.173855
  48 C     6.0000    0    12.011    5.716422    0.971319    0.028346
  49 C     6.0000    0    12.011    8.290229    6.768999   -2.107045
  50 C     6.0000    0    12.011    5.415955    3.620715    0.024566
  51 N     7.0000    0    14.007   12.118814    8.118263   -0.179524
  52 H     1.0000    0     1.008   -5.247769   14.021768   -1.341706
  53 H     1.0000    0     1.008    4.297237    9.006435    0.153068
  54 H     1.0000    0     1.008   -8.596364    5.931850    1.729099
  55 H     1.0000    0     1.008  -11.138046    9.888937    1.768784
  56 H     1.0000    0     1.008  -11.000096   14.375147   -1.517450
  57 H     1.0000    0     1.008  -11.128597   14.273101    1.859491
  58 H     1.0000    0     1.008   -8.679512   16.009760    0.319364
  59 H     1.0000    0     1.008   -0.627389    9.981533    0.130391
  60 H     1.0000    0     1.008   -2.467982   10.236646   -1.517450
  61 H     1.0000    0     1.008    0.343930    2.025786    0.009449
  62 H     1.0000    0     1.008   -0.345820   -2.040904   -0.039684
  63 H     1.0000    0     1.008  -11.081354   -9.376821    3.581031
  64 H     1.0000    0     1.008   -9.059347    4.293458    0.262672
  65 H     1.0000    0     1.008   -9.070685   -4.081808   -3.768114
  66 H     1.0000    0     1.008  -12.927616   -6.768999   -3.577252
  67 H     1.0000    0     1.008  -15.926612   -8.571798    1.031790
  68 H     1.0000    0     1.008  -15.034661  -10.085468   -1.853821
  69 H     1.0000    0     1.008  -14.089798  -11.408277    1.103600
  70 H     1.0000    0     1.008   -9.990982   -0.650066    0.188973
  71 H     1.0000    0     1.008   -7.143165   -6.804904    3.679297
  72 H     1.0000    0     1.008    6.778448  -12.978639   -3.482765
  73 H     1.0000    0     1.008   -4.301017   -9.021553   -0.094486
  74 H     1.0000    0     1.008    7.018443   -7.037340    3.639613
  75 H     1.0000    0     1.008    9.622485  -10.950963    3.535678
  76 H     1.0000    0     1.008   11.725751  -13.849803   -0.829590
  77 H     1.0000    0     1.008   10.191293  -14.960962    1.969095
  78 H     1.0000    0     1.008    8.993207  -15.822677   -1.065806
  79 H     1.0000    0     1.008    0.621720   -9.996651   -0.015118
  80 H     1.0000    0     1.008    4.055352   -9.150054   -3.666069
  81 H     1.0000    0     1.008   10.975529    9.422175   -3.696304
  82 H     1.0000    0     1.008    9.048009   -4.310465   -0.349599
  83 H     1.0000    0     1.008    9.184069    3.994881    3.613156
  84 H     1.0000    0     1.008   13.041000    6.672623    3.348595
  85 H     1.0000    0     1.008   13.951848   11.544337    0.672743
  86 H     1.0000    0     1.008   15.900156    8.791006    0.822031
  87 H     1.0000    0     1.008   14.968521   10.034446   -2.173185
  88 H     1.0000    0     1.008    9.983423    0.634948   -0.338261
  89 H     1.0000    0     1.008    7.029781    6.863485   -3.717091

--------------------------------
INTERNAL COORDINATES (ANGSTROEM)
--------------------------------
 C      0   0   0     0.000000000000     0.00000000     0.00000000
 C      1   0   0     5.200137113577     0.00000000     0.00000000
 C      1   2   0     2.413699649915    54.49169709     0.00000000
 C      3   1   2     1.403499198432    87.93452861   159.72631821
 C      4   3   1     1.381075667731   120.10725667     0.15339352
 C      5   4   3     2.447441521263   152.56861579     1.59901130
 C      2   1   3     1.368114030335    17.17175677   352.84078755
 C      7   2   1     1.434084376876   108.05010202   162.56547621
 C      2   1   3     1.434123425651   124.41632747    13.87889071
 C      1   2   3     1.382058247687    27.71343797   337.67533992
 N      1   2   3     1.351880542060   140.30535522    32.85266553
 N      9   2   1     1.376127174356   106.58526707   352.83101307
 N     12   9   2     2.925062050624   168.53581413   171.12065651
 N     13  12   9     2.954513327098    91.55032014    11.12112580
 N     14  13  12     2.925371258490    88.43092389   359.84326247
 C      8   7   2     1.404790019896   127.24786865   181.11170171
 C     13  12   9     1.366535034311    81.72106996   188.00453233
 C     14  13  12     5.758810554272    80.56209567   166.76250791
 C     17  13  12     1.459010623676   111.08861209   183.82872609
 C     18  14  13     2.412235892279    27.27532823    36.33507194
 C     20  18  14     1.402692767501    87.95206320   148.94598259
 C     21  20  18     1.382106725257   120.14573887   359.70382047
 C     18  14  13     2.446510985056   144.15733107    82.80075377
 C     19  17  13     1.353610726908   106.29293361   359.75308708
 C     13  12   9     1.366813447402   172.21332906    33.46711076
 C     18  14  13     1.380960173213    15.08449437   309.23336894
 N     22  21  20     1.352773077792   120.73759875     0.27865223
 C     25  13  17     1.410897586645   125.60330303   182.37774668
 C     14  13  12     1.376642291955    80.24689249   177.85461986
 C     14  13  12     5.764089607215   164.51507311   312.20821879
 C     29  14  13     1.435600919476   106.58649366   178.76395472
 C     30  14  13     2.413316804732    27.10625047    82.12560436
 C     32  30  14     1.403734305344    87.90059683   149.76154742
 C     33  32  30     1.380694028378   120.14881443   359.74174632
 C     34  33  32     2.448777858443   152.49203239     2.45173620
 C     31  29  14     1.368160809262   108.16950133     0.70383075
 C     14  13  12     1.376239804685   169.26375223   353.09862627
 C     30  14  13     1.380907310430    14.68948582   353.70041132
 N     34  33  32     1.352658863128   120.85575621     0.19603406
 C     37  14  29     1.404717053360   126.01551127   180.90772073
 C     15  14  13     1.366491126938    81.61824056   183.09049352
 C      2   1   3     4.249062720177   142.14418448   154.68828309
 C     41  15  14     1.459677704153   111.05201287   175.08990246
 C     42   2   1     2.412953791518    41.78584867   187.82543271
 C     44  42   2     1.403446472082    87.95153797   233.97558675
 C     45  44  42     1.381696421071   120.11137308     0.19721020
 C     42   2   1     2.450019795838   135.97209175    98.14028181
 C     43  41  15     1.354461516618   106.26758155     0.30894352
 C     15  14  13     1.367461151185   171.87382904   332.35056460
 C     42   2   1     1.381886391857    32.59078432   236.68071190
 C      9   2   1     1.404988612053   126.98745415   173.83535060
 N     42   2   1     1.352765315936   113.57249190   125.87687100
 H      1   2   3     1.082279538751    99.53302950   188.71838164
 H      2   1   3     1.079907866440   110.16321097   188.59063002
 H      4   3   1     1.082724803447   121.10278298   179.52963809
 H      5   4   3     1.082357149928   122.78364448   179.41100481
 H      6   5   4     1.093064042040   104.40962438   100.08137168
 H      6   5   4     1.089046371832    84.69752740   209.55265714
 H      6   5   4     1.089803652040   133.86487197   322.43847990
 H      7   2   1     1.079807853278   126.66122480   342.80389000
 H     10   1   2     1.083684917308   118.70722871   323.29803798
 H     12   9   2     1.016297692608   125.29023241   180.00180175
 H     14  13  12     1.014936943854    44.97226959   359.42596618
 H     18  14  13     1.082871645210   128.03556573   234.20482432
 H     19  17  13     1.080893611786   126.41830519   178.11313280
 H     21  20  18     1.083569563987   121.05669627   180.67006309
 H     22  21  20     1.082483256222   122.73097286   180.59748951
 H     23  18  14     1.092105306278   103.92715769   234.93429879
 H     23  18  14     1.088871893291   134.19244188    12.25587044
 H     23  18  14     1.089833473518    84.85857450   125.45241208
 H     24  19  17     1.080075460327   127.28078426   178.44613241
 H     26  18  14     1.083408048706   118.76995697   244.94906660
 H     30  14  13     1.082703098730   127.99711412   279.66882698
 H     31  29  14     1.079759695488   125.22293469   180.92530585
 H     33  32  30     1.083188810873   121.01964473   180.74284758
 H     34  33  32     1.082494341787   122.70821597   180.59516895
 H     35  34  33     1.092652735319   105.73575241    97.19771933
 H     35  34  33     1.089462711615    84.05943581   206.43036958
 H     35  34  33     1.089268102902   133.08365142   318.50306270
 H     36  31  29     1.079439669458   126.61599965   178.98859863
 H     38  30  73     1.083742127999   118.77264435   359.90091293
 H     42   2   1     1.082178358682   119.31790784   342.50840146
 H     43  41  15     1.080281907652   126.36969097   182.06329380
 H     45  44  42     1.083277434455   121.10105945   179.58025624
 H     46  45  44     1.082194529648   122.72144639   179.46906377
 H     47  42   2     1.091546151109   106.65128841   315.16475048
 H     47  42   2     1.088818625851   132.46019523    94.52397119
 H     47  42   2     1.089531091801    83.63838232   206.04504406
 H     48  43  41     1.080402239909   127.23657387   181.62955349
 H     50  42   2     1.083186502870   118.77001737    94.71359229

---------------------------
INTERNAL COORDINATES (A.U.)
---------------------------
 C      0   0   0     0.000000000000     0.00000000     0.00000000
 C      1   0   0     9.826835003500     0.00000000     0.00000000
 C      1   2   0     4.561231307881    54.49169709     0.00000000
 C      3   1   2     2.652229114215    87.93452861   159.72631821
 C      4   3   1     2.609854782235   120.10725667     0.15339352
 C      5   4   3     4.624994203974   152.56861579     1.59901130
 C      2   1   3     2.585360837309    17.17175677   352.84078755
 C      7   2   1     2.710026725231   108.05010202   162.56547621
 C      2   1   3     2.710100516721   124.41632747    13.87889071
 C      1   2   3     2.611711589256    27.71343797   337.67533992
 N      1   2   3     2.554683990270   140.30535522    32.85266553
 N      9   2   1     2.600503484979   106.58526707   352.83101307
 N     12   9   2     5.527566200405   168.53581413   171.12065651
 N     13  12   9     5.583221047236    91.55032014    11.12112580
 N     14  13  12     5.528150518591    88.43092389   359.84326247
 C      8   7   2     2.654668413270   127.24786865   181.11170171
 C     13  12   9     2.582376967257    81.72106996   188.00453233
 C     14  13  12    10.882574804710    80.56209567   166.76250791
 C     17  13  12     2.757130505230   111.08861209   183.82872609
 C     18  14  13     4.558465206823    27.27532823    36.33507194
 C     20  18  14     2.650705180609    87.95206320   148.94598259
 C     21  20  18     2.611803198586   120.14573887   359.70382047
 C     18  14  13     4.623235745386   144.15733107    82.80075377
 C     19  17  13     2.557953565794   106.29293361   359.75308708
 C     13  12   9     2.582903091751   172.21332906    33.46711076
 C     18  14  13     2.609636529225    15.08449437   309.23336894
 N     22  21  20     2.556370638369   120.73759875     0.27865223
 C     25  13  17     2.666210041769   125.60330303   182.37774668
 C     14  13  12     2.601476916169    80.24689249   177.85461986
 C     14  13  12    10.892550769017   164.51507311   312.20821879
 C     29  14  13     2.712892575415   106.58649366   178.76395472
 C     30  14  13     4.560507835333    27.10625047    82.12560436
 C     32  30  14     2.652673401891    87.90059683   149.76154742
 C     33  32  30     2.609133588376   120.14881443   359.74174632
 C     34  33  32     4.627519515267   152.49203239     2.45173620
 C     31  29  14     2.585449236669   108.16950133     0.70383075
 C     14  13  12     2.600716325456   169.26375223   353.09862627
 C     30  14  13     2.609536633043    14.68948582   353.70041132
 N     34  33  32     2.556154803934   120.85575621     0.19603406
 C     37  14  29     2.654530526499   126.01551127   180.90772073
 C     15  14  13     2.582293994346    81.61824056   183.09049352
 C      2   1   3     8.029564866989   142.14418448   154.68828309
 C     41  15  14     2.758391104639   111.05201287   175.08990246
 C     42   2   1     4.559821839776    41.78584867   187.82543271
 C     44  42   2     2.652129475853    87.95153797   233.97558675
 C     45  44  42     2.611027836043   120.11137308     0.19721020
 C     42   2   1     4.629866436820   135.97209175    98.14028181
 C     43  41  15     2.559561325344   106.26758155     0.30894352
 C     15  14  13     2.584127074516   171.87382904   332.35056460
 C     42   2   1     2.611386828803    32.59078432   236.68071190
 C      9   2   1     2.655043698059   126.98745415   173.83535060
 N     42   2   1     2.556355970587   113.57249190   125.87687100
 H      1   2   3     2.045211928587    99.53302950   188.71838164
 H      2   1   3     2.040730117440   110.16321097   188.59063002
 H      4   3   1     2.046053356919   121.10278298   179.52963809
 H      5   4   3     2.045358592455   122.78364448   179.41100481
 H      6   5   4     2.065591686292   104.40962438   100.08137168
 H      6   5   4     2.057999389903    84.69752740   209.55265714
 H      6   5   4     2.059430442103   133.86487197   322.43847990
 H      7   2   1     2.040541119952   126.66122480   342.80389000
 H     10   1   2     2.047867709172   118.70722871   323.29803798
 H     12   9   2     1.920524309565   125.29023241   180.00180175
 H     14  13  12     1.917952867083    44.97226959   359.42596618
 H     18  14  13     2.046330847636   128.03556573   234.20482432
 H     19  17  13     2.042592906181   126.41830519   178.11313280
 H     21  20  18     2.047649722989   121.05669627   180.67006309
 H     22  21  20     2.045596898814   122.73097286   180.59748951
 H     23  18  14     2.063779938267   103.92715769   234.93429879
 H     23  18  14     2.057669673245   134.19244188    12.25587044
 H     23  18  14     2.059486796529    84.85857450   125.45241208
 H     24  19  17     2.041046823986   127.28078426   178.44613241
 H     26  18  14     2.047344503340   118.76995697   244.94906660
 H     30  14  13     2.046012340948   127.99711412   279.66882698
 H     31  29  14     2.040450114918   125.22293469   180.92530585
 H     33  32  30     2.046930203877   121.01964473   180.74284758
 H     34  33  32     2.045617847496   122.70821597   180.59516895
 H     35  34  33     2.064814429233   105.73575241    97.19771933
 H     35  34  33     2.058786158072    84.05943581   206.43036958
 H     35  34  33     2.058418400901   133.08365142   318.50306270
 H     36  31  29     2.039845353366   126.61599965   178.98859863
 H     38  30  73     2.047975821711   118.77264435   359.90091293
 H     42   2   1     2.045020725966   119.31790784   342.50840146
 H     43  41  15     2.041436952892   126.36969097   182.06329380
 H     45  44  42     2.047097678177   121.10105945   179.58025624
 H     46  45  44     2.045051284662   122.72144639   179.46906377
 H     47  42   2     2.062723288131   106.65128841   315.16475048
 H     47  42   2     2.057569012371   132.46019523    94.52397119
 H     47  42   2     2.058915377895    83.63838232   206.04504406
 H     48  43  41     2.041664347903   127.23657387   181.62955349
 H     50  42   2     2.046925842384   118.77001737    94.71359229

---------------------
BASIS SET INFORMATION
---------------------
There are 3 groups of distinct atoms

 Group   1 Type C   : 17s4p1d contracted to 3s2p1d pattern {881/31/1}
 Group   2 Type N   : 17s4p1d contracted to 3s2p1d pattern {881/31/1}
 Group   3 Type H   : 4s1p contracted to 2s1p pattern {31/1}

Atom   0C    basis set group =>   1
Atom   1N    basis set group =>   2
Atom   2C    basis set group =>   1
Atom   3N    basis set group =>   2
Atom   4C    basis set group =>   1
Atom   5N    basis set group =>   2
Atom   6C    basis set group =>   1
Atom   7N    basis set group =>   2
Atom   8C    basis set group =>   1
Atom   9N    basis set group =>   2
Atom  10C    basis set group =>   1
Atom  11N    basis set group =>   2
Atom  12C    basis set group =>   1
Atom  13N    basis set group =>   2
Atom  14C    basis set group =>   1
Atom  15N    basis set group =>   2
Atom  16C    basis set group =>   1
Atom  17C    basis set group =>   1
Atom  18C    basis set group =>   1
Atom  19C    basis set group =>   1
Atom  20C    basis set group =>   1
Atom  21C    basis set group =>   1
Atom  22C    basis set group =>   1
Atom  23C    basis set group =>   1
Atom  24C    basis set group =>   1
Atom  25C    basis set group =>   1
Atom  26C    basis set group =>   1
Atom  27C    basis set group =>   1
Atom  28C    basis set group =>   1
Atom  29C    basis set group =>   1
Atom  30C    basis set group =>   1
Atom  31C    basis set group =>   1
Atom  32C    basis set group =>   1
Atom  33C    basis set group =>   1
Atom  34C    basis set group =>   1
Atom  35C    basis set group =>   1
Atom  36C    basis set group =>   1
Atom  37C    basis set group =>   1
Atom  38C    basis set group =>   1
Atom  39C    basis set group =>   1
Atom  40C    basis set group =>   1
Atom  41C    basis set group =>   1
Atom  42C    basis set group =>   1
Atom  43C    basis set group =>   1
Atom  44C    basis set group =>   1
Atom  45C    basis set group =>   1
Atom  46C    basis set group =>   1
Atom  47C    basis set group =>   1
Atom  48C    basis set group =>   1
Atom  49C    basis set group =>   1
Atom  50C    basis set group =>   1
Atom  51C    basis set group =>   1
Atom  52H    basis set group =>   3
Atom  53H    basis set group =>   3
Atom  54H    basis set group =>   3
Atom  55H    basis set group =>   3
Atom  56H    basis set group =>   3
Atom  57H    basis set group =>   3
Atom  58H    basis set group =>   3
Atom  59H    basis set group =>   3
Atom  60H    basis set group =>   3
Atom  61H    basis set group =>   3
Atom  62H    basis set group =>   3
Atom  63H    basis set group =>   3
Atom  64H    basis set group =>   3
Atom  65H    basis set group =>   3
Atom  66H    basis set group =>   3
Atom  67H    basis set group =>   3
Atom  68H    basis set group =>   3
Atom  69H    basis set group =>   3
Atom  70H    basis set group =>   3
Atom  71H    basis set group =>   3
Atom  72H    basis set group =>   3
Atom  73H    basis set group =>   3
Atom  74H    basis set group =>   3
Atom  75H    basis set group =>   3
Atom  76H    basis set group =>   3
Atom  77H    basis set group =>   3
Atom  78H    basis set group =>   3
Atom  79H    basis set group =>   3
Atom  80H    basis set group =>   3
Atom  81H    basis set group =>   3
Atom  82H    basis set group =>   3
Atom  83H    basis set group =>   3
Atom  84H    basis set group =>   3
Atom  85H    basis set group =>   3
Atom  86H    basis set group =>   3
Atom  87H    basis set group =>   3
Atom  88H    basis set group =>   3
Atom  89H    basis set group =>   3


           ************************************************************
           *        Program running with 16 parallel MPI-processes    *
           *              working on a common directory               *
           ************************************************************
------------------------------------------------------------------------------
                           ORCA GTO INTEGRAL CALCULATION
------------------------------------------------------------------------------
------------------------------------------------------------------------------
                   ___                                                        
                  /   \      - P O W E R E D   B Y -                         
                 /     \                                                     
                 |  |  |   _    _      __       _____    __    __             
                 |  |  |  | |  | |    /  \     |  _  \  |  |  /  |          
                  \  \/   | |  | |   /    \    | | | |  |  | /  /          
                 / \  \   | |__| |  /  /\  \   | |_| |  |  |/  /          
                |  |  |   |  __  | /  /__\  \  |    /   |      \           
                |  |  |   | |  | | |   __   |  |    \   |  |\   \          
                \     /   | |  | | |  |  |  |  | |\  \  |  | \   \       
                 \___/    |_|  |_| |__|  |__|  |_| \__\ |__|  \__/        
                                                                              
                      - O R C A' S   B I G   F R I E N D -                    
                                      &                                       
                       - I N T E G R A L  F E E D E R -                       
                                                                              
 v1 FN, 2020, v2 2021                                                         
------------------------------------------------------------------------------


Reading SHARK input file /scratch/allen/tmpyp4_amber_gaff2/conf1/conf1/Conf26.orca.SHARKINP.tmp ... ok
----------------------
SHARK INTEGRAL PACKAGE
----------------------

Number of atoms                             ...     90
Number of basis functions                   ...   1230
Number of shells                            ...    738
Maximum angular momentum                    ...      2
Integral batch strategy                     ... SHARK/LIBINT Hybrid
RI-J (if used) integral strategy            ... SPLIT-RIJ (Revised 2003 algorithm where possible)
Printlevel                                  ...      1
Contraction scheme used                     ... PARTIAL GENERAL contraction
Coulomb Range Separation                    ... NOT USED
Exchange Range Separation                   ... NOT USED
Finite Nucleus Model                        ... NOT USED
Auxiliary Coulomb fitting basis             ... NOT available
Auxiliary J/K fitting basis                 ... NOT available
Auxiliary Correlation fitting basis         ... NOT available
Auxiliary 'external' fitting basis          ... NOT available
Integral threshold                          ...     2.500000e-11
Primitive cut-off                           ...     2.500000e-12
Primitive pair pre-selection threshold      ...     2.500000e-12

Calculating pre-screening integrals         ... done (  0.1 sec) Dimension = 738
Calculating pre-screening integrals (ORCA)  ... done (  0.3 sec) Dimension = 426
Organizing shell pair data                  ... done (  0.8 sec)
Shell pair information
Total number of shell pairs                 ...    272691
Shell pairs after pre-screening             ...     71698
Total number of primitive shell pairs       ...    422091
Primitive shell pairs kept                  ...     92566
          la=0 lb=0:  29434 shell pairs
          la=1 lb=0:  26016 shell pairs
          la=1 lb=1:   4704 shell pairs
          la=2 lb=0:   7891 shell pairs
          la=2 lb=1:   3124 shell pairs
          la=2 lb=2:    529 shell pairs

Calculating one electron integrals          ... done (  0.3 sec)
Calculating Nuclear repulsion               ... done (  0.0 sec) ENN=   6232.900681305083 Eh

SHARK setup successfully completed in   2.2 seconds

Maximum memory used throughout the entire GTOINT-calculation: 99.1 MB


           ************************************************************
           *        Program running with 16 parallel MPI-processes    *
           *              working on a common directory               *
           ************************************************************
-------------------------------------------------------------------------------
                                 ORCA SCF
-------------------------------------------------------------------------------

------------
SCF SETTINGS
------------
Hamiltonian:
 Ab initio Hamiltonian  Method          .... Hartree-Fock(GTOs)


General Settings:
 Integral files         IntName         .... /scratch/allen/tmpyp4_amber_gaff2/conf1/conf1/Conf26.orca
 Hartree-Fock type      HFTyp           .... RHF
 Total Charge           Charge          ....    0
 Multiplicity           Mult            ....    1
 Number of Electrons    NEL             ....  358
 Basis Dimension        Dim             ....  918
 Nuclear Repulsion      ENuc            ....   6232.9006813051 Eh

Convergence Acceleration:
 DIIS                   CNVDIIS         .... on
   Start iteration      DIISMaxIt       ....    12
   Startup error        DIISStart       ....  0.200000
   # of expansion vecs  DIISMaxEq       ....     5
   Bias factor          DIISBfac        ....   1.050
   Max. coefficient     DIISMaxC        ....  10.000
 Trust-Rad. Augm. Hess. CNVTRAH         .... auto
   Auto Start mean grad. ratio tolernc. ....  1.125000
   Auto Start start iteration           ....    20
   Auto Start num. interpolation iter.  ....    10
   Max. Number of Micro iterations      ....    16
   Max. Number of Macro iterations      .... Maxiter - #DIIS iter
   Number of Davidson start vectors     ....     2
   Converg. threshold I  (grad. norm)   ....   1.000e-05
   Converg. threshold II (energy diff.) ....   1.000e-08
   Grad. Scal. Fac. for Micro threshold ....   0.100
   Minimum threshold for Micro iter.    ....   0.010
   NR start threshold (gradient norm)   ....   0.001
   Initial trust radius                 ....   0.400
   Minimum AH scaling param. (alpha)    ....   1.000
   Maximum AH scaling param. (alpha)    .... 1000.000
   Orbital update algorithm             .... Taylor
   White noise on init. David. guess    .... on
   Maximum white noise                  ....   0.010
   Quad. conv. algorithm                .... NR
 SOSCF                  CNVSOSCF        .... on
   Start iteration      SOSCFMaxIt      ....   150
   Startup grad/error   SOSCFStart      ....  0.003300
 Level Shifting         CNVShift        .... on
   Level shift para.    LevelShift      ....    0.2500
   Turn off err/grad.   ShiftErr        ....    0.0010
 Zerner damping         CNVZerner       .... off
 Static damping         CNVDamp         .... on
   Fraction old density DampFac         ....    0.7000
   Max. Damping (<1)    DampMax         ....    0.9800
   Min. Damping (>=0)   DampMin         ....    0.0000
   Turn off err/grad.   DampErr         ....    0.1000
 Fernandez-Rico         CNVRico         .... off

SCF Procedure:
 Maximum # iterations   MaxIter         ....   125
 SCF integral mode      SCFMode         .... Direct
   Integral package                     .... SHARK and LIBINT hybrid scheme
 Reset frequency        DirectResetFreq ....    20
 Integral Threshold     Thresh          ....  2.500e-11 Eh
 Primitive CutOff       TCut            ....  2.500e-12 Eh

Convergence Tolerance:
 Convergence Check Mode ConvCheckMode   .... Total+1el-Energy
 Convergence forced     ConvForced      .... 1
 Energy Change          TolE            ....  1.000e-08 Eh
 1-El. energy change                    ....  1.000e-05 Eh
 Orbital Gradient       TolG            ....  1.000e-05
 Orbital Rotation angle TolX            ....  1.000e-05
 DIIS Error             TolErr          ....  5.000e-07


Diagonalization of the overlap matrix:
Smallest eigenvalue                        ... 2.124e-04
Time for diagonalization                   ...    0.392 sec
Threshold for overlap eigenvalues          ... 1.000e-08
Number of eigenvalues below threshold      ... 0
Time for construction of square roots      ...    0.247 sec
Total time needed                          ...    0.645 sec

Time for model grid setup =    1.048 sec

------------------------------
INITIAL GUESS: MODEL POTENTIAL
------------------------------
Loading Hartree-Fock densities                     ... done
Calculating cut-offs                               ... done
Initializing the effective Hamiltonian             ... done
Setting up the integral package (SHARK)            ... done
Starting the Coulomb interaction                   ... done (   1.2 sec)
Reading the grid                                   ... done
Mapping shells                                     ... done
Starting the XC term evaluation                    ... done (   0.2 sec)
Transforming the Hamiltonian                       ... done (   0.2 sec)
Diagonalizing the Hamiltonian                      ... done (   0.3 sec)
Back transforming the eigenvectors                 ... done (   0.1 sec)
Now organizing SCF variables                       ... done
                      ------------------
                      INITIAL GUESS DONE (   3.1 sec)
                      ------------------
--------------
SCF ITERATIONS
--------------
ITER       Energy         Delta-E        Max-DP      RMS-DP      [F,P]     Damp
               ***  Starting incremental Fock matrix formation  ***
  0  -2121.6611160552   0.000000000000 0.07478608  0.00123393  0.2317343 0.7000
  1  -2122.3107508945  -0.649634839296 0.05661691  0.00100500  0.1436588 0.7000
                               ***Turning on DIIS***
  2  -2122.7151543604  -0.404403465825 0.13229568  0.00227927  0.0802614 0.0000
  3  -2117.9755157105   4.739638649902 0.05037045  0.00068465  0.0436902 0.0000
  4  -2123.3976062590  -5.422090548556 0.01483079  0.00022748  0.0087518 0.0000
  5  -2123.5461534393  -0.148547180252 0.00703696  0.00013292  0.0049095 0.0000
  6  -2123.5304281378   0.015725301428 0.00413141  0.00008530  0.0021149 0.0000
  7  -2123.6255710728  -0.095142934950 0.00306344  0.00006731  0.0015903 0.0000
  8  -2123.6348717281  -0.009300655314 0.00326027  0.00006402  0.0014862 0.0000
  9  -2123.6060429721   0.028828756036 0.00260749  0.00004513  0.0011920 0.0000
 10  -2123.6147262449  -0.008683272868 0.00522776  0.00009419  0.0009269 0.0000
                      *** Initiating the SOSCF procedure ***
                           *** Shutting down DIIS ***
                      *** Re-Reading the Fockian *** 
                      *** Removing any level shift *** 
ITER      Energy       Delta-E        Grad      Rot      Max-DP    RMS-DP
 11  -2123.50680316   0.1079230896  0.000182  0.000182  0.000240  0.000005
               *** Restarting incremental Fock matrix formation ***
 12  -2123.57306856  -0.0662654070  0.000887  0.006156  0.001406  0.000035
 13  -2123.57317639  -0.0001078243  0.001103  0.030656  0.006455  0.000136
 14  -2123.57336041  -0.0001840188  0.000357  0.001559  0.000645  0.000012
 15  -2123.57337598  -0.0000155713  0.000184  0.002597  0.000640  0.000016
 16  -2123.57338456  -0.0000085786  0.000149  0.002551  0.000450  0.000010
 17  -2123.57338749  -0.0000029314  0.000139  0.001863  0.000321  0.000007
 18  -2123.57338904  -0.0000015558  0.000068  0.001037  0.000268  0.000004
 19  -2123.57338985  -0.0000008059  0.000046  0.001149  0.000214  0.000004
 20  -2123.57339023  -0.0000003801  0.000027  0.000788  0.000123  0.000003
 21  -2123.57339043  -0.0000002062  0.000025  0.000970  0.000154  0.000003
 22  -2123.57339062  -0.0000001834  0.000022  0.000850  0.000138  0.000003
 23  -2123.57339073  -0.0000001107  0.000015  0.000489  0.000080  0.000002
 24  -2123.57339078  -0.0000000552  0.000009  0.000355  0.000055  0.000001
 25  -2123.57339082  -0.0000000352  0.000009  0.000171  0.000040  0.000001
 26  -2123.57339084  -0.0000000166  0.000006  0.000122  0.000033  0.000001
 27  -2123.57339084  -0.0000000046  0.000003  0.000092  0.000023  0.000000
                  ***Gradient check signals convergence***
              ***Rediagonalizing the Fockian in SOSCF/NRSCF***

               *****************************************************
               *                     SUCCESS                       *
               *           SCF CONVERGED AFTER  28 CYCLES          *
               *****************************************************


----------------
TOTAL SCF ENERGY
----------------

Total Energy       :        -2123.57339084 Eh          -57785.36972 eV

Components:
Nuclear Repulsion  :         6232.90068131 Eh          169605.85013 eV
Electronic Energy  :        -8356.47407214 Eh         -227391.21985 eV
One Electron Energy:       -15306.48193059 Eh         -416510.54832 eV
Two Electron Energy:         6950.00785845 Eh          189119.32847 eV

Virial components:
Potential Energy   :        -4245.88517131 Eh         -115536.40927 eV
Kinetic Energy     :         2122.31178047 Eh           57751.03955 eV
Virial Ratio       :            2.00059445


---------------
SCF CONVERGENCE
---------------

  Last Energy change         ...    2.0391e-09  Tolerance :   1.0000e-08
  Last MAX-Density change    ...    1.1287e-05  Tolerance :   1.0000e-07
  Last RMS-Density change    ...    2.2765e-07  Tolerance :   5.0000e-09
  Last Orbital Gradient      ...    2.2241e-06  Tolerance :   1.0000e-05
  Last Orbital Rotation      ...    5.4407e-05  Tolerance :   1.0000e-05

             **** THE GBW FILE WAS UPDATED (/scratch/allen/tmpyp4_amber_gaff2/conf1/conf1/Conf26.orca.gbw) ****
             **** DENSITY /scratch/allen/tmpyp4_amber_gaff2/conf1/conf1/Conf26.orca.scfp WAS UPDATED ****
             **** ENERGY FILE WAS UPDATED (/scratch/allen/tmpyp4_amber_gaff2/conf1/conf1/Conf26.orca.en.tmp) ****
             **** THE GBW FILE WAS UPDATED (/scratch/allen/tmpyp4_amber_gaff2/conf1/conf1/Conf26.orca.gbw) ****
             **** DENSITY /scratch/allen/tmpyp4_amber_gaff2/conf1/conf1/Conf26.orca.scfp WAS UPDATED ****
----------------
ORBITAL ENERGIES
----------------

  NO   OCC          E(Eh)            E(eV) 
   0   2.0000     -15.676215      -426.5715 
   1   2.0000     -15.633713      -425.4150 
   2   2.0000     -15.631735      -425.3611 
   3   2.0000     -15.590117      -424.2286 
   4   2.0000     -15.524743      -422.4497 
   5   2.0000     -15.515994      -422.2117 
   6   2.0000     -15.453245      -420.5042 
   7   2.0000     -15.440506      -420.1575 
   8   2.0000     -11.326480      -308.2092 
   9   2.0000     -11.325726      -308.1887 
  10   2.0000     -11.325337      -308.1781 
  11   2.0000     -11.299165      -307.4659 
  12   2.0000     -11.298287      -307.4420 
  13   2.0000     -11.292614      -307.2877 
  14   2.0000     -11.290905      -307.2411 
  15   2.0000     -11.286666      -307.1258 
  16   2.0000     -11.286513      -307.1216 
  17   2.0000     -11.278698      -306.9090 
  18   2.0000     -11.272125      -306.7301 
  19   2.0000     -11.260884      -306.4242 
  20   2.0000     -11.259906      -306.3976 
  21   2.0000     -11.254960      -306.2630 
  22   2.0000     -11.252332      -306.1915 
  23   2.0000     -11.237437      -305.7862 
  24   2.0000     -11.236495      -305.7606 
  25   2.0000     -11.230986      -305.6107 
  26   2.0000     -11.230180      -305.5887 
  27   2.0000     -11.229685      -305.5753 
  28   2.0000     -11.229569      -305.5721 
  29   2.0000     -11.210125      -305.0430 
  30   2.0000     -11.208860      -305.0086 
  31   2.0000     -11.197727      -304.7056 
  32   2.0000     -11.190543      -304.5102 
  33   2.0000     -11.190021      -304.4959 
  34   2.0000     -11.188873      -304.4647 
  35   2.0000     -11.187887      -304.4379 
  36   2.0000     -11.187237      -304.4202 
  37   2.0000     -11.185978      -304.3859 
  38   2.0000     -11.184335      -304.3412 
  39   2.0000     -11.173358      -304.0425 
  40   2.0000     -11.172008      -304.0058 
  41   2.0000     -11.170741      -303.9713 
  42   2.0000     -11.167488      -303.8828 
  43   2.0000     -11.160534      -303.6936 
  44   2.0000     -11.160501      -303.6927 
  45   2.0000     -11.157723      -303.6171 
  46   2.0000     -11.155725      -303.5627 
  47   2.0000     -11.155663      -303.5610 
  48   2.0000     -11.147780      -303.3465 
  49   2.0000     -11.137866      -303.0767 
  50   2.0000     -11.130745      -302.8830 
  51   2.0000     -11.119577      -302.5791 
  52   2.0000      -1.357345       -36.9352 
  53   2.0000      -1.321000       -35.9462 
  54   2.0000      -1.319527       -35.9062 
  55   2.0000      -1.283616       -34.9290 
  56   2.0000      -1.225512       -33.3479 
  57   2.0000      -1.210484       -32.9390 
  58   2.0000      -1.172532       -31.9062 
  59   2.0000      -1.151244       -31.3269 
  60   2.0000      -1.141134       -31.0518 
  61   2.0000      -1.110155       -30.2089 
  62   2.0000      -1.108782       -30.1715 
  63   2.0000      -1.079462       -29.3736 
  64   2.0000      -1.079263       -29.3682 
  65   2.0000      -1.045195       -28.4412 
  66   2.0000      -1.044203       -28.4142 
  67   2.0000      -1.039421       -28.2841 
  68   2.0000      -1.014608       -27.6089 
  69   2.0000      -1.013359       -27.5749 
  70   2.0000      -1.009481       -27.4694 
  71   2.0000      -0.992891       -27.0179 
  72   2.0000      -0.986467       -26.8431 
  73   2.0000      -0.980538       -26.6818 
  74   2.0000      -0.972392       -26.4601 
  75   2.0000      -0.961437       -26.1620 
  76   2.0000      -0.953858       -25.9558 
  77   2.0000      -0.946064       -25.7437 
  78   2.0000      -0.935403       -25.4536 
  79   2.0000      -0.918507       -24.9939 
  80   2.0000      -0.907968       -24.7071 
  81   2.0000      -0.894780       -24.3482 
  82   2.0000      -0.875148       -23.8140 
  83   2.0000      -0.871764       -23.7219 
  84   2.0000      -0.869776       -23.6678 
  85   2.0000      -0.857717       -23.3397 
  86   2.0000      -0.841717       -22.9043 
  87   2.0000      -0.835590       -22.7375 
  88   2.0000      -0.825083       -22.4516 
  89   2.0000      -0.797423       -21.6990 
  90   2.0000      -0.790743       -21.5172 
  91   2.0000      -0.752193       -20.4682 
  92   2.0000      -0.746815       -20.3219 
  93   2.0000      -0.732994       -19.9458 
  94   2.0000      -0.725046       -19.7295 
  95   2.0000      -0.722144       -19.6505 
  96   2.0000      -0.716760       -19.5040 
  97   2.0000      -0.713203       -19.4072 
  98   2.0000      -0.708944       -19.2913 
  99   2.0000      -0.697187       -18.9714 
 100   2.0000      -0.696318       -18.9478 
 101   2.0000      -0.686318       -18.6757 
 102   2.0000      -0.682605       -18.5746 
 103   2.0000      -0.681961       -18.5571 
 104   2.0000      -0.678254       -18.4562 
 105   2.0000      -0.673860       -18.3367 
 106   2.0000      -0.670645       -18.2492 
 107   2.0000      -0.660435       -17.9713 
 108   2.0000      -0.657159       -17.8822 
 109   2.0000      -0.652907       -17.7665 
 110   2.0000      -0.651480       -17.7277 
 111   2.0000      -0.643980       -17.5236 
 112   2.0000      -0.643513       -17.5109 
 113   2.0000      -0.638740       -17.3810 
 114   2.0000      -0.637528       -17.3480 
 115   2.0000      -0.628032       -17.0896 
 116   2.0000      -0.623545       -16.9675 
 117   2.0000      -0.620386       -16.8816 
 118   2.0000      -0.612622       -16.6703 
 119   2.0000      -0.612120       -16.6566 
 120   2.0000      -0.611399       -16.6370 
 121   2.0000      -0.609052       -16.5731 
 122   2.0000      -0.600772       -16.3478 
 123   2.0000      -0.586737       -15.9659 
 124   2.0000      -0.581528       -15.8242 
 125   2.0000      -0.580669       -15.8008 
 126   2.0000      -0.579591       -15.7715 
 127   2.0000      -0.573099       -15.5948 
 128   2.0000      -0.568447       -15.4682 
 129   2.0000      -0.559447       -15.2233 
 130   2.0000      -0.551830       -15.0160 
 131   2.0000      -0.547525       -14.8989 
 132   2.0000      -0.542099       -14.7513 
 133   2.0000      -0.541683       -14.7399 
 134   2.0000      -0.538167       -14.6443 
 135   2.0000      -0.535921       -14.5831 
 136   2.0000      -0.529419       -14.4062 
 137   2.0000      -0.521292       -14.1851 
 138   2.0000      -0.516676       -14.0595 
 139   2.0000      -0.514279       -13.9942 
 140   2.0000      -0.512503       -13.9459 
 141   2.0000      -0.511237       -13.9115 
 142   2.0000      -0.508947       -13.8491 
 143   2.0000      -0.504313       -13.7231 
 144   2.0000      -0.502027       -13.6609 
 145   2.0000      -0.496607       -13.5134 
 146   2.0000      -0.491464       -13.3734 
 147   2.0000      -0.482919       -13.1409 
 148   2.0000      -0.479138       -13.0380 
 149   2.0000      -0.466770       -12.7015 
 150   2.0000      -0.466398       -12.6913 
 151   2.0000      -0.457169       -12.4402 
 152   2.0000      -0.451057       -12.2739 
 153   2.0000      -0.444932       -12.1072 
 154   2.0000      -0.440498       -11.9866 
 155   2.0000      -0.428287       -11.6543 
 156   2.0000      -0.423050       -11.5118 
 157   2.0000      -0.408249       -11.1090 
 158   2.0000      -0.402183       -10.9439 
 159   2.0000      -0.388409       -10.5692 
 160   2.0000      -0.385330       -10.4854 
 161   2.0000      -0.378469       -10.2987 
 162   2.0000      -0.370089       -10.0706 
 163   2.0000      -0.356494        -9.7007 
 164   2.0000      -0.355769        -9.6810 
 165   2.0000      -0.341223        -9.2851 
 166   2.0000      -0.337568        -9.1857 
 167   2.0000      -0.325352        -8.8533 
 168   2.0000      -0.323098        -8.7920 
 169   2.0000      -0.304489        -8.2856 
 170   2.0000      -0.299629        -8.1533 
 171   2.0000      -0.285633        -7.7725 
 172   2.0000      -0.280726        -7.6389 
 173   2.0000      -0.263332        -7.1656 
 174   2.0000      -0.241988        -6.5848 
 175   2.0000      -0.189888        -5.1671 
 176   2.0000      -0.180439        -4.9100 
 177   2.0000      -0.077097        -2.0979 
 178   2.0000      -0.058886        -1.6024 
 179   0.0000       0.028413         0.7731 
 180   0.0000       0.065913         1.7936 
 181   0.0000       0.090870         2.4727 
 182   0.0000       0.108547         2.9537 
 183   0.0000       0.112001         3.0477 
 184   0.0000       0.137114         3.7311 
 185   0.0000       0.139504         3.7961 
 186   0.0000       0.142795         3.8856 
 187   0.0000       0.163606         4.4519 
 188   0.0000       0.165222         4.4959 
 189   0.0000       0.165728         4.5097 
 190   0.0000       0.170622         4.6429 
 191   0.0000       0.182248         4.9592 
 192   0.0000       0.185648         5.0517 
 193   0.0000       0.187622         5.1055 
 194   0.0000       0.204996         5.5782 
 195   0.0000       0.205660         5.5963 
 196   0.0000       0.208377         5.6702 
 197   0.0000       0.208667         5.6781 
 198   0.0000       0.218271         5.9395 
 199   0.0000       0.227502         6.1907 
 200   0.0000       0.232066         6.3148 
 201   0.0000       0.235490         6.4080 
 202   0.0000       0.239177         6.5083 
 203   0.0000       0.239851         6.5267 
 204   0.0000       0.247411         6.7324 
 205   0.0000       0.256213         6.9719 
 206   0.0000       0.256806         6.9880 
 207   0.0000       0.257200         6.9988 
 208   0.0000       0.258727         7.0403 
 209   0.0000       0.261367         7.1122 
 210   0.0000       0.262917         7.1543 
 211   0.0000       0.267114         7.2685 
 212   0.0000       0.270179         7.3519 
 213   0.0000       0.271801         7.3961 
 214   0.0000       0.272762         7.4222 
 215   0.0000       0.275860         7.5065 
 216   0.0000       0.277997         7.5647 
 217   0.0000       0.282328         7.6825 
 218   0.0000       0.286430         7.7941 
 219   0.0000       0.287781         7.8309 
 220   0.0000       0.289873         7.8878 
 221   0.0000       0.292142         7.9496 
 222   0.0000       0.295207         8.0330 
 223   0.0000       0.296413         8.0658 
 224   0.0000       0.297333         8.0908 
 225   0.0000       0.299285         8.1439 
 226   0.0000       0.305282         8.3071 
 227   0.0000       0.308624         8.3981 
 228   0.0000       0.310004         8.4356 
 229   0.0000       0.324761         8.8372 
 230   0.0000       0.327294         8.9061 
 231   0.0000       0.332314         9.0427 
 232   0.0000       0.339703         9.2438 
 233   0.0000       0.346466         9.4278 
 234   0.0000       0.354281         9.6405 
 235   0.0000       0.359051         9.7703 
 236   0.0000       0.376378        10.2418 
 237   0.0000       0.386472        10.5164 
 238   0.0000       0.393741        10.7142 
 239   0.0000       0.396783        10.7970 
 240   0.0000       0.401197        10.9171 
 241   0.0000       0.409921        11.1545 
 242   0.0000       0.413386        11.2488 
 243   0.0000       0.419501        11.4152 
 244   0.0000       0.429313        11.6822 
 245   0.0000       0.434002        11.8098 
 246   0.0000       0.436488        11.8774 
 247   0.0000       0.441041        12.0013 
 248   0.0000       0.441909        12.0250 
 249   0.0000       0.448483        12.2038 
 250   0.0000       0.457579        12.4513 
 251   0.0000       0.463787        12.6203 
 252   0.0000       0.469261        12.7692 
 253   0.0000       0.470541        12.8041 
 254   0.0000       0.472234        12.8501 
 255   0.0000       0.474165        12.9027 
 256   0.0000       0.476751        12.9730 
 257   0.0000       0.480314        13.0700 
 258   0.0000       0.487325        13.2608 
 259   0.0000       0.497005        13.5242 
 260   0.0000       0.503874        13.7111 
 261   0.0000       0.505391        13.7524 
 262   0.0000       0.506565        13.7843 
 263   0.0000       0.509985        13.8774 
 264   0.0000       0.514901        14.0112 
 265   0.0000       0.519548        14.1376 
 266   0.0000       0.524462        14.2713 
 267   0.0000       0.529792        14.4164 
 268   0.0000       0.532828        14.4990 
 269   0.0000       0.536787        14.6067 
 270   0.0000       0.541702        14.7405 
 271   0.0000       0.545270        14.8375 
 272   0.0000       0.556358        15.1393 
 273   0.0000       0.559276        15.2187 
 274   0.0000       0.561620        15.2825 
 275   0.0000       0.565439        15.3864 
 276   0.0000       0.570134        15.5141 
 277   0.0000       0.573248        15.5989 
 278   0.0000       0.577938        15.7265 
 279   0.0000       0.586686        15.9645 
 280   0.0000       0.590281        16.0624 
 281   0.0000       0.593051        16.1377 
 282   0.0000       0.594526        16.1779 
 283   0.0000       0.595243        16.1974 
 284   0.0000       0.597977        16.2718 
 285   0.0000       0.600046        16.3281 
 286   0.0000       0.606888        16.5143 
 287   0.0000       0.611887        16.6503 
 288   0.0000       0.616789        16.7837 
 289   0.0000       0.623097        16.9553 
 290   0.0000       0.626569        17.0498 
 291   0.0000       0.628878        17.1126 
 292   0.0000       0.634744        17.2723 
 293   0.0000       0.639159        17.3924 
 294   0.0000       0.644654        17.5419 
 295   0.0000       0.647736        17.6258 
 296   0.0000       0.652893        17.7661 
 297   0.0000       0.655725        17.8432 
 298   0.0000       0.662121        18.0172 
 299   0.0000       0.667132        18.1536 
 300   0.0000       0.672355        18.2957 
 301   0.0000       0.675065        18.3695 
 302   0.0000       0.676896        18.4193 
 303   0.0000       0.679336        18.4857 
 304   0.0000       0.681009        18.5312 
 305   0.0000       0.684895        18.6370 
 306   0.0000       0.688235        18.7278 
 307   0.0000       0.690879        18.7998 
 308   0.0000       0.695600        18.9282 
 309   0.0000       0.698180        18.9985 
 310   0.0000       0.702530        19.1168 
 311   0.0000       0.703780        19.1508 
 312   0.0000       0.706942        19.2369 
 313   0.0000       0.711470        19.3601 
 314   0.0000       0.712348        19.3840 
 315   0.0000       0.715811        19.4782 
 316   0.0000       0.717334        19.5197 
 317   0.0000       0.718039        19.5388 
 318   0.0000       0.722060        19.6482 
 319   0.0000       0.723268        19.6811 
 320   0.0000       0.726635        19.7727 
 321   0.0000       0.730261        19.8714 
 322   0.0000       0.732036        19.9197 
 323   0.0000       0.733305        19.9543 
 324   0.0000       0.734579        19.9889 
 325   0.0000       0.740098        20.1391 
 326   0.0000       0.743839        20.2409 
 327   0.0000       0.749494        20.3948 
 328   0.0000       0.752655        20.4808 
 329   0.0000       0.753120        20.4935 
 330   0.0000       0.755119        20.5478 
 331   0.0000       0.759302        20.6617 
 332   0.0000       0.760534        20.6952 
 333   0.0000       0.766944        20.8696 
 334   0.0000       0.767806        20.8931 
 335   0.0000       0.772257        21.0142 
 336   0.0000       0.775071        21.0908 
 337   0.0000       0.781550        21.2671 
 338   0.0000       0.781968        21.2784 
 339   0.0000       0.788851        21.4657 
 340   0.0000       0.793239        21.5851 
 341   0.0000       0.794400        21.6167 
 342   0.0000       0.796812        21.6823 
 343   0.0000       0.803017        21.8512 
 344   0.0000       0.805277        21.9127 
 345   0.0000       0.807752        21.9800 
 346   0.0000       0.808646        22.0044 
 347   0.0000       0.813986        22.1497 
 348   0.0000       0.815542        22.1920 
 349   0.0000       0.817866        22.2553 
 350   0.0000       0.819768        22.3070 
 351   0.0000       0.821763        22.3613 
 352   0.0000       0.823797        22.4167 
 353   0.0000       0.826444        22.4887 
 354   0.0000       0.827754        22.5243 
 355   0.0000       0.832510        22.6537 
 356   0.0000       0.833172        22.6718 
 357   0.0000       0.836285        22.7565 
 358   0.0000       0.837630        22.7931 
 359   0.0000       0.839584        22.8462 
 360   0.0000       0.839935        22.8558 
 361   0.0000       0.842825        22.9344 
 362   0.0000       0.844359        22.9762 
 363   0.0000       0.848639        23.0926 
 364   0.0000       0.849237        23.1089 
 365   0.0000       0.854918        23.2635 
 366   0.0000       0.857136        23.3238 
 367   0.0000       0.860887        23.4259 
 368   0.0000       0.864808        23.5326 
 369   0.0000       0.867630        23.6094 
 370   0.0000       0.871437        23.7130 
 371   0.0000       0.872240        23.7349 
 372   0.0000       0.874258        23.7898 
 373   0.0000       0.875661        23.8280 
 374   0.0000       0.878803        23.9134 
 375   0.0000       0.883957        24.0537 
 376   0.0000       0.885846        24.1051 
 377   0.0000       0.889747        24.2112 
 378   0.0000       0.890902        24.2427 
 379   0.0000       0.892066        24.2744 
 380   0.0000       0.897086        24.4109 
 381   0.0000       0.898881        24.4598 
 382   0.0000       0.899798        24.4847 
 383   0.0000       0.901002        24.5175 
 384   0.0000       0.905112        24.6293 
 385   0.0000       0.905615        24.6430 
 386   0.0000       0.908033        24.7088 
 387   0.0000       0.909345        24.7445 
 388   0.0000       0.912469        24.8295 
 389   0.0000       0.916386        24.9361 
 390   0.0000       0.920842        25.0574 
 391   0.0000       0.924621        25.1602 
 392   0.0000       0.926217        25.2036 
 393   0.0000       0.927486        25.2382 
 394   0.0000       0.928539        25.2668 
 395   0.0000       0.930166        25.3111 
 396   0.0000       0.934650        25.4331 
 397   0.0000       0.939752        25.5719 
 398   0.0000       0.941987        25.6328 
 399   0.0000       0.943896        25.6847 
 400   0.0000       0.946519        25.7561 
 401   0.0000       0.952040        25.9063 
 402   0.0000       0.953425        25.9440 
 403   0.0000       0.956213        26.0199 
 404   0.0000       0.959954        26.1217 
 405   0.0000       0.963219        26.2105 
 406   0.0000       0.968690        26.3594 
 407   0.0000       0.972166        26.4540 
 408   0.0000       0.978977        26.6393 
 409   0.0000       0.980675        26.6855 
 410   0.0000       0.984254        26.7829 
 411   0.0000       0.986860        26.8538 
 412   0.0000       0.992660        27.0116 
 413   0.0000       0.999152        27.1883 
 414   0.0000       1.001939        27.2641 
 415   0.0000       1.005234        27.3538 
 416   0.0000       1.011707        27.5299 
 417   0.0000       1.012749        27.5583 
 418   0.0000       1.023369        27.8473 
 419   0.0000       1.029713        28.0199 
 420   0.0000       1.032340        28.0914 
 421   0.0000       1.034163        28.1410 
 422   0.0000       1.039741        28.2928 
 423   0.0000       1.048287        28.5253 
 424   0.0000       1.055487        28.7213 
 425   0.0000       1.057194        28.7677 
 426   0.0000       1.062445        28.9106 
 427   0.0000       1.067367        29.0445 
 428   0.0000       1.077339        29.3159 
 429   0.0000       1.084016        29.4976 
 430   0.0000       1.085494        29.5378 
 431   0.0000       1.089369        29.6432 
 432   0.0000       1.092008        29.7151 
 433   0.0000       1.096324        29.8325 
 434   0.0000       1.101645        29.9773 
 435   0.0000       1.103523        30.0284 
 436   0.0000       1.107688        30.1417 
 437   0.0000       1.111154        30.2360 
 438   0.0000       1.115529        30.3551 
 439   0.0000       1.120227        30.4829 
 440   0.0000       1.120959        30.5028 
 441   0.0000       1.123513        30.5724 
 442   0.0000       1.125072        30.6148 
 443   0.0000       1.128260        30.7015 
 444   0.0000       1.134792        30.8793 
 445   0.0000       1.136524        30.9264 
 446   0.0000       1.140189        31.0261 
 447   0.0000       1.146003        31.1843 
 448   0.0000       1.148847        31.2617 
 449   0.0000       1.149904        31.2905 
 450   0.0000       1.153720        31.3943 
 451   0.0000       1.159397        31.5488 
 452   0.0000       1.164504        31.6878 
 453   0.0000       1.166812        31.7506 
 454   0.0000       1.169420        31.8215 
 455   0.0000       1.171476        31.8775 
 456   0.0000       1.176074        32.0026 
 457   0.0000       1.180480        32.1225 
 458   0.0000       1.184615        32.2350 
 459   0.0000       1.192305        32.4443 
 460   0.0000       1.197266        32.5793 
 461   0.0000       1.199339        32.6357 
 462   0.0000       1.199943        32.6521 
 463   0.0000       1.205677        32.8081 
 464   0.0000       1.208665        32.8895 
 465   0.0000       1.212829        33.0028 
 466   0.0000       1.217142        33.1201 
 467   0.0000       1.219640        33.1881 
 468   0.0000       1.224391        33.3174 
 469   0.0000       1.226128        33.3646 
 470   0.0000       1.229235        33.4492 
 471   0.0000       1.233122        33.5550 
 472   0.0000       1.235729        33.6259 
 473   0.0000       1.238146        33.6917 
 474   0.0000       1.243059        33.8254 
 475   0.0000       1.243440        33.8357 
 476   0.0000       1.249611        34.0036 
 477   0.0000       1.250588        34.0302 
 478   0.0000       1.251952        34.0674 
 479   0.0000       1.255804        34.1722 
 480   0.0000       1.259625        34.2761 
 481   0.0000       1.263664        34.3861 
 482   0.0000       1.264515        34.4092 
 483   0.0000       1.271559        34.6009 
 484   0.0000       1.275888        34.7187 
 485   0.0000       1.280040        34.8317 
 486   0.0000       1.282511        34.8989 
 487   0.0000       1.286048        34.9951 
 488   0.0000       1.288860        35.0717 
 489   0.0000       1.292489        35.1704 
 490   0.0000       1.294971        35.2380 
 491   0.0000       1.298833        35.3431 
 492   0.0000       1.300743        35.3950 
 493   0.0000       1.310757        35.6675 
 494   0.0000       1.311227        35.6803 
 495   0.0000       1.318317        35.8732 
 496   0.0000       1.320284        35.9268 
 497   0.0000       1.320543        35.9338 
 498   0.0000       1.326605        36.0988 
 499   0.0000       1.329027        36.1647 
 500   0.0000       1.332619        36.2624 
 501   0.0000       1.340043        36.4644 
 502   0.0000       1.341110        36.4935 
 503   0.0000       1.345359        36.6091 
 504   0.0000       1.347119        36.6570 
 505   0.0000       1.350588        36.7514 
 506   0.0000       1.351767        36.7835 
 507   0.0000       1.355292        36.8794 
 508   0.0000       1.358453        36.9654 
 509   0.0000       1.360773        37.0285 
[...]
      pz      :     0.022108  p :     0.079763
      px      :     0.043586
      py      :     0.014069
 77 H s       :     0.884883  s :     0.884883
      pz      :     0.047949  p :     0.079259
      px      :     0.015023
      py      :     0.016288
 78 H s       :     0.885224  s :     0.885224
      pz      :     0.025869  p :     0.079228
      px      :     0.020463
      py      :     0.032895
 79 H s       :     0.910628  s :     0.910628
      pz      :     0.021818  p :     0.086332
      px      :     0.021668
      py      :     0.042847
 80 H s       :     0.864904  s :     0.864904
      pz      :     0.039350  p :     0.084768
      px      :     0.030251
      py      :     0.015167
 81 H s       :     0.886828  s :     0.886828
      pz      :     0.037818  p :     0.084111
      px      :     0.016178
      py      :     0.030114
 82 H s       :     0.915893  s :     0.915893
      pz      :     0.021957  p :     0.086738
      px      :     0.031634
      py      :     0.033147
 83 H s       :     0.873274  s :     0.873274
      pz      :     0.039283  p :     0.084094
      px      :     0.015271
      py      :     0.029539
 84 H s       :     0.886632  s :     0.886632
      pz      :     0.035777  p :     0.083457
      px      :     0.031701
      py      :     0.015979
 85 H s       :     0.892816  s :     0.892816
      pz      :     0.022493  p :     0.079789
      px      :     0.014068
      py      :     0.043228
 86 H s       :     0.890928  s :     0.890928
      pz      :     0.024732  p :     0.078835
      px      :     0.032984
      py      :     0.021119
 87 H s       :     0.889861  s :     0.889861
      pz      :     0.048012  p :     0.078740
      px      :     0.015588
      py      :     0.015139
 88 H s       :     0.910757  s :     0.910757
      pz      :     0.021639  p :     0.087007
      px      :     0.042917
      py      :     0.022451
 89 H s       :     0.871376  s :     0.871376
      pz      :     0.037944  p :     0.083840
      px      :     0.030483
      py      :     0.015413


                      *****************************
                      * MAYER POPULATION ANALYSIS *
                      *****************************

  NA   - Mulliken gross atomic population
  ZA   - Total nuclear charge
  QA   - Mulliken gross atomic charge
  VA   - Mayer's total valence
  BVA  - Mayer's bonded valence
  FA   - Mayer's free valence

  ATOM       NA         ZA         QA         VA         BVA        FA
  0 C      5.7880     6.0000     0.2120     3.8440     3.8440     0.0000
  1 N      7.4551     7.0000    -0.4551     3.3358     3.3358     0.0000
  2 C      6.0684     6.0000    -0.0684     3.9216     3.9216     0.0000
  3 N      7.3385     7.0000    -0.3385     3.4568     3.4568     0.0000
  4 C      6.0489     6.0000    -0.0489     4.0480     4.0480    -0.0000
  5 N      7.5657     7.0000    -0.5657     3.0947     3.0947    -0.0000
  6 C      6.1095     6.0000    -0.1095     3.9714     3.9714    -0.0000
  7 N      7.3405     7.0000    -0.3405     3.4336     3.4336    -0.0000
  8 C      5.7928     6.0000     0.2072     3.8442     3.8442     0.0000
  9 N      7.5622     7.0000    -0.5622     3.0775     3.0775    -0.0000
 10 C      5.8812     6.0000     0.1188     3.9088     3.9088     0.0000
 11 N      7.4385     7.0000    -0.4385     3.3778     3.3778    -0.0000
 12 C      6.0775     6.0000    -0.0775     3.8868     3.8868     0.0000
 13 N      7.4302     7.0000    -0.4302     3.4244     3.4244    -0.0000
 14 C      5.7703     6.0000     0.2297     3.7874     3.7874     0.0000
 15 N      7.4409     7.0000    -0.4409     3.3725     3.3725     0.0000
 16 C      5.7713     6.0000     0.2287     3.7776     3.7776    -0.0000
 17 C      6.1221     6.0000    -0.1221     3.9835     3.9835    -0.0000
 18 C      6.1907     6.0000    -0.1907     3.7657     3.7657     0.0000
 19 C      5.7780     6.0000     0.2220     3.8644     3.8644     0.0000
 20 C      5.7871     6.0000     0.2129     3.8291     3.8291     0.0000
 21 C      6.0859     6.0000    -0.0859     3.8672     3.8672    -0.0000
 22 C      6.0912     6.0000    -0.0912     3.9829     3.9829    -0.0000
 23 C      6.0400     6.0000    -0.0400     3.9926     3.9926    -0.0000
 24 C      5.8059     6.0000     0.1941     3.8214     3.8214    -0.0000
 25 C      5.8854     6.0000     0.1146     3.8917     3.8917     0.0000
 26 C      6.0856     6.0000    -0.0856     3.9107     3.9107    -0.0000
 27 C      5.7864     6.0000     0.2136     3.8628     3.8628     0.0000
 28 C      6.0613     6.0000    -0.0613     3.9887     3.9887     0.0000
 29 C      6.1808     6.0000    -0.1808     3.7451     3.7451    -0.0000
 30 C      5.7544     6.0000     0.2456     3.8004     3.8004    -0.0000
 31 C      5.7713     6.0000     0.2287     3.8180     3.8180    -0.0000
 32 C      6.0621     6.0000    -0.0621     3.9227     3.9227     0.0000
 33 C      6.0619     6.0000    -0.0619     3.9727     3.9727    -0.0000
 34 C      6.0512     6.0000    -0.0512     3.9842     3.9842     0.0000
 35 C      5.7733     6.0000     0.2267     3.8173     3.8173    -0.0000
 36 C      5.8913     6.0000     0.1087     3.8761     3.8761     0.0000
 37 C      6.0644     6.0000    -0.0644     3.9177     3.9177     0.0000
 38 C      5.7686     6.0000     0.2314     3.8002     3.8002    -0.0000
 39 C      6.0578     6.0000    -0.0578     3.9838     3.9838    -0.0000
 40 C      6.1819     6.0000    -0.1819     3.7283     3.7283    -0.0000
 41 C      5.7742     6.0000     0.2258     3.8867     3.8867    -0.0000
 42 C      5.8022     6.0000     0.1978     3.8259     3.8259    -0.0000
 43 C      6.0723     6.0000    -0.0723     3.9001     3.9001    -0.0000
 44 C      6.0894     6.0000    -0.0894     3.9849     3.9849    -0.0000
 45 C      6.0608     6.0000    -0.0608     3.9922     3.9922    -0.0000
 46 C      5.7888     6.0000     0.2112     3.8283     3.8283     0.0000
 47 C      5.8847     6.0000     0.1153     3.8929     3.8929     0.0000
 48 C      6.0673     6.0000    -0.0673     3.9093     3.9093     0.0000
 49 C      5.7618     6.0000     0.2382     3.8932     3.8932    -0.0000
 50 C      6.0468     6.0000    -0.0468     3.9904     3.9904    -0.0000
 51 C      6.1921     6.0000    -0.1921     3.7363     3.7363    -0.0000
 52 H      0.9619     1.0000     0.0381     0.9859     0.9859    -0.0000
 53 H      1.0172     1.0000    -0.0172     0.9985     0.9985    -0.0000
 54 H      0.9491     1.0000     0.0509     1.0189     1.0189    -0.0000
 55 H      0.9627     1.0000     0.0373     0.9866     0.9866     0.0000
 56 H      0.9502     1.0000     0.0498     0.9696     0.9696    -0.0000
 57 H      0.9519     1.0000     0.0481     0.9828     0.9828     0.0000
 58 H      0.9526     1.0000     0.0474     0.9848     0.9848     0.0000
 59 H      1.0002     1.0000    -0.0002     1.0016     1.0016    -0.0000
 60 H      0.9528     1.0000     0.0472     1.0164     1.0164     0.0000
 61 H      0.8288     1.0000     0.1712     1.0421     1.0421     0.0000
 62 H      0.8247     1.0000     0.1753     1.0436     1.0436    -0.0000
 63 H      0.9449     1.0000     0.0551     0.9853     0.9853     0.0000
 64 H      1.0121     1.0000    -0.0121     0.9947     0.9947    -0.0000
 65 H      0.9528     1.0000     0.0472     1.0097     1.0097    -0.0000
 66 H      0.9444     1.0000     0.0556     0.9855     0.9855    -0.0000
 67 H      0.9378     1.0000     0.0622     0.9719     0.9719     0.0000
 68 H      0.9428     1.0000     0.0572     0.9868     0.9868     0.0000
 69 H      0.9437     1.0000     0.0563     0.9828     0.9828     0.0000
 70 H      1.0299     1.0000    -0.0299     0.9938     0.9938    -0.0000
 71 H      0.9554     1.0000     0.0446     1.0059     1.0059     0.0000
 72 H      0.9297     1.0000     0.0703     0.9837     0.9837    -0.0000
 73 H      1.0083     1.0000    -0.0083     1.0008     1.0008     0.0000
 74 H      0.9406     1.0000     0.0594     1.0100     1.0100     0.0000
 75 H      0.9303     1.0000     0.0697     0.9840     0.9840     0.0000
 76 H      0.9260     1.0000     0.0740     0.9721     0.9721    -0.0000
 77 H      0.9327     1.0000     0.0673     0.9854     0.9854    -0.0000
 78 H      0.9334     1.0000     0.0666     0.9854     0.9854    -0.0000
 79 H      1.0164     1.0000    -0.0164     0.9976     0.9976    -0.0000
 80 H      0.9397     1.0000     0.0603     1.0072     1.0072    -0.0000
 81 H      0.9457     1.0000     0.0543     0.9856     0.9856    -0.0000
 82 H      1.0247     1.0000    -0.0247     0.9935     0.9935    -0.0000
 83 H      0.9579     1.0000     0.0421     1.0083     1.0083    -0.0000
 84 H      0.9457     1.0000     0.0543     0.9852     0.9852    -0.0000
 85 H      0.9391     1.0000     0.0609     0.9716     0.9716    -0.0000
 86 H      0.9443     1.0000     0.0557     0.9839     0.9839    -0.0000
 87 H      0.9428     1.0000     0.0572     0.9856     0.9856     0.0000
 88 H      1.0148     1.0000    -0.0148     0.9966     0.9966     0.0000
 89 H      0.9536     1.0000     0.0464     1.0075     1.0075    -0.0000

  Mayer bond orders larger than 0.100000
B(  0-C ,  1-N ) :   1.0968 B(  0-C , 17-C ) :   1.7035 B(  0-C , 52-H ) :   0.9661 
B(  1-N ,  8-C ) :   1.0879 B(  1-N , 10-C ) :   0.9770 B(  2-C , 12-C ) :   1.5025 
B(  2-C , 16-C ) :   1.3603 B(  2-C , 53-H ) :   0.9745 B(  3-N , 14-C ) :   1.2198 
B(  3-N , 16-C ) :   1.1870 B(  3-N , 61-H ) :   0.8990 B(  4-C ,  6-C ) :   1.2118 
B(  4-C , 17-C ) :   1.2137 B(  4-C , 18-C ) :   1.4474 B(  5-N , 19-C ) :   1.4535 
B(  5-N , 27-C ) :   1.3769 B(  6-C ,  8-C ) :   1.7121 B(  6-C , 54-H ) :   0.9359 
B(  7-N , 30-C ) :   1.1959 B(  7-N , 38-C ) :   1.1903 B(  7-N , 62-H ) :   0.8969 
B(  8-C , 55-H ) :   0.9659 B(  9-N , 41-C ) :   1.3951 B(  9-N , 49-C ) :   1.4246 
B( 10-C , 56-H ) :   0.9773 B( 10-C , 57-H ) :   0.9822 B( 10-C , 58-H ) :   0.9843 
B( 11-N , 20-C ) :   1.1302 B( 11-N , 24-C ) :   1.1073 B( 11-N , 25-C ) :   0.9603 
B( 12-C , 14-C ) :   1.3561 B( 12-C , 59-H ) :   0.9673 B( 13-N , 31-C ) :   1.1584 
B( 13-N , 35-C ) :   1.1569 B( 13-N , 36-C ) :   0.9427 B( 14-C , 18-C ) :   1.1273 
B( 15-N , 42-C ) :   1.1083 B( 15-N , 46-C ) :   1.1238 B( 15-N , 47-C ) :   0.9613 
B( 16-C , 51-C ) :   1.1708 B( 17-C , 60-H ) :   0.9461 B( 18-C , 19-C ) :   1.1297 
B( 19-C , 21-C ) :   1.2486 B( 20-C , 28-C ) :   1.6290 B( 20-C , 63-H ) :   0.9703 
B( 21-C , 26-C ) :   1.5966 B( 21-C , 64-H ) :   0.9570 B( 22-C , 23-C ) :   1.2886 
B( 22-C , 28-C ) :   1.2639 B( 22-C , 29-C ) :   1.2256 B( 23-C , 24-C ) :   1.6207 
B( 23-C , 65-H ) :   0.9703 B( 24-C , 66-H ) :   0.9695 B( 25-C , 67-H ) :   0.9760 
B( 25-C , 68-H ) :   0.9828 B( 25-C , 69-H ) :   0.9823 B( 26-C , 27-C ) :   1.2491 
B( 26-C , 70-H ) :   0.9698 B( 27-C , 29-C ) :   1.2096 B( 28-C , 71-H ) :   0.9720 
B( 29-C , 30-C ) :   1.2428 B( 30-C , 32-C ) :   1.2821 B( 31-C , 39-C ) :   1.5910 
B( 31-C , 72-H ) :   0.9682 B( 32-C , 37-C ) :   1.5766 B( 32-C , 73-H ) :   0.9786 
B( 33-C , 34-C ) :   1.3046 B( 33-C , 39-C ) :   1.3014 B( 33-C , 40-C ) :   1.1816 
B( 34-C , 35-C ) :   1.5886 B( 34-C , 74-H ) :   0.9697 B( 35-C , 75-H ) :   0.9682 
B( 36-C , 76-H ) :   0.9767 B( 36-C , 77-H ) :   0.9816 B( 36-C , 78-H ) :   0.9824 
B( 37-C , 38-C ) :   1.2876 B( 37-C , 79-H ) :   0.9765 B( 38-C , 40-C ) :   1.2315 
B( 39-C , 80-H ) :   0.9706 B( 40-C , 41-C ) :   1.2487 B( 41-C , 43-C ) :   1.1860 
B( 42-C , 50-C ) :   1.6329 B( 42-C , 81-H ) :   0.9697 B( 43-C , 48-C ) :   1.6667 
B( 43-C , 82-H ) :   0.9723 B( 44-C , 45-C ) :   1.2642 B( 44-C , 50-C ) :   1.2723 
B( 44-C , 51-C ) :   1.2597 B( 45-C , 46-C ) :   1.6343 B( 45-C , 83-H ) :   0.9718 
B( 46-C , 84-H ) :   0.9700 B( 47-C , 85-H ) :   0.9762 B( 47-C , 86-H ) :   0.9829 
B( 47-C , 87-H ) :   0.9824 B( 48-C , 49-C ) :   1.1894 B( 48-C , 88-H ) :   0.9748 
B( 49-C , 51-C ) :   1.2425 B( 50-C , 89-H ) :   0.9709 

-------
TIMINGS
-------

Total SCF time: 0 days 0 hours 30 min 34 sec 

Total time                  ....    1834.187 sec
Sum of individual times     ....    1829.548 sec  ( 99.7%)

Fock matrix formation       ....    1806.216 sec  ( 98.5%)
Diagonalization             ....       6.913 sec  (  0.4%)
Density matrix formation    ....       0.685 sec  (  0.0%)
Population analysis         ....       0.526 sec  (  0.0%)
Initial guess               ....       2.069 sec  (  0.1%)
Orbital Transformation      ....       0.000 sec  (  0.0%)
Orbital Orthonormalization  ....       0.000 sec  (  0.0%)
DIIS solution               ....       3.528 sec  (  0.2%)
SOSCF solution              ....       8.563 sec  (  0.5%)

Maximum memory used throughout the entire SCF-calculation: 302.6 MB


           ************************************************************
           *        Program running with 16 parallel MPI-processes    *
           *              working on a common directory               *
           ************************************************************

------------------------------------------------------------------------------
                                ORCA  MP2 
------------------------------------------------------------------------------

Freezing NCore=104 chemical core electrons

----------
MP2 ENERGY (disk based algorithm)
----------

Dimension of the basis                    ...  918
Memory devoted to MP2                     ... 2000 MB   
Data format for buffers                   ... DOUBLE
Compression type for matrix containers    ... UNCOMPRESSED

-------------------------------
PARTIAL EXCHANGE TRANSFORMATION
-------------------------------

Transformation type                        ... one-operator
Generation of integrals (i,mue|j,nue)      ... ON
Generation of integrals (mue,kappa|nue,tau)... OFF
Generation of integrals (i,mue|a,nue)      ... OFF
Dimension of the basis                     ...  918
Number of internal MOs                     ...  127 (  52- 178)
Pair cutoff                                ... 2.500e-12 Eh
Number of AO pairs in the trafo            ... 421821
Total Number of distinct AO pairs          ... 421821
Memory devoted for trafo                   ... 2000.0 MB 
Max. Number of MO pairs treated together   ...  311      
Number Format for Storage                  ... Double (8 Byte)
Integral package used                      ... LIBINT

Starting integral evaluation:
    ... done with AO integral generation
Closing buffer AOK     (38.34 GB; CompressionRatio= 1.32)
Collecting buffer AOK 
Number of MO pairs included in the trafo   ... 8128
------------------------
SORTING OF (i,mue|j,nue)
------------------------

IBATCH = 1 of  2
IBATCH = 2 of  2
Closing buffer KAO     (51.03 GB; CompressionRatio= 1.00)
Collecting buffer KAO 
N(AO-Batches) Done                         ...  85914266 
N(AO-Batches) Skipped                      ...  82487675 
N(IJ)-pairs Skipped                        ...         0 
TOTAL TIME for half transformation         ...  3186.265 sec
AO-integral generation                     ...   211.998 sec
Half transformation                        ...   371.412 sec
K-integral sorting                         ...  2422.528 sec
Process 10:   Internal MO 132
Process 13:   Internal MO 156
Process  1:   Internal MO  60
Process  4:   Internal MO  84
Process  7:   Internal MO 108

Finished integral transformation - now doing MP2 part

OPERATOR COMBINATION   0   0: ij=( 52..178, 52..178)
Process  0:   Internal MO  54
Process  0:   Internal MO  57
Process  2:   Internal MO  69
Process  1:   Internal MO  63
Process  5:   Internal MO  93
Process  8:   Internal MO 117
Process  1:   Internal MO  66
Process  2:   Internal MO  72
Process  3:   Internal MO  78
Process 11:   Internal MO 141
Process 14:   Internal MO 165
Process  6:   Internal MO 102
Process  4:   Internal MO  87
Process  2:   Internal MO  75
Process  9:   Internal MO 126
Process  7:   Internal MO 111
Process  3:   Internal MO  81
Process  5:   Internal MO  96
Process 12:   Internal MO 150
Process 10:   Internal MO 135
Process  4:   Internal MO  90
Process 15:   Internal MO 174
Process  8:   Internal MO 120
Process  6:   Internal MO 105
Process  5:   Internal MO  99
Process 13:   Internal MO 159
Process  7:   Internal MO 114
Process  9:   Internal MO 129
Process 11:   Internal MO 144
Process 14:   Internal MO 168
Process  8:   Internal MO 123
Process 10:   Internal MO 138
Process 12:   Internal MO 153
Process 15:   Internal MO 177
Process 11:   Internal MO 147
Process 13:   Internal MO 162
Process 14:   Internal MO 171
-----------------------------------------------
 MP2 CORRELATION ENERGY   :     -7.284822523 Eh
-----------------------------------------------


-------
TIMINGS
-------
Total time                : 3734.978 sec
Integral trafo            : 3188.571 sec ( 85.4%)
K(i,j)                    :    6.148 sec (  0.2%)
T(i,j)                    :    0.101 sec (  0.0%)

---------------------------------------
MP2 TOTAL ENERGY:    -2130.858213362 Eh
---------------------------------------

Maximum memory used throughout the entire MP2-calculation: 2275.3 MB

-------------------------   --------------------
FINAL SINGLE POINT ENERGY     -2130.858213361983
-------------------------   --------------------


                            ***************************************
                            *     ORCA property calculations      *
                            ***************************************


  WARNING: The energy has been calculated at the MP2 level but the densities
           used in the property calculations are still SCF densities
           MP2 response densities have not been calculated 
           use %mp2 Density relaxed end
           or  %mp2 Density unrelaxed end

                                    ---------------------
                                    Active property flags
                                    ---------------------
   (+) Dipole Moment


------------------------------------------------------------------------------
                       ORCA ELECTRIC PROPERTIES CALCULATION
------------------------------------------------------------------------------

Dipole Moment Calculation                       ... on
Quadrupole Moment Calculation                   ... off
Polarizability Calculation                      ... off
GBWName                                         ... /scratch/allen/tmpyp4_amber_gaff2/conf1/conf1/Conf26.orca.gbw
Electron density                                ... /scratch/allen/tmpyp4_amber_gaff2/conf1/conf1/Conf26.orca.scfp
The origin for moment calculation is the CENTER OF MASS  = (-0.000745, -0.004659  0.003113)

-------------
DIPOLE MOMENT
-------------
                                X             Y             Z
Electronic contribution:      2.66040      -3.98606      -0.10762
Nuclear contribution   :     -0.04873       0.15441       0.12711
                        -----------------------------------------
Total Dipole Moment    :      2.61166      -3.83165       0.01949
                        -----------------------------------------
Magnitude (a.u.)       :      4.63710
Magnitude (Debye)      :     11.78657



--------------------
Rotational spectrum 
--------------------
 
Rotational constants in cm-1:     0.001502     0.001477     0.000760 
Rotational constants in MHz :    45.040356    44.281666    22.794414 

 Dipole components along the rotational axes: 
x,y,z [a.u.] :     3.341764     3.214768     0.023590 
x,y,z [Debye]:     8.494090     8.171290     0.059961 

 

Timings for individual modules:

Sum of individual times         ...     5593.474 sec (=  93.225 min)
GTO integral calculation        ...        3.291 sec (=   0.055 min)   0.1 %
SCF iterations                  ...     1835.278 sec (=  30.588 min)  32.8 %
MP2 module                      ...     3754.905 sec (=  62.582 min)  67.1 %
                             ****ORCA TERMINATED NORMALLY****
TOTAL RUN TIME: 0 days 1 hours 33 minutes 16 seconds 915 msec
# of primitive gaussian functions

