
                                 *****************
                                 * O   R   C   A *
                                 *****************

                                            #,                                       
                                            ###                                      
                                            ####                                     
                                            #####                                    
                                            ######                                   
                                           ########,                                 
                                     ,,################,,,,,                         
                               ,,#################################,,                 
                          ,,##########################################,,             
                       ,#########################################, ''#####,          
                    ,#############################################,,   '####,        
                  ,##################################################,,,,####,       
                ,###########''''           ''''###############################       
              ,#####''   ,,,,##########,,,,          '''####'''          '####       
            ,##' ,,,,###########################,,,                        '##       
           ' ,,###''''                  '''############,,,                           
         ,,##''                                '''############,,,,        ,,,,,,###''
      ,#''                                            '''#######################'''  
     '                                                          ''''####''''         
             ,#######,   #######,   ,#######,      ##                                
            ,#'     '#,  ##    ##  ,#'     '#,    #''#        ######   ,####,        
            ##       ##  ##   ,#'  ##            #'  '#       #        #'  '#        
            ##       ##  #######   ##           ,######,      #####,   #    #        
            '#,     ,#'  ##    ##  '#,     ,#' ,#      #,         ##   #,  ,#        
             '#######'   ##     ##  '#######'  #'      '#     #####' # '####'        



                  #######################################################
                  #                        -***-                        #
                  #          Department of theory and spectroscopy      #
                  #    Directorship and core code : Frank Neese         #
                  #        Max Planck Institute fuer Kohlenforschung    #
                  #                Kaiser Wilhelm Platz 1               #
                  #                 D-45470 Muelheim/Ruhr               #
                  #                      Germany                        #
                  #                                                     #
                  #                  All rights reserved                #
                  #                        -***-                        #
                  #######################################################


                         Program Version 5.0.4 -  RELEASE  -


 With contributions from (in alphabetic order):
   Daniel Aravena         : Magnetic Suceptibility
   Michael Atanasov       : Ab Initio Ligand Field Theory (pilot matlab implementation)
   Alexander A. Auer      : GIAO ZORA, VPT2 properties, NMR spectrum
   Ute Becker             : Parallelization
   Giovanni Bistoni       : ED, misc. LED, open-shell LED, HFLD
   Martin Brehm           : Molecular dynamics
   Dmytro Bykov           : SCF Hessian
   Vijay G. Chilkuri      : MRCI spin determinant printing, contributions to CSF-ICE
   Dipayan Datta          : RHF DLPNO-CCSD density
   Achintya Kumar Dutta   : EOM-CC, STEOM-CC
   Dmitry Ganyushin       : Spin-Orbit,Spin-Spin,Magnetic field MRCI
   Miquel Garcia          : C-PCM and meta-GGA Hessian, CC/C-PCM, Gaussian charge scheme
   Yang Guo               : DLPNO-NEVPT2, F12-NEVPT2, CIM, IAO-localization
   Andreas Hansen         : Spin unrestricted coupled pair/coupled cluster methods
   Benjamin Helmich-Paris : MC-RPA, TRAH-SCF, COSX integrals
   Lee Huntington         : MR-EOM, pCC
   Robert Izsak           : Overlap fitted RIJCOSX, COSX-SCS-MP3, EOM
   Marcus Kettner         : VPT2
   Christian Kollmar      : KDIIS, OOCD, Brueckner-CCSD(T), CCSD density, CASPT2, CASPT2-K
   Simone Kossmann        : Meta GGA functionals, TD-DFT gradient, OOMP2, MP2 Hessian
   Martin Krupicka        : Initial AUTO-CI
   Lucas Lang             : DCDCAS
   Marvin Lechner         : AUTO-CI (C++ implementation), FIC-MRCC
   Dagmar Lenk            : GEPOL surface, SMD
   Dimitrios Liakos       : Extrapolation schemes; Compound Job, initial MDCI parallelization
   Dimitrios Manganas     : Further ROCIS development; embedding schemes
   Dimitrios Pantazis     : SARC Basis sets
   Anastasios Papadopoulos: AUTO-CI, single reference methods and gradients
   Taras Petrenko         : DFT Hessian,TD-DFT gradient, ASA, ECA, R-Raman, ABS, FL, XAS/XES, NRVS
   Peter Pinski           : DLPNO-MP2, DLPNO-MP2 Gradient
   Christoph Reimann      : Effective Core Potentials
   Marius Retegan         : Local ZFS, SOC
   Christoph Riplinger    : Optimizer, TS searches, QM/MM, DLPNO-CCSD(T), (RO)-DLPNO pert. Triples
   Tobias Risthaus        : Range-separated hybrids, TD-DFT gradient, RPA, STAB
   Michael Roemelt        : Original ROCIS implementation
   Masaaki Saitow         : Open-shell DLPNO-CCSD energy and density
   Barbara Sandhoefer     : DKH picture change effects
   Avijit Sen             : IP-ROCIS
   Kantharuban Sivalingam : CASSCF convergence, NEVPT2, FIC-MRCI
   Bernardo de Souza      : ESD, SOC TD-DFT
   Georgi Stoychev        : AutoAux, RI-MP2 NMR, DLPNO-MP2 response
   Willem Van den Heuvel  : Paramagnetic NMR
   Boris Wezisla          : Elementary symmetry handling
   Frank Wennmohs         : Technical directorship


 We gratefully acknowledge several colleagues who have allowed us to
 interface, adapt or use parts of their codes:
   Stefan Grimme, W. Hujo, H. Kruse, P. Pracht,  : VdW corrections, initial TS optimization,
                  C. Bannwarth, S. Ehlert          DFT functionals, gCP, sTDA/sTD-DF
   Ed Valeev, F. Pavosevic, A. Kumar             : LibInt (2-el integral package), F12 methods
   Garnet Chan, S. Sharma, J. Yang, R. Olivares  : DMRG
   Ulf Ekstrom                                   : XCFun DFT Library
   Mihaly Kallay                                 : mrcc  (arbitrary order and MRCC methods)
   Jiri Pittner, Ondrej Demel                    : Mk-CCSD
   Frank Weinhold                                : gennbo (NPA and NBO analysis)
   Christopher J. Cramer and Donald G. Truhlar   : smd solvation model
   Lars Goerigk                                  : TD-DFT with DH, B97 family of functionals
   V. Asgeirsson, H. Jonsson                     : NEB implementation
   FAccTs GmbH                                   : IRC, NEB, NEB-TS, DLPNO-Multilevel, CI-OPT
                                                   MM, QMMM, 2- and 3-layer-ONIOM, Crystal-QMMM,
                                                   LR-CPCM, SF, NACMEs, symmetry and pop. for TD-DFT,
                                                   nearIR, NL-DFT gradient (VV10), updates on ESD,
                                                   ML-optimized integration grids
   S Lehtola, MJT Oliveira, MAL Marques          : LibXC Library
   Liviu Ungur et al                             : ANISO software


 Your calculation uses the libint2 library for the computation of 2-el integrals
 For citations please refer to: http://libint.valeyev.net

 Your ORCA version has been built with support for libXC version: 5.1.0
 For citations please refer to: https://tddft.org/programs/libxc/

 This ORCA versions uses:
   CBLAS   interface :  Fast vector & matrix operations
   LAPACKE interface :  Fast linear algebra routines
   SCALAPACK package :  Parallel linear algebra routines
   Shared memory     :  Shared parallel matrices
   BLAS/LAPACK       :  OpenBLAS 0.3.15  USE64BITINT DYNAMIC_ARCH NO_AFFINITY Sandybridge SINGLE_THREADED
        Core in use  :  Sandybridge
   Copyright (c) 2011-2014, The OpenBLAS Project


================================================================================

----- Orbital basis set information -----
Your calculation utilizes the basis: cc-pVDZ 
       H, B-Ne : Obtained from the ccRepo (grant-hill.group.shef.ac.uk/ccrepo) Feb. 2017
                 T. H. Dunning, Jr., J. Chem. Phys. 90, 1007 (1989)
            He : Obtained from the ccRepo (grant-hill.group.shef.ac.uk/ccrepo) Feb. 2017
                 D. E. Woon, T. H. Dunning, Jr., J. Chem. Phys. 100, 2975 (1994)
  Li-Be, Na-Mg : Obtained from the ccRepo (grant-hill.group.shef.ac.uk/ccrepo) Feb. 2017
                 B. P. Prascher, D. E. Woon, K. A. Peterson, T. H. Dunning, Jr., A. K. Wilson, Theor. Chem. Acc. 128, 69 (2011)
         Al-Ar : Obtained from the ccRepo (grant-hill.group.shef.ac.uk/ccrepo) Feb. 2017
                 D. E. Woon, T. H. Dunning, Jr., J. Chem. Phys. 98, 1358 (1993)
            Ca : Obtained from the Peterson Research Group Website (tyr0.chem.wsu.edu/~kipeters) Feb. 2017
                 J. Koput, K. A. Peterson, J. Phys. Chem. 106, 9595 (2002)
         Sc-Zn : Obtained from the ccRepo (grant-hill.group.shef.ac.uk/ccrepo) Feb. 2017
                 N. B. Balabanov, K. A. Peterson, J. Chem. Phys. 123, 064107 (2005)
                 N. B. Balabanov, K. A. Peterson, J. Chem. Phys. 125, 074110 (2006)
         Ga-Kr : Obtained from the ccRepo (grant-hill.group.shef.ac.uk/ccrepo) Feb. 2017
                 A. K. Wilson, D. E. Woon, K. A. Peterson, T. H. Dunning, Jr., J. Chem. Phys. 110, 7667 (1999)

================================================================================
                                        WARNINGS
                       Please study these warnings very carefully!
================================================================================


WARNING: No MP2 level density has been requested!
         To caclulate MP2 level properties use
         %mp2 Density relaxed end
         or
         %mp2 Density unrelaxed end

WARNING: Post HF methods need fully converged wavefunctions
  ===> : Setting SCFConvForced true
         You can overwrite this default with %scf ConvForced false 


INFO   : the flag for use of the SHARK integral package has been found!

================================================================================
                                       INPUT FILE
================================================================================
NAME = /scratch/allen/tmpyp4_amber_gaff2/2.Mdgx/conf11/conf11/Conf82.orca
|  1> ! PAL2
|  2> ! mp2 cc-pvdz TightSCF  NoKeepInts
|  3> 
|  4> %scf
|  5>   MaxCore 2000
|  6> end
|  7> %mp2
|  8>   MaxCore 2000
|  9> end
| 10> * xyz 0 1
| 11>    C       -3.83200         5.97300        -1.06000
| 12>    C        1.47400         4.04100         0.05700
| 13>    C       -2.80200         4.09300         0.04900
| 14>    C       -3.36300         4.55800         1.24800
| 15>    C       -4.13600         5.70300         1.25400
| 16>    C       -5.22100         7.59600         0.14500
| 17>    C        0.13200         4.30700         0.06100
| 18>    C       -0.56900         3.05600         0.04700
| 19>    C        1.64900         2.61800         0.02300
| 20>    C       -3.05800         4.83000        -1.11800
| 21>    N       -4.35800         6.39400         0.11200
| 22>    N        0.38800         2.06700         0.02500
| 23>    N       -2.01000         0.39500        -0.07500
| 24>    N       -0.38800        -2.07400        -0.02700
| 25>    N        2.01000        -0.40100         0.06500
| 26>    C       -1.96000         2.86100         0.02400
| 27>    C       -2.62300         1.61500        -0.01800
| 28>    C       -5.57300        -4.32900         1.06600
| 29>    C       -4.07300         1.47100         0.05600
| 30>    C       -4.10600        -2.75600        -0.02600
| 31>    C       -4.99500        -2.75700        -1.11100
| 32>    C       -6.13200        -3.54200        -1.07600
| 33>    C       -7.65100        -5.11300         0.04000
| 34>    C       -4.32400         0.14100         0.03700
| 35>    C       -3.02500        -0.52000        -0.04800
| 36>    C       -4.42200        -3.56600         1.07500
| 37>    N       -6.40700        -4.31300         0.00100
| 38>    C       -2.86700        -1.92200        -0.04000
| 39>    C       -1.65000        -2.62400        -0.02700
| 40>    C        3.56800        -6.14200        -1.04000
| 41>    C       -1.47600        -4.04900        -0.03400
| 42>    C        2.80300        -4.09900        -0.00800
| 43>    C        3.65700        -4.38400         1.06900
| 44>    C        4.42700        -5.53000         1.05900
| 45>    C        5.24500        -7.58800         0.01400
| 46>    C       -0.13400        -4.31500        -0.02200
| 47>    C        0.56800        -3.06400        -0.02700
| 48>    C        2.77500        -5.01200        -1.07400
| 49>    N        4.37600        -6.39100         0.01700
| 50>    C        1.95900        -2.86900        -0.00900
| 51>    C        2.62100        -1.62200         0.00900
| 52>    C        5.54300         4.33900        -1.13000
| 53>    C        4.07000        -1.47900        -0.09400
| 54>    C        4.10400         2.75100        -0.02100
| 55>    C        5.02700         2.72900         1.03600
| 56>    C        6.16600         3.50900         0.97800
| 57>    C        7.61900         5.15300        -0.11500
| 58>    C        4.32100        -0.14800        -0.09200
| 59>    C        3.02500         0.51400         0.01500
| 60>    C        4.38700         3.58200        -1.11500
| 61>    C        2.86600         1.91600         0.01300
| 62>    N        6.41300         4.29600        -0.09500
| 63>    H       -4.04500         6.57900        -1.93200
| 64>    H        2.27400         4.76600         0.08100
| 65>    H       -3.21000         4.02800         2.18000
| 66>    H       -4.59600         6.09500         2.15100
| 67>    H       -6.26400         7.28800         0.03800
| 68>    H       -5.07700         8.10600         1.09700
| 69>    H       -4.93900         8.25300        -0.67700
| 70>    H       -0.33200         5.28200         0.06900
| 71>    H       -2.64100         4.53000        -2.07200
| 72>    H        0.18200         1.07200         0.00500
| 73>    H       -0.18300        -1.08000        -0.02100
| 74>    H       -5.86400        -4.96200         1.89500
| 75>    H       -4.79400         2.27200         0.13900
| 76>    H       -4.80000        -2.16000        -1.99400
| 77>    H       -6.84100        -3.58200        -1.89300
| 78>    H       -8.42800        -4.53600         0.54600
| 79>    H       -7.95600        -5.33700        -0.98100
| 80>    H       -7.45600        -6.03700         0.58400
| 81>    H       -5.28700        -0.34400         0.10000
| 82>    H       -3.78000        -3.60100         1.94700
| 83>    H        3.58700        -6.86800        -1.84300
| 84>    H       -2.27600        -4.77400        -0.05000
| 85>    H        3.71400        -3.72400         1.92600
| 86>    H        5.09200        -5.79500         1.87100
| 87>    H        6.20500        -7.32900        -0.43900
| 88>    H        5.39300        -7.91700         1.04200
| 89>    H        4.75900        -8.37300        -0.56400
| 90>    H        0.32900        -5.29000        -0.00800
| 91>    H        2.14600        -4.84200        -1.94000
| 92>    H        5.80800         4.98600        -1.95600
| 93>    H        4.78800        -2.28100        -0.18500
| 94>    H        4.86000         2.11400         1.91200
| 95>    H        6.90100         3.53100         1.77200
| 96>    H        7.38300         6.10900         0.35600
| 97>    H        8.41400         4.65200         0.43500
| 98>    H        7.92100         5.31000        -1.15000
| 99>    H        5.28300         0.33600        -0.17900
|100>    H        3.72000         3.63200        -1.96700
|101> *
|102> 
|103>                          ****END OF INPUT****
================================================================================

                       ****************************
                       * Single Point Calculation *
                       ****************************

---------------------------------
CARTESIAN COORDINATES (ANGSTROEM)
---------------------------------
  C     -3.832000    5.973000   -1.060000
  C      1.474000    4.041000    0.057000
  C     -2.802000    4.093000    0.049000
  C     -3.363000    4.558000    1.248000
  C     -4.136000    5.703000    1.254000
  C     -5.221000    7.596000    0.145000
  C      0.132000    4.307000    0.061000
  C     -0.569000    3.056000    0.047000
  C      1.649000    2.618000    0.023000
  C     -3.058000    4.830000   -1.118000
  N     -4.358000    6.394000    0.112000
  N      0.388000    2.067000    0.025000
  N     -2.010000    0.395000   -0.075000
  N     -0.388000   -2.074000   -0.027000
  N      2.010000   -0.401000    0.065000
  C     -1.960000    2.861000    0.024000
  C     -2.623000    1.615000   -0.018000
  C     -5.573000   -4.329000    1.066000
  C     -4.073000    1.471000    0.056000
  C     -4.106000   -2.756000   -0.026000
  C     -4.995000   -2.757000   -1.111000
  C     -6.132000   -3.542000   -1.076000
  C     -7.651000   -5.113000    0.040000
  C     -4.324000    0.141000    0.037000
  C     -3.025000   -0.520000   -0.048000
  C     -4.422000   -3.566000    1.075000
  N     -6.407000   -4.313000    0.001000
  C     -2.867000   -1.922000   -0.040000
  C     -1.650000   -2.624000   -0.027000
  C      3.568000   -6.142000   -1.040000
  C     -1.476000   -4.049000   -0.034000
  C      2.803000   -4.099000   -0.008000
  C      3.657000   -4.384000    1.069000
  C      4.427000   -5.530000    1.059000
  C      5.245000   -7.588000    0.014000
  C     -0.134000   -4.315000   -0.022000
  C      0.568000   -3.064000   -0.027000
  C      2.775000   -5.012000   -1.074000
  N      4.376000   -6.391000    0.017000
  C      1.959000   -2.869000   -0.009000
  C      2.621000   -1.622000    0.009000
  C      5.543000    4.339000   -1.130000
  C      4.070000   -1.479000   -0.094000
  C      4.104000    2.751000   -0.021000
  C      5.027000    2.729000    1.036000
  C      6.166000    3.509000    0.978000
  C      7.619000    5.153000   -0.115000
  C      4.321000   -0.148000   -0.092000
  C      3.025000    0.514000    0.015000
  C      4.387000    3.582000   -1.115000
  C      2.866000    1.916000    0.013000
  N      6.413000    4.296000   -0.095000
  H     -4.045000    6.579000   -1.932000
  H      2.274000    4.766000    0.081000
  H     -3.210000    4.028000    2.180000
  H     -4.596000    6.095000    2.151000
  H     -6.264000    7.288000    0.038000
  H     -5.077000    8.106000    1.097000
  H     -4.939000    8.253000   -0.677000
  H     -0.332000    5.282000    0.069000
  H     -2.641000    4.530000   -2.072000
  H      0.182000    1.072000    0.005000
  H     -0.183000   -1.080000   -0.021000
  H     -5.864000   -4.962000    1.895000
  H     -4.794000    2.272000    0.139000
  H     -4.800000   -2.160000   -1.994000
  H     -6.841000   -3.582000   -1.893000
  H     -8.428000   -4.536000    0.546000
  H     -7.956000   -5.337000   -0.981000
  H     -7.456000   -6.037000    0.584000
  H     -5.287000   -0.344000    0.100000
  H     -3.780000   -3.601000    1.947000
  H      3.587000   -6.868000   -1.843000
  H     -2.276000   -4.774000   -0.050000
  H      3.714000   -3.724000    1.926000
  H      5.092000   -5.795000    1.871000
  H      6.205000   -7.329000   -0.439000
  H      5.393000   -7.917000    1.042000
  H      4.759000   -8.373000   -0.564000
  H      0.329000   -5.290000   -0.008000
  H      2.146000   -4.842000   -1.940000
  H      5.808000    4.986000   -1.956000
  H      4.788000   -2.281000   -0.185000
  H      4.860000    2.114000    1.912000
  H      6.901000    3.531000    1.772000
  H      7.383000    6.109000    0.356000
  H      8.414000    4.652000    0.435000
  H      7.921000    5.310000   -1.150000
  H      5.283000    0.336000   -0.179000
  H      3.720000    3.632000   -1.967000

----------------------------
CARTESIAN COORDINATES (A.U.)
----------------------------
  NO LB      ZA    FRAG     MASS         X           Y           Z
   0 C     6.0000    0    12.011   -7.241431   11.287334   -2.003110
   1 C     6.0000    0    12.011    2.785456    7.636383    0.107714
   2 C     6.0000    0    12.011   -5.295013    7.734649    0.092597
   3 C     6.0000    0    12.011   -6.355149    8.613372    2.358378
   4 C     6.0000    0    12.011   -7.815907   10.777108    2.369717
   5 C     6.0000    0    12.011   -9.866260   14.354360    0.274010
   6 C     6.0000    0    12.011    0.249444    8.139050    0.115273
   7 C     6.0000    0    12.011   -1.075254    5.775003    0.088817
   8 C     6.0000    0    12.011    3.116158    4.947303    0.043464
   9 C     6.0000    0    12.011   -5.778783    9.127377   -2.112714
  10 N     7.0000    0    14.007   -8.235426   12.082909    0.211649
  11 N     7.0000    0    14.007    0.733214    3.906064    0.047243
  12 N     7.0000    0    14.007   -3.798350    0.746442   -0.141729
  13 N     7.0000    0    14.007   -0.733214   -3.919292   -0.051023
  14 N     7.0000    0    14.007    3.798350   -0.757780    0.122832
  15 C     6.0000    0    12.011   -3.703863    5.406506    0.045353
  16 C     6.0000    0    12.011   -4.956752    3.051908   -0.034015
  17 C     6.0000    0    12.011  -10.531444   -8.180624    2.014448
  18 C     6.0000    0    12.011   -7.696855    2.779787    0.105825
  19 C     6.0000    0    12.011   -7.759216   -5.208085   -0.049133
  20 C     6.0000    0    12.011   -9.439182   -5.209975   -2.099486
  21 C     6.0000    0    12.011  -11.587801   -6.693410   -2.033345
  22 C     6.0000    0    12.011  -14.458295   -9.662170    0.075589
  23 C     6.0000    0    12.011   -8.171176    0.266451    0.069920
  24 C     6.0000    0    12.011   -5.716422   -0.982658   -0.090707
  25 C     6.0000    0    12.011   -8.356369   -6.738763    2.031456
  26 N     7.0000    0    14.007  -12.107475   -8.150389    0.001890
  27 C     6.0000    0    12.011   -5.417845   -3.632054   -0.075589
  28 C     6.0000    0    12.011   -3.118048   -4.958641   -0.051023
  29 C     6.0000    0    12.011    6.742543  -11.606698   -1.965315
  30 C     6.0000    0    12.011   -2.789236   -7.651501   -0.064251
  31 C     6.0000    0    12.011    5.296902   -7.745987   -0.015118
  32 C     6.0000    0    12.011    6.910728   -8.284559    2.020117
  33 C     6.0000    0    12.011    8.365818  -10.450186    2.001220
  34 C     6.0000    0    12.011    9.911614  -14.339242    0.026456
  35 C     6.0000    0    12.011   -0.253223   -8.154168   -0.041574
  36 C     6.0000    0    12.011    1.073364   -5.790121   -0.051023
  37 C     6.0000    0    12.011    5.243990   -9.471307   -2.029566
  38 N     7.0000    0    14.007    8.269442  -12.077240    0.032125
  39 C     6.0000    0    12.011    3.701973   -5.421624   -0.017008
  40 C     6.0000    0    12.011    4.952972   -3.065136    0.017008
  41 C     6.0000    0    12.011   10.474752    8.199522   -2.135391
  42 C     6.0000    0    12.011    7.691185   -2.794905   -0.177634
  43 C     6.0000    0    12.011    7.755436    5.198637   -0.039684
  44 C     6.0000    0    12.011    9.499653    5.157063    1.957756
  45 C     6.0000    0    12.011   11.652051    6.631049    1.848152
  46 C     6.0000    0    12.011   14.397823    9.737759   -0.217319
  47 C     6.0000    0    12.011    8.165507   -0.279679   -0.173855
  48 C     6.0000    0    12.011    5.716422    0.971319    0.028346
  49 C     6.0000    0    12.011    8.290229    6.768999   -2.107045
  50 C     6.0000    0    12.011    5.415955    3.620715    0.024566
  51 N     7.0000    0    14.007   12.118814    8.118263   -0.179524
  52 H     1.0000    0     1.008   -7.643942   12.432508   -3.650951
  53 H     1.0000    0     1.008    4.297237    9.006435    0.153068
  54 H     1.0000    0     1.008   -6.066021    7.611817    4.119603
  55 H     1.0000    0     1.008   -8.685181   11.517881    4.064801
  56 H     1.0000    0     1.008  -11.837245   13.772324    0.071810
  57 H     1.0000    0     1.008   -9.594140   15.318120    2.073030
  58 H     1.0000    0     1.008   -9.333357   15.595910   -1.279345
  59 H     1.0000    0     1.008   -0.627389    9.981533    0.130391
  60 H     1.0000    0     1.008   -4.990767    8.560459   -3.915513
  61 H     1.0000    0     1.008    0.343930    2.025786    0.009449
  62 H     1.0000    0     1.008   -0.345820   -2.040904   -0.039684
  63 H     1.0000    0     1.008  -11.081354   -9.376821    3.581031
  64 H     1.0000    0     1.008   -9.059347    4.293458    0.262672
  65 H     1.0000    0     1.008   -9.070685   -4.081808   -3.768114
  66 H     1.0000    0     1.008  -12.927616   -6.768999   -3.577252
  67 H     1.0000    0     1.008  -15.926612   -8.571798    1.031790
  68 H     1.0000    0     1.008  -15.034661  -10.085468   -1.853821
  69 H     1.0000    0     1.008  -14.089798  -11.408277    1.103600
  70 H     1.0000    0     1.008   -9.990982   -0.650066    0.188973
  71 H     1.0000    0     1.008   -7.143165   -6.804904    3.679297
  72 H     1.0000    0     1.008    6.778448  -12.978639   -3.482765
  73 H     1.0000    0     1.008   -4.301017   -9.021553   -0.094486
  74 H     1.0000    0     1.008    7.018443   -7.037340    3.639613
  75 H     1.0000    0     1.008    9.622485  -10.950963    3.535678
  76 H     1.0000    0     1.008   11.725751  -13.849803   -0.829590
  77 H     1.0000    0     1.008   10.191293  -14.960962    1.969095
  78 H     1.0000    0     1.008    8.993207  -15.822677   -1.065806
  79 H     1.0000    0     1.008    0.621720   -9.996651   -0.015118
  80 H     1.0000    0     1.008    4.055352   -9.150054   -3.666069
  81 H     1.0000    0     1.008   10.975529    9.422175   -3.696304
  82 H     1.0000    0     1.008    9.048009   -4.310465   -0.349599
  83 H     1.0000    0     1.008    9.184069    3.994881    3.613156
  84 H     1.0000    0     1.008   13.041000    6.672623    3.348595
  85 H     1.0000    0     1.008   13.951848   11.544337    0.672743
  86 H     1.0000    0     1.008   15.900156    8.791006    0.822031
  87 H     1.0000    0     1.008   14.968521   10.034446   -2.173185
  88 H     1.0000    0     1.008    9.983423    0.634948   -0.338261
  89 H     1.0000    0     1.008    7.029781    6.863485   -3.717091

--------------------------------
INTERNAL COORDINATES (ANGSTROEM)
--------------------------------
 C      0   0   0     0.000000000000     0.00000000     0.00000000
 C      1   0   0     5.756209603550     0.00000000     0.00000000
 C      1   2   0     2.413541174291    41.92787328     0.00000000
 C      3   1   2     1.403049179466    87.92959899   115.46409385
 C      4   3   1     1.381517281832   120.14016544     0.15876915
 C      5   4   3     2.447561030904   152.50894856     1.57774303
 C      2   1   3     1.368114030335    14.33087584   336.88847769
 C      7   2   3     1.434084376876   108.05010202     0.84668783
 C      2   1   3     1.434123425651   116.16230689    35.86225151
 C      1   2   3     1.381625491948    38.19449697   312.56546650
 N      1   2   3     1.351850953323   107.15484381    70.87591638
 N      9   2   1     1.376127174356   106.58526707   346.33424076
 N     12   9   2     2.925062050624   168.53581413   171.12065651
 N     13  12   9     2.954513327098    91.55032014    11.12112580
 N     14  13  12     2.925371258490    88.43092389   359.84326247
 C      8   7   2     1.404790019896   127.24786865   181.11170171
 C     13  12   9     1.366535034311    81.72106996   188.00453233
 C     14  13  12     5.758810554272    80.56209567   166.76250791
 C     17  13  12     1.459010623676   111.08861209   183.82872609
 C     18  14  13     2.412235892279    27.27532823    36.33507194
 C     20  18  14     1.402692767501    87.95206320   148.94598259
 C     21  20  18     1.382106725257   120.14573887   359.70382047
 C     18  14  13     2.446510985056   144.15733107    82.80075377
 C     19  17  13     1.353610726908   106.29293361   359.75308708
 C     13  12   9     1.366813447402   172.21332906    33.46711076
 C     18  14  13     1.380960173213    15.08449437   309.23336894
 N     22  21  20     1.352773077792   120.73759875     0.27865223
 C     25  13  17     1.410897586645   125.60330303   182.37774668
 C     14  13  12     1.376642291955    80.24689249   177.85461986
 C     14  13  12     5.764089607215   164.51507311   312.20821879
 C     29  14  13     1.435600919476   106.58649366   178.76395472
 C     30  14  13     2.413316804732    27.10625047    82.12560436
 C     32  30  14     1.403734305344    87.90059683   149.76154742
 C     33  32  30     1.380694028378   120.14881443   359.74174632
 C     34  33  32     2.448777858443   152.49203239     2.45173620
 C     31  29  14     1.368160809262   108.16950133     0.70383075
 C     14  13  12     1.376239804685   169.26375223   353.09862627
 C     30  14  13     1.380907310430    14.68948582   353.70041132
 N     34  33  32     1.352658863128   120.85575621     0.19603406
 C     37  14  29     1.404717053360   126.01551127   180.90772073
 C     15  14  13     1.366491126938    81.61824056   183.09049352
 C      2   1   3     4.249062720177   143.60792580   160.28576648
 C     41  15  14     1.459677704153   111.05201287   175.08990246
 C     42   2   1     2.412953791518    41.78584867   204.21067896
 C     44  42   2     1.403446472082    87.95153797   233.97558675
 C     45  44  42     1.381696421071   120.11137308     0.19721020
 C     42   2   1     2.450019795838   135.97209175   114.52552806
 C     43  41  15     1.354461516618   106.26758155     0.30894352
 C     15  14  13     1.367461151185   171.87382904   332.35056460
 C     42   2   1     1.381886391857    32.59078432   253.06595815
 C      9   2   1     1.404988612053   126.98745415   167.33857829
 N     42   2   1     1.352765315936   113.57249190   142.26211725
 H      1   2   3     1.083046167068   121.69003264   208.66372098
 H      2   1   3     1.079907866440   117.50620730   204.29094938
 H      4   3   1     1.083020313752   121.11306700   179.56336098
 H      5   4   3     1.081606675275   122.81596745   179.45581549
 H      6   5   4     1.092777195955   104.44685605   100.14131055
 H      6   5   4     1.089559544036    84.69465977   209.55877903
 H      6   5   4     1.089429667303   133.91225021   322.41674234
 H      7   2  54     1.079807853278   126.66122480     1.30600390
 H     10   1   2     1.083515112954   118.79121804   259.18497238
 H     12   9   2     1.016297692608   125.29023241   180.00180175
 H     14  13  12     1.014936943854    44.97226959   359.42596618
 H     18  14  13     1.082871645210   128.03556573   234.20482432
 H     19  17  13     1.080893611786   126.41830519   178.11313280
 H     21  20  18     1.083569563987   121.05669627   180.67006309
 H     22  21  20     1.082483256222   122.73097286   180.59748951
 H     23  18  14     1.092105306278   103.92715769   234.93429879
 H     23  18  14     1.088871893291   134.19244188    12.25587044
 H     23  18  14     1.089833473518    84.85857450   125.45241208
 H     24  19  17     1.080075460327   127.28078426   178.44613241
 H     26  18  14     1.083408048706   118.76995697   244.94906660
 H     30  14  13     1.082703098730   127.99711412   279.66882698
 H     31  29  14     1.079759695488   125.22293469   180.92530585
 H     33  32  30     1.083188810873   121.01964473   180.74284758
 H     34  33  32     1.082494341787   122.70821597   180.59516895
 H     35  34  33     1.092652735319   105.73575241    97.19771933
 H     35  34  33     1.089462711615    84.05943581   206.43036958
 H     35  34  33     1.089268102902   133.08365142   318.50306270
 H     36  31  29     1.079439669458   126.61599965   178.98859863
 H     38  30  73     1.083742127999   118.77264435   359.90091293
 H     42   2   1     1.082178358682   119.31790784   358.89364771
 H     43  41  15     1.080281907652   126.36969097   182.06329380
 H     45  44  42     1.083277434455   121.10105945   179.58025624
 H     46  45  44     1.082194529648   122.72144639   179.46906377
 H     47  42   2     1.091546151109   106.65128841   315.16475048
 H     47  42   2     1.088818625851   132.46019523    94.52397119
 H     47  42   2     1.089531091801    83.63838232   206.04504406
 H     48  43  41     1.080402239909   127.23657387   181.62955349
 H     50  42   2     1.083186502870   118.77001737    94.71359229

---------------------------
INTERNAL COORDINATES (A.U.)
---------------------------
 C      0   0   0     0.000000000000     0.00000000     0.00000000
 C      1   0   0    10.877659720157     0.00000000     0.00000000
 C      1   2   0     4.560931832353    41.92787328     0.00000000
 C      3   1   2     2.651378701614    87.92959899   115.46409385
 C      4   3   1     2.610689311941   120.14016544     0.15876915
 C      5   4   3     4.625220044467   152.50894856     1.57774303
 C      2   1   3     2.585360837309    14.33087584   336.88847769
 C      7   2   3     2.710026725231   108.05010202     0.84668783
 C      2   1   3     2.710100516721   116.16230689    35.86225151
 C      1   2   3     2.610893799426    38.19449697   312.56546650
 N      1   2   3     2.554628075661   107.15484381    70.87591638
 N      9   2   1     2.600503484979   106.58526707   346.33424076
 N     12   9   2     5.527566200405   168.53581413   171.12065651
 N     13  12   9     5.583221047236    91.55032014    11.12112580
 N     14  13  12     5.528150518591    88.43092389   359.84326247
 C      8   7   2     2.654668413270   127.24786865   181.11170171
 C     13  12   9     2.582376967257    81.72106996   188.00453233
 C     14  13  12    10.882574804710    80.56209567   166.76250791
 C     17  13  12     2.757130505230   111.08861209   183.82872609
 C     18  14  13     4.558465206823    27.27532823    36.33507194
 C     20  18  14     2.650705180609    87.95206320   148.94598259
 C     21  20  18     2.611803198586   120.14573887   359.70382047
 C     18  14  13     4.623235745386   144.15733107    82.80075377
 C     19  17  13     2.557953565794   106.29293361   359.75308708
 C     13  12   9     2.582903091751   172.21332906    33.46711076
 C     18  14  13     2.609636529225    15.08449437   309.23336894
 N     22  21  20     2.556370638369   120.73759875     0.27865223
 C     25  13  17     2.666210041769   125.60330303   182.37774668
 C     14  13  12     2.601476916169    80.24689249   177.85461986
 C     14  13  12    10.892550769017   164.51507311   312.20821879
 C     29  14  13     2.712892575415   106.58649366   178.76395472
 C     30  14  13     4.560507835333    27.10625047    82.12560436
 C     32  30  14     2.652673401891    87.90059683   149.76154742
 C     33  32  30     2.609133588376   120.14881443   359.74174632
 C     34  33  32     4.627519515267   152.49203239     2.45173620
 C     31  29  14     2.585449236669   108.16950133     0.70383075
 C     14  13  12     2.600716325456   169.26375223   353.09862627
 C     30  14  13     2.609536633043    14.68948582   353.70041132
 N     34  33  32     2.556154803934   120.85575621     0.19603406
 C     37  14  29     2.654530526499   126.01551127   180.90772073
 C     15  14  13     2.582293994346    81.61824056   183.09049352
 C      2   1   3     8.029564866989   143.60792580   160.28576648
 C     41  15  14     2.758391104639   111.05201287   175.08990246
 C     42   2   1     4.559821839776    41.78584867   204.21067896
 C     44  42   2     2.652129475853    87.95153797   233.97558675
 C     45  44  42     2.611027836043   120.11137308     0.19721020
 C     42   2   1     4.629866436820   135.97209175   114.52552806
 C     43  41  15     2.559561325344   106.26758155     0.30894352
 C     15  14  13     2.584127074516   171.87382904   332.35056460
 C     42   2   1     2.611386828803    32.59078432   253.06595815
 C      9   2   1     2.655043698059   126.98745415   167.33857829
 N     42   2   1     2.556355970587   113.57249190   142.26211725
 H      1   2   3     2.046660646151   121.69003264   208.66372098
 H      2   1   3     2.040730117440   117.50620730   204.29094938
 H      4   3   1     2.046611790465   121.11306700   179.56336098
 H      5   4   3     2.043940400891   122.81596745   179.45581549
 H      6   5   4     2.065049625750   104.44685605   100.14131055
 H      6   5   4     2.058969144828    84.69465977   209.55877903
 H      6   5   4     2.058723713372   133.91225021   322.41674234
 H      7   2  54     2.040541119952   126.66122480     1.30600390
 H     10   1   2     2.047546825448   118.79121804   259.18497238
 H     12   9   2     1.920524309565   125.29023241   180.00180175
 H     14  13  12     1.917952867083    44.97226959   359.42596618
 H     18  14  13     2.046330847636   128.03556573   234.20482432
 H     19  17  13     2.042592906181   126.41830519   178.11313280
 H     21  20  18     2.047649722989   121.05669627   180.67006309
 H     22  21  20     2.045596898814   122.73097286   180.59748951
 H     23  18  14     2.063779938267   103.92715769   234.93429879
 H     23  18  14     2.057669673245   134.19244188    12.25587044
 H     23  18  14     2.059486796529    84.85857450   125.45241208
 H     24  19  17     2.041046823986   127.28078426   178.44613241
 H     26  18  14     2.047344503340   118.76995697   244.94906660
 H     30  14  13     2.046012340948   127.99711412   279.66882698
 H     31  29  14     2.040450114918   125.22293469   180.92530585
 H     33  32  30     2.046930203877   121.01964473   180.74284758
 H     34  33  32     2.045617847496   122.70821597   180.59516895
 H     35  34  33     2.064814429233   105.73575241    97.19771933
 H     35  34  33     2.058786158072    84.05943581   206.43036958
 H     35  34  33     2.058418400901   133.08365142   318.50306270
 H     36  31  29     2.039845353366   126.61599965   178.98859863
 H     38  30  73     2.047975821711   118.77264435   359.90091293
 H     42   2   1     2.045020725966   119.31790784   358.89364771
 H     43  41  15     2.041436952892   126.36969097   182.06329380
 H     45  44  42     2.047097678177   121.10105945   179.58025624
 H     46  45  44     2.045051284662   122.72144639   179.46906377
 H     47  42   2     2.062723288131   106.65128841   315.16475048
 H     47  42   2     2.057569012371   132.46019523    94.52397119
 H     47  42   2     2.058915377895    83.63838232   206.04504406
 H     48  43  41     2.041664347903   127.23657387   181.62955349
 H     50  42   2     2.046925842384   118.77001737    94.71359229

---------------------
BASIS SET INFORMATION
---------------------
There are 3 groups of distinct atoms

 Group   1 Type C   : 17s4p1d contracted to 3s2p1d pattern {881/31/1}
 Group   2 Type N   : 17s4p1d contracted to 3s2p1d pattern {881/31/1}
 Group   3 Type H   : 4s1p contracted to 2s1p pattern {31/1}

Atom   0C    basis set group =>   1
Atom   1N    basis set group =>   2
Atom   2C    basis set group =>   1
Atom   3N    basis set group =>   2
Atom   4C    basis set group =>   1
Atom   5N    basis set group =>   2
Atom   6C    basis set group =>   1
Atom   7N    basis set group =>   2
Atom   8C    basis set group =>   1
Atom   9N    basis set group =>   2
Atom  10C    basis set group =>   1
Atom  11N    basis set group =>   2
Atom  12C    basis set group =>   1
Atom  13N    basis set group =>   2
Atom  14C    basis set group =>   1
Atom  15N    basis set group =>   2
Atom  16C    basis set group =>   1
Atom  17C    basis set group =>   1
Atom  18C    basis set group =>   1
Atom  19C    basis set group =>   1
Atom  20C    basis set group =>   1
Atom  21C    basis set group =>   1
Atom  22C    basis set group =>   1
Atom  23C    basis set group =>   1
Atom  24C    basis set group =>   1
Atom  25C    basis set group =>   1
Atom  26C    basis set group =>   1
Atom  27C    basis set group =>   1
Atom  28C    basis set group =>   1
Atom  29C    basis set group =>   1
Atom  30C    basis set group =>   1
Atom  31C    basis set group =>   1
Atom  32C    basis set group =>   1
Atom  33C    basis set group =>   1
Atom  34C    basis set group =>   1
Atom  35C    basis set group =>   1
Atom  36C    basis set group =>   1
Atom  37C    basis set group =>   1
Atom  38C    basis set group =>   1
Atom  39C    basis set group =>   1
Atom  40C    basis set group =>   1
Atom  41C    basis set group =>   1
Atom  42C    basis set group =>   1
Atom  43C    basis set group =>   1
Atom  44C    basis set group =>   1
Atom  45C    basis set group =>   1
Atom  46C    basis set group =>   1
Atom  47C    basis set group =>   1
Atom  48C    basis set group =>   1
Atom  49C    basis set group =>   1
Atom  50C    basis set group =>   1
Atom  51C    basis set group =>   1
Atom  52H    basis set group =>   3
Atom  53H    basis set group =>   3
Atom  54H    basis set group =>   3
Atom  55H    basis set group =>   3
Atom  56H    basis set group =>   3
Atom  57H    basis set group =>   3
Atom  58H    basis set group =>   3
Atom  59H    basis set group =>   3
Atom  60H    basis set group =>   3
Atom  61H    basis set group =>   3
Atom  62H    basis set group =>   3
Atom  63H    basis set group =>   3
Atom  64H    basis set group =>   3
Atom  65H    basis set group =>   3
Atom  66H    basis set group =>   3
Atom  67H    basis set group =>   3
Atom  68H    basis set group =>   3
Atom  69H    basis set group =>   3
Atom  70H    basis set group =>   3
Atom  71H    basis set group =>   3
Atom  72H    basis set group =>   3
Atom  73H    basis set group =>   3
Atom  74H    basis set group =>   3
Atom  75H    basis set group =>   3
Atom  76H    basis set group =>   3
Atom  77H    basis set group =>   3
Atom  78H    basis set group =>   3
Atom  79H    basis set group =>   3
Atom  80H    basis set group =>   3
Atom  81H    basis set group =>   3
Atom  82H    basis set group =>   3
Atom  83H    basis set group =>   3
Atom  84H    basis set group =>   3
Atom  85H    basis set group =>   3
Atom  86H    basis set group =>   3
Atom  87H    basis set group =>   3
Atom  88H    basis set group =>   3
Atom  89H    basis set group =>   3


           ************************************************************
           *        Program running with 16 parallel MPI-processes    *
           *              working on a common directory               *
           ************************************************************
------------------------------------------------------------------------------
                           ORCA GTO INTEGRAL CALCULATION
------------------------------------------------------------------------------
------------------------------------------------------------------------------
                   ___                                                        
                  /   \      - P O W E R E D   B Y -                         
                 /     \                                                     
                 |  |  |   _    _      __       _____    __    __             
                 |  |  |  | |  | |    /  \     |  _  \  |  |  /  |          
                  \  \/   | |  | |   /    \    | | | |  |  | /  /          
                 / \  \   | |__| |  /  /\  \   | |_| |  |  |/  /          
                |  |  |   |  __  | /  /__\  \  |    /   |      \           
                |  |  |   | |  | | |   __   |  |    \   |  |\   \          
                \     /   | |  | | |  |  |  |  | |\  \  |  | \   \       
                 \___/    |_|  |_| |__|  |__|  |_| \__\ |__|  \__/        
                                                                              
                      - O R C A' S   B I G   F R I E N D -                    
                                      &                                       
                       - I N T E G R A L  F E E D E R -                       
                                                                              
 v1 FN, 2020, v2 2021                                                         
------------------------------------------------------------------------------


Reading SHARK input file /scratch/allen/tmpyp4_amber_gaff2/conf1/conf1/Conf82.orca.SHARKINP.tmp ... ok
----------------------
SHARK INTEGRAL PACKAGE
----------------------

Number of atoms                             ...     90
Number of basis functions                   ...   1230
Number of shells                            ...    738
Maximum angular momentum                    ...      2
Integral batch strategy                     ... SHARK/LIBINT Hybrid
RI-J (if used) integral strategy            ... SPLIT-RIJ (Revised 2003 algorithm where possible)
Printlevel                                  ...      1
Contraction scheme used                     ... PARTIAL GENERAL contraction
Coulomb Range Separation                    ... NOT USED
Exchange Range Separation                   ... NOT USED
Finite Nucleus Model                        ... NOT USED
Auxiliary Coulomb fitting basis             ... NOT available
Auxiliary J/K fitting basis                 ... NOT available
Auxiliary Correlation fitting basis         ... NOT available
Auxiliary 'external' fitting basis          ... NOT available
Integral threshold                          ...     2.500000e-11
Primitive cut-off                           ...     2.500000e-12
Primitive pair pre-selection threshold      ...     2.500000e-12

Calculating pre-screening integrals         ... done (  0.1 sec) Dimension = 738
Calculating pre-screening integrals (ORCA)  ... done (  0.3 sec) Dimension = 426
Organizing shell pair data                  ... done (  0.8 sec)
Shell pair information
Total number of shell pairs                 ...    272691
Shell pairs after pre-screening             ...     71592
Total number of primitive shell pairs       ...    422091
Primitive shell pairs kept                  ...     92338
          la=0 lb=0:  29415 shell pairs
          la=1 lb=0:  25953 shell pairs
          la=1 lb=1:   4688 shell pairs
          la=2 lb=0:   7892 shell pairs
          la=2 lb=1:   3113 shell pairs
          la=2 lb=2:    531 shell pairs

Calculating one electron integrals          ... done (  0.3 sec)
Calculating Nuclear repulsion               ... done (  0.0 sec) ENN=   6222.156723629384 Eh

SHARK setup successfully completed in   2.2 seconds

Maximum memory used throughout the entire GTOINT-calculation: 98.9 MB


           ************************************************************
           *        Program running with 16 parallel MPI-processes    *
           *              working on a common directory               *
           ************************************************************
-------------------------------------------------------------------------------
                                 ORCA SCF
-------------------------------------------------------------------------------

------------
SCF SETTINGS
------------
Hamiltonian:
 Ab initio Hamiltonian  Method          .... Hartree-Fock(GTOs)


General Settings:
 Integral files         IntName         .... /scratch/allen/tmpyp4_amber_gaff2/conf1/conf1/Conf82.orca
 Hartree-Fock type      HFTyp           .... RHF
 Total Charge           Charge          ....    0
 Multiplicity           Mult            ....    1
 Number of Electrons    NEL             ....  358
 Basis Dimension        Dim             ....  918
 Nuclear Repulsion      ENuc            ....   6222.1567236294 Eh

Convergence Acceleration:
 DIIS                   CNVDIIS         .... on
   Start iteration      DIISMaxIt       ....    12
   Startup error        DIISStart       ....  0.200000
   # of expansion vecs  DIISMaxEq       ....     5
   Bias factor          DIISBfac        ....   1.050
   Max. coefficient     DIISMaxC        ....  10.000
 Trust-Rad. Augm. Hess. CNVTRAH         .... auto
   Auto Start mean grad. ratio tolernc. ....  1.125000
   Auto Start start iteration           ....    20
   Auto Start num. interpolation iter.  ....    10
   Max. Number of Micro iterations      ....    16
   Max. Number of Macro iterations      .... Maxiter - #DIIS iter
   Number of Davidson start vectors     ....     2
   Converg. threshold I  (grad. norm)   ....   1.000e-05
   Converg. threshold II (energy diff.) ....   1.000e-08
   Grad. Scal. Fac. for Micro threshold ....   0.100
   Minimum threshold for Micro iter.    ....   0.010
   NR start threshold (gradient norm)   ....   0.001
   Initial trust radius                 ....   0.400
   Minimum AH scaling param. (alpha)    ....   1.000
   Maximum AH scaling param. (alpha)    .... 1000.000
   Orbital update algorithm             .... Taylor
   White noise on init. David. guess    .... on
   Maximum white noise                  ....   0.010
   Quad. conv. algorithm                .... NR
 SOSCF                  CNVSOSCF        .... on
   Start iteration      SOSCFMaxIt      ....   150
   Startup grad/error   SOSCFStart      ....  0.003300
 Level Shifting         CNVShift        .... on
   Level shift para.    LevelShift      ....    0.2500
   Turn off err/grad.   ShiftErr        ....    0.0010
 Zerner damping         CNVZerner       .... off
 Static damping         CNVDamp         .... on
   Fraction old density DampFac         ....    0.7000
   Max. Damping (<1)    DampMax         ....    0.9800
   Min. Damping (>=0)   DampMin         ....    0.0000
   Turn off err/grad.   DampErr         ....    0.1000
 Fernandez-Rico         CNVRico         .... off

SCF Procedure:
 Maximum # iterations   MaxIter         ....   125
 SCF integral mode      SCFMode         .... Direct
   Integral package                     .... SHARK and LIBINT hybrid scheme
 Reset frequency        DirectResetFreq ....    20
 Integral Threshold     Thresh          ....  2.500e-11 Eh
 Primitive CutOff       TCut            ....  2.500e-12 Eh

Convergence Tolerance:
 Convergence Check Mode ConvCheckMode   .... Total+1el-Energy
 Convergence forced     ConvForced      .... 1
 Energy Change          TolE            ....  1.000e-08 Eh
 1-El. energy change                    ....  1.000e-05 Eh
 Orbital Gradient       TolG            ....  1.000e-05
 Orbital Rotation angle TolX            ....  1.000e-05
 DIIS Error             TolErr          ....  5.000e-07


Diagonalization of the overlap matrix:
Smallest eigenvalue                        ... 2.262e-04
Time for diagonalization                   ...    0.408 sec
Threshold for overlap eigenvalues          ... 1.000e-08
Number of eigenvalues below threshold      ... 0
Time for construction of square roots      ...    0.250 sec
Total time needed                          ...    0.663 sec

Time for model grid setup =    1.049 sec

------------------------------
INITIAL GUESS: MODEL POTENTIAL
------------------------------
Loading Hartree-Fock densities                     ... done
Calculating cut-offs                               ... done
Initializing the effective Hamiltonian             ... done
Setting up the integral package (SHARK)            ... done
Starting the Coulomb interaction                   ... done (   1.1 sec)
Reading the grid                                   ... done
Mapping shells                                     ... done
Starting the XC term evaluation                    ... done (   0.2 sec)
Transforming the Hamiltonian                       ... done (   0.2 sec)
Diagonalizing the Hamiltonian                      ... done (   0.3 sec)
Back transforming the eigenvectors                 ... done (   0.1 sec)
Now organizing SCF variables                       ... done
                      ------------------
                      INITIAL GUESS DONE (   3.1 sec)
                      ------------------
--------------
SCF ITERATIONS
--------------
ITER       Energy         Delta-E        Max-DP      RMS-DP      [F,P]     Damp
               ***  Starting incremental Fock matrix formation  ***
  0  -2121.6428239205   0.000000000000 0.06932856  0.00121244  0.2349722 0.7000
  1  -2122.3117967606  -0.668972840151 0.05269852  0.00098270  0.1453343 0.7000
                               ***Turning on DIIS***
  2  -2122.7279362022  -0.416139441611 0.11736451  0.00222155  0.0806698 0.0000
  3  -2117.7499166465   4.978019555741 0.03437733  0.00068673  0.0442752 0.0000
  4  -2123.4096575548  -5.659740908353 0.00923981  0.00023060  0.0073294 0.0000
  5  -2123.5803105342  -0.170652979368 0.00530704  0.00013886  0.0051394 0.0000
  6  -2123.5599576460   0.020352888241 0.00445732  0.00009472  0.0024116 0.0000
  7  -2123.6651563666  -0.105198720592 0.00397564  0.00007954  0.0018904 0.0000
  8  -2123.6937183526  -0.028561986021 0.00384552  0.00008065  0.0017765 0.0000
                      *** Initiating the SOSCF procedure ***
                           *** Shutting down DIIS ***
                      *** Re-Reading the Fockian *** 
                      *** Removing any level shift *** 
ITER      Energy       Delta-E        Grad      Rot      Max-DP    RMS-DP
  9  -2123.65238417   0.0413341848  0.003163  0.003163  0.002951  0.000059
               *** Restarting incremental Fock matrix formation ***
 10  -2123.60872100   0.0436631647  0.002263  0.021108  0.005904  0.000097
 11  -2123.60935021  -0.0006292043  0.001462  0.071090  0.016608  0.000313
 12  -2123.61036664  -0.0010164313  0.001014  0.012808  0.005033  0.000067
 13  -2123.61061854  -0.0002519036  0.000777  0.015288  0.004827  0.000080
 14  -2123.61079546  -0.0001769130  0.000476  0.012391  0.004266  0.000059
 15  -2123.61087431  -0.0000788565  0.000319  0.011190  0.003452  0.000055
 16  -2123.61092938  -0.0000550703  0.000332  0.008456  0.001872  0.000035
 17  -2123.61095489  -0.0000255073  0.000193  0.002023  0.000890  0.000013
 18  -2123.61096188  -0.0000069882  0.000147  0.002191  0.000553  0.000009
 19  -2123.61096562  -0.0000037471  0.000097  0.002453  0.000566  0.000009
 20  -2123.61096812  -0.0000024905  0.000078  0.003478  0.000718  0.000012
 21  -2123.61097001  -0.0000018980  0.000059  0.002596  0.000496  0.000009
 22  -2123.61097095  -0.0000009357  0.000034  0.001448  0.000264  0.000005
 23  -2123.61097135  -0.0000004053  0.000023  0.000590  0.000149  0.000003
 24  -2123.61097154  -0.0000001809  0.000024  0.000563  0.000170  0.000002
 25  -2123.61097165  -0.0000001155  0.000021  0.000593  0.000201  0.000003
 26  -2123.61097174  -0.0000000899  0.000012  0.000619  0.000195  0.000003
 27  -2123.61097181  -0.0000000667  0.000012  0.000477  0.000123  0.000002
 28  -2123.61097184  -0.0000000300  0.000006  0.000141  0.000030  0.000001
 29  -2123.61097185  -0.0000000131  0.000003  0.000057  0.000013  0.000000
               *** Restarting incremental Fock matrix formation ***
                  ***Gradient check signals convergence***
              ***Rediagonalizing the Fockian in SOSCF/NRSCF***

               *****************************************************
               *                     SUCCESS                       *
               *           SCF CONVERGED AFTER  30 CYCLES          *
               *****************************************************


----------------
TOTAL SCF ENERGY
----------------

Total Energy       :        -2123.61097191 Eh          -57786.39235 eV

Components:
Nuclear Repulsion  :         6222.15672363 Eh          169313.49218 eV
Electronic Energy  :        -8345.76769554 Eh         -227099.88453 eV
One Electron Energy:       -15285.78575656 Eh         -415947.37679 eV
Two Electron Energy:         6940.01806103 Eh          188847.49226 eV

Virial components:
Potential Energy   :        -4245.59808665 Eh         -115528.59730 eV
Kinetic Energy     :         2121.98711475 Eh           57742.20495 eV
Virial Ratio       :            2.00076525


---------------
SCF CONVERGENCE
---------------

  Last Energy change         ...   -5.6245e-08  Tolerance :   1.0000e-08
  Last MAX-Density change    ...    1.4303e-05  Tolerance :   1.0000e-07
  Last RMS-Density change    ...    2.7628e-07  Tolerance :   5.0000e-09
  Last Orbital Gradient      ...    2.4285e-06  Tolerance :   1.0000e-05
  Last Orbital Rotation      ...    6.3964e-05  Tolerance :   1.0000e-05

             **** THE GBW FILE WAS UPDATED (/scratch/allen/tmpyp4_amber_gaff2/conf1/conf1/Conf82.orca.gbw) ****
             **** DENSITY /scratch/allen/tmpyp4_amber_gaff2/conf1/conf1/Conf82.orca.scfp WAS UPDATED ****
             **** ENERGY FILE WAS UPDATED (/scratch/allen/tmpyp4_amber_gaff2/conf1/conf1/Conf82.orca.en.tmp) ****
             **** THE GBW FILE WAS UPDATED (/scratch/allen/tmpyp4_amber_gaff2/conf1/conf1/Conf82.orca.gbw) ****
             **** DENSITY /scratch/allen/tmpyp4_amber_gaff2/conf1/conf1/Conf82.orca.scfp WAS UPDATED ****
----------------
ORBITAL ENERGIES
----------------

  NO   OCC          E(Eh)            E(eV) 
   0   2.0000     -15.710131      -427.4944 
   1   2.0000     -15.629917      -425.3117 
   2   2.0000     -15.620013      -425.0422 
   3   2.0000     -15.581590      -423.9966 
   4   2.0000     -15.520531      -422.3351 
   5   2.0000     -15.505265      -421.9197 
   6   2.0000     -15.450377      -420.4261 
   7   2.0000     -15.428408      -419.8283 
   8   2.0000     -11.350914      -308.8741 
   9   2.0000     -11.349037      -308.8230 
  10   2.0000     -11.344688      -308.7046 
  11   2.0000     -11.305141      -307.6285 
  12   2.0000     -11.297191      -307.4122 
  13   2.0000     -11.291270      -307.2511 
  14   2.0000     -11.290499      -307.2301 
  15   2.0000     -11.282321      -307.0076 
  16   2.0000     -11.282124      -307.0022 
  17   2.0000     -11.281127      -306.9751 
  18   2.0000     -11.280728      -306.9642 
  19   2.0000     -11.272995      -306.7538 
  20   2.0000     -11.266369      -306.5735 
  21   2.0000     -11.247253      -306.0533 
  22   2.0000     -11.243898      -305.9620 
  23   2.0000     -11.233569      -305.6810 
  24   2.0000     -11.227651      -305.5199 
  25   2.0000     -11.226748      -305.4953 
  26   2.0000     -11.224295      -305.4286 
  27   2.0000     -11.220059      -305.3133 
  28   2.0000     -11.219752      -305.3050 
  29   2.0000     -11.209533      -305.0269 
  30   2.0000     -11.208024      -304.9859 
  31   2.0000     -11.192767      -304.5707 
  32   2.0000     -11.192007      -304.5500 
  33   2.0000     -11.191713      -304.5420 
  34   2.0000     -11.191236      -304.5290 
  35   2.0000     -11.190796      -304.5170 
  36   2.0000     -11.187980      -304.4404 
  37   2.0000     -11.181245      -304.2571 
  38   2.0000     -11.181080      -304.2527 
  39   2.0000     -11.175339      -304.0964 
  40   2.0000     -11.167288      -303.8774 
  41   2.0000     -11.164735      -303.8079 
  42   2.0000     -11.164109      -303.7908 
  43   2.0000     -11.161594      -303.7224 
  44   2.0000     -11.159825      -303.6743 
  45   2.0000     -11.147249      -303.3321 
  46   2.0000     -11.146857      -303.3214 
  47   2.0000     -11.141699      -303.1810 
  48   2.0000     -11.140111      -303.1378 
  49   2.0000     -11.132811      -302.9392 
  50   2.0000     -11.119391      -302.5740 
  51   2.0000     -11.114097      -302.4300 
  52   2.0000      -1.384060       -37.6622 
  53   2.0000      -1.317906       -35.8620 
  54   2.0000      -1.308838       -35.6153 
  55   2.0000      -1.276186       -34.7268 
  56   2.0000      -1.223426       -33.2911 
  57   2.0000      -1.201287       -32.6887 
  58   2.0000      -1.175535       -31.9879 
  59   2.0000      -1.159804       -31.5599 
  60   2.0000      -1.139039       -30.9948 
  61   2.0000      -1.106896       -30.1202 
  62   2.0000      -1.102622       -30.0039 
  63   2.0000      -1.098533       -29.8926 
  64   2.0000      -1.069810       -29.1110 
  65   2.0000      -1.052518       -28.6405 
  66   2.0000      -1.042231       -28.3605 
  67   2.0000      -1.033732       -28.1293 
  68   2.0000      -1.014337       -27.6015 
  69   2.0000      -1.004488       -27.3335 
  70   2.0000      -1.003063       -27.2947 
  71   2.0000      -0.993137       -27.0246 
  72   2.0000      -0.984662       -26.7940 
  73   2.0000      -0.977882       -26.6095 
  74   2.0000      -0.963815       -26.2267 
  75   2.0000      -0.961775       -26.1712 
  76   2.0000      -0.951136       -25.8817 
  77   2.0000      -0.941437       -25.6178 
  78   2.0000      -0.928814       -25.2743 
  79   2.0000      -0.921653       -25.0794 
  80   2.0000      -0.913942       -24.8696 
  81   2.0000      -0.889834       -24.2136 
  82   2.0000      -0.884215       -24.0607 
  83   2.0000      -0.869155       -23.6509 
  84   2.0000      -0.861150       -23.4331 
  85   2.0000      -0.847587       -23.0640 
  86   2.0000      -0.831235       -22.6191 
  87   2.0000      -0.828212       -22.5368 
  88   2.0000      -0.821177       -22.3454 
  89   2.0000      -0.794744       -21.6261 
  90   2.0000      -0.787093       -21.4179 
  91   2.0000      -0.767761       -20.8918 
  92   2.0000      -0.733900       -19.9704 
  93   2.0000      -0.733541       -19.9607 
  94   2.0000      -0.728248       -19.8166 
  95   2.0000      -0.722166       -19.6511 
  96   2.0000      -0.716525       -19.4976 
  97   2.0000      -0.706877       -19.2351 
  98   2.0000      -0.705718       -19.2036 
  99   2.0000      -0.701316       -19.0838 
 100   2.0000      -0.695582       -18.9277 
 101   2.0000      -0.689257       -18.7556 
 102   2.0000      -0.684550       -18.6276 
 103   2.0000      -0.674431       -18.3522 
 104   2.0000      -0.673169       -18.3179 
 105   2.0000      -0.668121       -18.1805 
 106   2.0000      -0.665072       -18.0975 
 107   2.0000      -0.663309       -18.0496 
 108   2.0000      -0.652561       -17.7571 
 109   2.0000      -0.650209       -17.6931 
 110   2.0000      -0.648380       -17.6433 
 111   2.0000      -0.643121       -17.5002 
 112   2.0000      -0.640500       -17.4289 
 113   2.0000      -0.636329       -17.3154 
 114   2.0000      -0.630747       -17.1635 
 115   2.0000      -0.629139       -17.1197 
 116   2.0000      -0.626159       -17.0387 
 117   2.0000      -0.617840       -16.8123 
 118   2.0000      -0.611887       -16.6503 
 119   2.0000      -0.610093       -16.6015 
 120   2.0000      -0.609163       -16.5762 
 121   2.0000      -0.601810       -16.3761 
 122   2.0000      -0.590321       -16.0634 
 123   2.0000      -0.587075       -15.9751 
 124   2.0000      -0.585439       -15.9306 
 125   2.0000      -0.578840       -15.7510 
 126   2.0000      -0.575712       -15.6659 
 127   2.0000      -0.573560       -15.6074 
 128   2.0000      -0.571764       -15.5585 
 129   2.0000      -0.565164       -15.3789 
 130   2.0000      -0.556540       -15.1442 
 131   2.0000      -0.546215       -14.8633 
 132   2.0000      -0.541805       -14.7433 
 133   2.0000      -0.539513       -14.6809 
 134   2.0000      -0.533776       -14.5248 
 135   2.0000      -0.530069       -14.4239 
 136   2.0000      -0.518737       -14.1156 
 137   2.0000      -0.516175       -14.0458 
 138   2.0000      -0.513459       -13.9719 
 139   2.0000      -0.512760       -13.9529 
 140   2.0000      -0.510161       -13.8822 
 141   2.0000      -0.503111       -13.6904 
 142   2.0000      -0.501471       -13.6457 
 143   2.0000      -0.499367       -13.5885 
 144   2.0000      -0.495575       -13.4853 
 145   2.0000      -0.493622       -13.4321 
 146   2.0000      -0.489516       -13.3204 
 147   2.0000      -0.475061       -12.9271 
 148   2.0000      -0.472880       -12.8677 
 149   2.0000      -0.465839       -12.6761 
 150   2.0000      -0.461820       -12.5668 
 151   2.0000      -0.460162       -12.5216 
 152   2.0000      -0.451523       -12.2866 
 153   2.0000      -0.440974       -11.9995 
 154   2.0000      -0.434631       -11.8269 
 155   2.0000      -0.432884       -11.7794 
 156   2.0000      -0.419675       -11.4199 
 157   2.0000      -0.414636       -11.2828 
 158   2.0000      -0.413153       -11.2425 
 159   2.0000      -0.404184       -10.9984 
 160   2.0000      -0.381593       -10.3837 
 161   2.0000      -0.370375       -10.0784 
 162   2.0000      -0.354059        -9.6344 
 163   2.0000      -0.353100        -9.6083 
 164   2.0000      -0.346701        -9.4342 
 165   2.0000      -0.340349        -9.2614 
 166   2.0000      -0.338762        -9.2182 
 167   2.0000      -0.320444        -8.7197 
 168   2.0000      -0.313721        -8.5368 
 169   2.0000      -0.303498        -8.2586 
 170   2.0000      -0.298186        -8.1141 
 171   2.0000      -0.283268        -7.7081 
 172   2.0000      -0.276515        -7.5244 
 173   2.0000      -0.265521        -7.2252 
 174   2.0000      -0.231230        -6.2921 
 175   2.0000      -0.183506        -4.9935 
 176   2.0000      -0.173667        -4.7257 
 177   2.0000      -0.062565        -1.7025 
 178   2.0000      -0.050801        -1.3824 
 179   0.0000       0.035263         0.9596 
 180   0.0000       0.056378         1.5341 
 181   0.0000       0.079802         2.1715 
 182   0.0000       0.098261         2.6738 
 183   0.0000       0.101847         2.7714 
 184   0.0000       0.127659         3.4738 
 185   0.0000       0.140599         3.8259 
 186   0.0000       0.148066         4.0291 
 187   0.0000       0.162987         4.4351 
 188   0.0000       0.166693         4.5359 
 189   0.0000       0.167839         4.5671 
 190   0.0000       0.170429         4.6376 
 191   0.0000       0.172450         4.6926 
 192   0.0000       0.176664         4.8073 
 193   0.0000       0.193075         5.2539 
 194   0.0000       0.204215         5.5570 
 195   0.0000       0.205538         5.5930 
 196   0.0000       0.211464         5.7542 
 197   0.0000       0.211754         5.7621 
 198   0.0000       0.217059         5.9065 
 199   0.0000       0.221378         6.0240 
 200   0.0000       0.233809         6.3623 
 201   0.0000       0.234114         6.3706 
 202   0.0000       0.237137         6.4528 
 203   0.0000       0.240707         6.5500 
 204   0.0000       0.242616         6.6019 
 205   0.0000       0.246284         6.7017 
 206   0.0000       0.250413         6.8141 
 207   0.0000       0.252330         6.8662 
 208   0.0000       0.254772         6.9327 
 209   0.0000       0.258576         7.0362 
 210   0.0000       0.263449         7.1688 
 211   0.0000       0.265996         7.2381 
 212   0.0000       0.266982         7.2650 
 213   0.0000       0.273864         7.4522 
 214   0.0000       0.279157         7.5963 
 215   0.0000       0.280230         7.6254 
 216   0.0000       0.283137         7.7045 
 217   0.0000       0.284873         7.7518 
 218   0.0000       0.288239         7.8434 
 219   0.0000       0.288936         7.8623 
 220   0.0000       0.291275         7.9260 
 221   0.0000       0.294095         8.0027 
 222   0.0000       0.297705         8.1010 
 223   0.0000       0.299184         8.1412 
 224   0.0000       0.300397         8.1742 
 225   0.0000       0.304503         8.2860 
 226   0.0000       0.305325         8.3083 
 227   0.0000       0.305995         8.3266 
 228   0.0000       0.316227         8.6050 
 229   0.0000       0.318771         8.6742 
 230   0.0000       0.327035         8.8991 
 231   0.0000       0.328103         8.9281 
 232   0.0000       0.330663         8.9978 
 233   0.0000       0.334693         9.1075 
 234   0.0000       0.338961         9.2236 
 235   0.0000       0.356516         9.7013 
 236   0.0000       0.358678         9.7601 
 237   0.0000       0.362027         9.8513 
 238   0.0000       0.378967        10.3122 
 239   0.0000       0.392042        10.6680 
 240   0.0000       0.397909        10.8276 
 241   0.0000       0.399200        10.8628 
 242   0.0000       0.407754        11.0955 
 243   0.0000       0.419442        11.4136 
 244   0.0000       0.424250        11.5444 
 245   0.0000       0.429101        11.6764 
 246   0.0000       0.436324        11.8730 
 247   0.0000       0.438531        11.9330 
 248   0.0000       0.442836        12.0502 
 249   0.0000       0.444975        12.1084 
 250   0.0000       0.450824        12.2675 
 251   0.0000       0.455941        12.4068 
 252   0.0000       0.462709        12.5910 
 253   0.0000       0.467567        12.7231 
 254   0.0000       0.470442        12.8014 
 255   0.0000       0.476198        12.9580 
 256   0.0000       0.476946        12.9784 
 257   0.0000       0.483486        13.1563 
 258   0.0000       0.487652        13.2697 
 259   0.0000       0.493502        13.4289 
 260   0.0000       0.502326        13.6690 
 261   0.0000       0.504085        13.7168 
 262   0.0000       0.507987        13.8230 
 263   0.0000       0.509122        13.8539 
 264   0.0000       0.512049        13.9336 
 265   0.0000       0.516291        14.0490 
 266   0.0000       0.520374        14.1601 
 267   0.0000       0.525042        14.2871 
 268   0.0000       0.531612        14.4659 
 269   0.0000       0.541105        14.7242 
 270   0.0000       0.543491        14.7891 
 271   0.0000       0.545388        14.8408 
 272   0.0000       0.547321        14.8934 
 273   0.0000       0.550672        14.9846 
 274   0.0000       0.552219        15.0267 
 275   0.0000       0.559544        15.2260 
 276   0.0000       0.567737        15.4489 
 277   0.0000       0.570738        15.5306 
 278   0.0000       0.578203        15.7337 
 279   0.0000       0.585208        15.9243 
 280   0.0000       0.589608        16.0440 
 281   0.0000       0.593940        16.1619 
 282   0.0000       0.596292        16.2259 
 283   0.0000       0.597916        16.2701 
 284   0.0000       0.602364        16.3912 
 285   0.0000       0.603469        16.4212 
 286   0.0000       0.605333        16.4720 
 287   0.0000       0.608896        16.5689 
 288   0.0000       0.613767        16.7015 
 289   0.0000       0.618409        16.8278 
 290   0.0000       0.625072        17.0091 
 291   0.0000       0.629014        17.1163 
 292   0.0000       0.631681        17.1889 
 293   0.0000       0.636019        17.3070 
 294   0.0000       0.642173        17.4744 
 295   0.0000       0.647048        17.6071 
 296   0.0000       0.653975        17.7956 
 297   0.0000       0.656043        17.8518 
 298   0.0000       0.660162        17.9639 
 299   0.0000       0.662692        18.0328 
 300   0.0000       0.667431        18.1617 
 301   0.0000       0.668466        18.1899 
 302   0.0000       0.672885        18.3101 
 303   0.0000       0.674917        18.3654 
 304   0.0000       0.677851        18.4453 
 305   0.0000       0.679685        18.4952 
 306   0.0000       0.683706        18.6046 
 307   0.0000       0.688084        18.7237 
 308   0.0000       0.690047        18.7771 
 309   0.0000       0.696181        18.9440 
 310   0.0000       0.698835        19.0163 
 311   0.0000       0.702316        19.1110 
 312   0.0000       0.706001        19.2113 
 313   0.0000       0.706876        19.2351 
 314   0.0000       0.713805        19.4236 
 315   0.0000       0.715066        19.4579 
 316   0.0000       0.716315        19.4919 
 317   0.0000       0.717436        19.5224 
 318   0.0000       0.719228        19.5712 
 319   0.0000       0.722955        19.6726 
 320   0.0000       0.725767        19.7491 
 321   0.0000       0.728687        19.8286 
 322   0.0000       0.731275        19.8990 
 323   0.0000       0.736199        20.0330 
 324   0.0000       0.740881        20.1604 
 325   0.0000       0.742113        20.1939 
 326   0.0000       0.744961        20.2714 
 327   0.0000       0.748559        20.3693 
 328   0.0000       0.750326        20.4174 
 329   0.0000       0.755972        20.5710 
 330   0.0000       0.758296        20.6343 
 331   0.0000       0.759860        20.6768 
 332   0.0000       0.761382        20.7182 
 333   0.0000       0.764098        20.7922 
 334   0.0000       0.765996        20.8438 
 335   0.0000       0.767880        20.8951 
 336   0.0000       0.772592        21.0233 
 337   0.0000       0.777615        21.1600 
 338   0.0000       0.781328        21.2610 
 339   0.0000       0.786361        21.3980 
 340   0.0000       0.789207        21.4754 
 341   0.0000       0.790428        21.5086 
 342   0.0000       0.794425        21.6174 
 343   0.0000       0.795580        21.6488 
 344   0.0000       0.798689        21.7334 
 345   0.0000       0.800335        21.7782 
 346   0.0000       0.802959        21.8496 
 347   0.0000       0.807471        21.9724 
 348   0.0000       0.813388        22.1334 
 349   0.0000       0.814755        22.1706 
 350   0.0000       0.817152        22.2358 
 351   0.0000       0.821392        22.3512 
 352   0.0000       0.823770        22.4159 
 353   0.0000       0.825072        22.4514 
 354   0.0000       0.827294        22.5118 
 355   0.0000       0.830344        22.5948 
 356   0.0000       0.833720        22.6867 
 357   0.0000       0.836710        22.7680 
 358   0.0000       0.839730        22.8502 
 359   0.0000       0.839823        22.8527 
 360   0.0000       0.844649        22.9841 
 361   0.0000       0.845932        23.0190 
 362   0.0000       0.848151        23.0794 
 363   0.0000       0.849797        23.1242 
 364   0.0000       0.852166        23.1886 
 365   0.0000       0.855279        23.2733 
 366   0.0000       0.858152        23.3515 
 367   0.0000       0.859541        23.3893 
 368   0.0000       0.860961        23.4279 
 369   0.0000       0.865971        23.5643 
 370   0.0000       0.867812        23.6144 
 371   0.0000       0.868562        23.6348 
 372   0.0000       0.870974        23.7004 
 373   0.0000       0.872327        23.7372 
 374   0.0000       0.874482        23.7959 
 375   0.0000       0.875808        23.8319 
 376   0.0000       0.877018        23.8649 
 377   0.0000       0.882182        24.0054 
 378   0.0000       0.884534        24.0694 
 379   0.0000       0.889304        24.1992 
 380   0.0000       0.891126        24.2488 
 381   0.0000       0.892749        24.2929 
 382   0.0000       0.900629        24.5074 
 383   0.0000       0.903560        24.5871 
 384   0.0000       0.904433        24.6109 
 385   0.0000       0.907398        24.6915 
 386   0.0000       0.908738        24.7280 
 387   0.0000       0.915091        24.9009 
 388   0.0000       0.917061        24.9545 
 389   0.0000       0.918882        25.0041 
 390   0.0000       0.921815        25.0839 
 391   0.0000       0.923327        25.1250 
 392   0.0000       0.927741        25.2451 
 393   0.0000       0.932055        25.3625 
 394   0.0000       0.932865        25.3846 
 395   0.0000       0.933993        25.4152 
 396   0.0000       0.937356        25.5068 
 397   0.0000       0.938900        25.5488 
 398   0.0000       0.939665        25.5696 
 399   0.0000       0.942738        25.6532 
 400   0.0000       0.948318        25.8050 
 401   0.0000       0.949129        25.8271 
 402   0.0000       0.951246        25.8847 
 403   0.0000       0.956037        26.0151 
 404   0.0000       0.957762        26.0620 
 405   0.0000       0.958815        26.0907 
 406   0.0000       0.963510        26.2184 
 407   0.0000       0.966789        26.3077 
 408   0.0000       0.967281        26.3211 
 409   0.0000       0.974423        26.5154 
 410   0.0000       0.978601        26.6291 
 411   0.0000       0.982449        26.7338 
 412   0.0000       0.988612        26.9015 
 413   0.0000       0.995049        27.0767 
 414   0.0000       0.995371        27.0854 
 415   0.0000       0.998942        27.1826 
 416   0.0000       1.002202        27.2713 
 417   0.0000       1.004793        27.3418 
 418   0.0000       1.008580        27.4448 
 419   0.0000       1.016162        27.6512 
 420   0.0000       1.022952        27.8359 
 421   0.0000       1.024935        27.8899 
 422   0.0000       1.034051        28.1380 
 423   0.0000       1.036506        28.2048 
 424   0.0000       1.040455        28.3122 
 425   0.0000       1.044370        28.4188 
 426   0.0000       1.056128        28.7387 
 427   0.0000       1.063864        28.9492 
 428   0.0000       1.070567        29.1316 
 429   0.0000       1.072717        29.1901 
 430   0.0000       1.074206        29.2306 
 431   0.0000       1.080938        29.4138 
 432   0.0000       1.084134        29.5008 
 433   0.0000       1.087752        29.5992 
 434   0.0000       1.093078        29.7442 
 435   0.0000       1.098316        29.8867 
 436   0.0000       1.106623        30.1127 
 437   0.0000       1.108714        30.1696 
 438   0.0000       1.113947        30.3120 
 439   0.0000       1.115465        30.3533 
 440   0.0000       1.116013        30.3683 
 441   0.0000       1.122457        30.5436 
 442   0.0000       1.126029        30.6408 
 443   0.0000       1.129941        30.7473 
 444   0.0000       1.131967        30.8024 
 445   0.0000       1.134690        30.8765 
 446   0.0000       1.141236        31.0546 
 447   0.0000       1.142973        31.1019 
 448   0.0000       1.145533        31.1715 
 449   0.0000       1.148832        31.2613 
 450   0.0000       1.154117        31.4051 
 451   0.0000       1.156818        31.4786 
 452   0.0000       1.158455        31.5232 
 453   0.0000       1.161234        31.5988 
 454   0.0000       1.164292        31.6820 
 455   0.0000       1.167642        31.7731 
 456   0.0000       1.173436        31.9308 
 457   0.0000       1.177300        32.0360 
 458   0.0000       1.184841        32.2412 
 459   0.0000       1.187217        32.3058 
 460   0.0000       1.189652        32.3721 
 461   0.0000       1.191952        32.4347 
 462   0.0000       1.198003        32.5993 
 463   0.0000       1.203637        32.7526 
 464   0.0000       1.206972        32.8434 
 465   0.0000       1.208100        32.8741 
 466   0.0000       1.210719        32.9453 
 467   0.0000       1.212787        33.0016 
 468   0.0000       1.221441        33.2371 
 469   0.0000       1.223060        33.2812 
 470   0.0000       1.227286        33.3961 
 471   0.0000       1.231693        33.5161 
 472   0.0000       1.233592        33.5677 
 473   0.0000       1.236862        33.6567 
 474   0.0000       1.237337        33.6697 
 475   0.0000       1.242767        33.8174 
 476   0.0000       1.246502        33.9190 
 477   0.0000       1.249379        33.9973 
 478   0.0000       1.255644        34.1678 
 479   0.0000       1.256725        34.1972 
 480   0.0000       1.259903        34.2837 
 481   0.0000       1.264751        34.4156 
 482   0.0000       1.266642        34.4671 
 483   0.0000       1.270149        34.5625 
 484   0.0000       1.273734        34.6601 
 485   0.0000       1.279774        34.8244 
 486   0.0000       1.283354        34.9218 
 487   0.0000       1.287215        35.0269 
 488   0.0000       1.289589        35.0915 
 489   0.0000       1.291880        35.1538 
 490   0.0000       1.295489        35.2521 
 491   0.0000       1.300186        35.3799 
 492   0.0000       1.301902        35.4266 
 493   0.0000       1.307861        35.5887 
 494   0.0000       1.309570        35.6352 
 495   0.0000       1.315843        35.8059 
 496   0.0000       1.318926        35.8898 
 497   0.0000       1.322773        35.9945 
 498   0.0000       1.327975        36.1360 
 499   0.0000       1.328485        36.1499 
 500   0.0000       1.332415        36.2569 
 501   0.0000       1.338055        36.4103 
 502   0.0000       1.341352        36.5000 
 503   0.0000       1.342901        36.5422 
 504   0.0000       1.344692        36.5909 
[...]
      pz      :     0.021760  p :     0.079260
      px      :     0.042835
      py      :     0.014664
 77 H s       :     0.895763  s :     0.895763
      pz      :     0.047105  p :     0.078323
      px      :     0.015003
      py      :     0.016216
 78 H s       :     0.896142  s :     0.896142
      pz      :     0.025438  p :     0.078237
      px      :     0.020712
      py      :     0.032087
 79 H s       :     0.907255  s :     0.907255
      pz      :     0.022630  p :     0.087280
      px      :     0.021902
      py      :     0.042748
 80 H s       :     0.879971  s :     0.879971
      pz      :     0.038134  p :     0.083153
      px      :     0.029464
      py      :     0.015554
 81 H s       :     0.888778  s :     0.888778
      pz      :     0.037545  p :     0.083287
      px      :     0.016074
      py      :     0.029669
 82 H s       :     0.914049  s :     0.914049
      pz      :     0.022488  p :     0.087163
      px      :     0.030914
      py      :     0.033762
 83 H s       :     0.872235  s :     0.872235
      pz      :     0.039174  p :     0.083631
      px      :     0.015244
      py      :     0.029213
 84 H s       :     0.888774  s :     0.888774
      pz      :     0.035812  p :     0.084464
      px      :     0.031812
      py      :     0.016840
 85 H s       :     0.896115  s :     0.896115
      pz      :     0.022510  p :     0.079603
      px      :     0.014156
      py      :     0.042938
 86 H s       :     0.890759  s :     0.890759
      pz      :     0.024699  p :     0.078892
      px      :     0.032993
      py      :     0.021201
 87 H s       :     0.891358  s :     0.891358
      pz      :     0.047799  p :     0.078582
      px      :     0.015660
      py      :     0.015123
 88 H s       :     0.918281  s :     0.918281
      pz      :     0.022505  p :     0.086813
      px      :     0.041983
      py      :     0.022325
 89 H s       :     0.875516  s :     0.875516
      pz      :     0.037795  p :     0.084032
      px      :     0.030459
      py      :     0.015778


                      *****************************
                      * MAYER POPULATION ANALYSIS *
                      *****************************

  NA   - Mulliken gross atomic population
  ZA   - Total nuclear charge
  QA   - Mulliken gross atomic charge
  VA   - Mayer's total valence
  BVA  - Mayer's bonded valence
  FA   - Mayer's free valence

  ATOM       NA         ZA         QA         VA         BVA        FA
  0 C      5.7639     6.0000     0.2361     3.8028     3.8028    -0.0000
  1 N      7.4141     7.0000    -0.4141     3.4727     3.4727    -0.0000
  2 C      6.0661     6.0000    -0.0661     3.9209     3.9209    -0.0000
  3 N      7.3431     7.0000    -0.3431     3.4225     3.4225    -0.0000
  4 C      6.0673     6.0000    -0.0673     3.9576     3.9576     0.0000
  5 N      7.5661     7.0000    -0.5661     3.0674     3.0674     0.0000
  6 C      6.0272     6.0000    -0.0272     3.9613     3.9613     0.0000
  7 N      7.3367     7.0000    -0.3367     3.4460     3.4460    -0.0000
  8 C      5.7684     6.0000     0.2316     3.8028     3.8028    -0.0000
  9 N      7.5663     7.0000    -0.5663     3.0916     3.0916    -0.0000
 10 C      5.8960     6.0000     0.1040     3.8611     3.8611     0.0000
 11 N      7.4398     7.0000    -0.4398     3.3727     3.3727     0.0000
 12 C      6.0594     6.0000    -0.0594     3.9089     3.9089     0.0000
 13 N      7.4510     7.0000    -0.4510     3.3182     3.3182     0.0000
 14 C      5.7776     6.0000     0.2224     3.8090     3.8090     0.0000
 15 N      7.4416     7.0000    -0.4416     3.3634     3.3634     0.0000
 16 C      5.7448     6.0000     0.2552     3.8059     3.8059     0.0000
 17 C      6.0342     6.0000    -0.0342     3.9644     3.9644     0.0000
 18 C      6.1814     6.0000    -0.1814     3.6801     3.6801    -0.0000
 19 C      5.7671     6.0000     0.2329     3.8987     3.8987    -0.0000
 20 C      5.8116     6.0000     0.1884     3.8211     3.8211    -0.0000
 21 C      6.0697     6.0000    -0.0697     3.8921     3.8921     0.0000
 22 C      6.0910     6.0000    -0.0910     3.9854     3.9854     0.0000
 23 C      6.0671     6.0000    -0.0671     3.9883     3.9883    -0.0000
 24 C      5.7831     6.0000     0.2169     3.8302     3.8302    -0.0000
 25 C      5.8850     6.0000     0.1150     3.8938     3.8938    -0.0000
 26 C      6.0658     6.0000    -0.0658     3.9099     3.9099     0.0000
 27 C      5.7525     6.0000     0.2475     3.9031     3.9031    -0.0000
 28 C      6.0400     6.0000    -0.0400     3.9904     3.9904     0.0000
 29 C      6.1974     6.0000    -0.1974     3.7270     3.7270    -0.0000
 30 C      5.7789     6.0000     0.2211     3.7792     3.7792    -0.0000
 31 C      5.8123     6.0000     0.1877     3.8335     3.8335    -0.0000
 32 C      6.0653     6.0000    -0.0653     3.9126     3.9126     0.0000
 33 C      6.1025     6.0000    -0.1025     3.9846     3.9846     0.0000
 34 C      6.0509     6.0000    -0.0509     3.9995     3.9995     0.0000
 35 C      5.8210     6.0000     0.1790     3.8301     3.8301    -0.0000
 36 C      5.8790     6.0000     0.1210     3.9104     3.9104     0.0000
 37 C      6.0707     6.0000    -0.0707     3.9138     3.9138    -0.0000
 38 C      5.7561     6.0000     0.2439     3.7941     3.7941    -0.0000
 39 C      6.0650     6.0000    -0.0650     3.9989     3.9989    -0.0000
 40 C      6.2046     6.0000    -0.2046     3.7524     3.7524    -0.0000
 41 C      5.7830     6.0000     0.2170     3.8745     3.8745     0.0000
 42 C      5.7879     6.0000     0.2121     3.8328     3.8328     0.0000
 43 C      6.0771     6.0000    -0.0771     3.9050     3.9050     0.0000
 44 C      6.0923     6.0000    -0.0923     3.9829     3.9829    -0.0000
 45 C      6.0384     6.0000    -0.0384     3.9964     3.9964    -0.0000
 46 C      5.8158     6.0000     0.1842     3.8200     3.8200    -0.0000
 47 C      5.8833     6.0000     0.1167     3.8971     3.8971     0.0000
 48 C      6.0815     6.0000    -0.0815     3.8978     3.8978     0.0000
 49 C      5.7919     6.0000     0.2081     3.8627     3.8627     0.0000
 50 C      6.0674     6.0000    -0.0674     3.9903     3.9903    -0.0000
 51 C      6.1883     6.0000    -0.1883     3.7429     3.7429    -0.0000
 52 H      0.9186     1.0000     0.0814     0.9820     0.9820     0.0000
 53 H      1.0070     1.0000    -0.0070     1.0024     1.0024    -0.0000
 54 H      0.9329     1.0000     0.0671     1.0056     1.0056     0.0000
 55 H      0.9204     1.0000     0.0796     0.9832     0.9832    -0.0000
 56 H      0.9157     1.0000     0.0843     0.9727     0.9727     0.0000
 57 H      0.9242     1.0000     0.0758     0.9850     0.9850     0.0000
 58 H      0.9261     1.0000     0.0739     0.9867     0.9867     0.0000
 59 H      1.0284     1.0000    -0.0284     0.9960     0.9960     0.0000
 60 H      0.9340     1.0000     0.0660     1.0049     1.0049     0.0000
 61 H      0.8228     1.0000     0.1772     1.0438     1.0438    -0.0000
 62 H      0.8323     1.0000     0.1677     1.0433     1.0433    -0.0000
 63 H      0.9475     1.0000     0.0525     0.9863     0.9863    -0.0000
 64 H      1.0342     1.0000    -0.0342     0.9930     0.9930     0.0000
 65 H      0.9593     1.0000     0.0407     1.0077     1.0077     0.0000
 66 H      0.9453     1.0000     0.0547     0.9847     0.9847    -0.0000
 67 H      0.9420     1.0000     0.0580     0.9716     0.9716    -0.0000
 68 H      0.9441     1.0000     0.0559     0.9864     0.9864    -0.0000
 69 H      0.9412     1.0000     0.0588     0.9830     0.9830    -0.0000
 70 H      1.0137     1.0000    -0.0137     0.9982     0.9982     0.0000
 71 H      0.9537     1.0000     0.0463     1.0076     1.0076     0.0000
 72 H      0.9625     1.0000     0.0375     0.9860     0.9860    -0.0000
 73 H      1.0196     1.0000    -0.0196     0.9962     0.9962     0.0000
 74 H      0.9706     1.0000     0.0294     1.0090     1.0090     0.0000
 75 H      0.9638     1.0000     0.0362     0.9867     0.9867     0.0000
 76 H      0.9538     1.0000     0.0462     0.9702     0.9702     0.0000
 77 H      0.9539     1.0000     0.0461     0.9842     0.9842     0.0000
 78 H      0.9546     1.0000     0.0454     0.9835     0.9835     0.0000
 79 H      1.0119     1.0000    -0.0119     1.0018     1.0018    -0.0000
 80 H      0.9708     1.0000     0.0292     1.0063     1.0063     0.0000
 81 H      0.9497     1.0000     0.0503     0.9852     0.9852    -0.0000
 82 H      1.0227     1.0000    -0.0227     0.9953     0.9953     0.0000
 83 H      0.9573     1.0000     0.0427     1.0107     1.0107     0.0000
 84 H      0.9507     1.0000     0.0493     0.9864     0.9864    -0.0000
 85 H      0.9457     1.0000     0.0543     0.9713     0.9713    -0.0000
 86 H      0.9436     1.0000     0.0564     0.9841     0.9841     0.0000
 87 H      0.9456     1.0000     0.0544     0.9852     0.9852     0.0000
 88 H      1.0301     1.0000    -0.0301     0.9911     0.9911     0.0000
 89 H      0.9613     1.0000     0.0387     1.0059     1.0059    -0.0000

  Mayer bond orders larger than 0.100000
B(  0-C ,  1-N ) :   1.2017 B(  0-C , 17-C ) :   1.5270 B(  0-C , 52-H ) :   0.9670 
B(  1-N ,  8-C ) :   1.1947 B(  1-N , 10-C ) :   0.9278 B(  2-C , 12-C ) :   1.5770 
B(  2-C , 16-C ) :   1.2774 B(  2-C , 53-H ) :   0.9792 B(  3-N , 14-C ) :   1.1771 
B(  3-N , 16-C ) :   1.2022 B(  3-N , 61-H ) :   0.8953 B(  4-C ,  6-C ) :   1.3544 
B(  4-C , 17-C ) :   1.3516 B(  4-C , 18-C ) :   1.0679 B(  5-N , 19-C ) :   1.3668 
B(  5-N , 27-C ) :   1.4470 B(  6-C ,  8-C ) :   1.5251 B(  6-C , 54-H ) :   0.9705 
B(  7-N , 30-C ) :   1.1853 B(  7-N , 38-C ) :   1.2145 B(  7-N , 62-H ) :   0.9013 
B(  8-C , 55-H ) :   0.9678 B(  9-N , 41-C ) :   1.4348 B(  9-N , 49-C ) :   1.3924 
B( 10-C , 56-H ) :   0.9766 B( 10-C , 57-H ) :   0.9806 B( 10-C , 58-H ) :   0.9818 
B( 11-N , 20-C ) :   1.0986 B( 11-N , 24-C ) :   1.1339 B( 11-N , 25-C ) :   0.9621 
B( 12-C , 14-C ) :   1.2772 B( 12-C , 59-H ) :   0.9768 B( 13-N , 31-C ) :   1.0836 
B( 13-N , 35-C ) :   1.0743 B( 13-N , 36-C ) :   0.9813 B( 14-C , 18-C ) :   1.2562 
B( 15-N , 42-C ) :   1.1260 B( 15-N , 46-C ) :   1.0906 B( 15-N , 47-C ) :   0.9661 
B( 16-C , 51-C ) :   1.2429 B( 17-C , 60-H ) :   0.9711 B( 18-C , 19-C ) :   1.3070 
B( 19-C , 21-C ) :   1.1646 B( 20-C , 28-C ) :   1.6289 B( 20-C , 63-H ) :   0.9709 
B( 21-C , 26-C ) :   1.6806 B( 21-C , 64-H ) :   0.9716 B( 22-C , 23-C ) :   1.2571 
B( 22-C , 28-C ) :   1.2793 B( 22-C , 29-C ) :   1.2567 B( 23-C , 24-C ) :   1.6340 
B( 23-C , 65-H ) :   0.9722 B( 24-C , 66-H ) :   0.9690 B( 25-C , 67-H ) :   0.9763 
B( 25-C , 68-H ) :   0.9834 B( 25-C , 69-H ) :   0.9819 B( 26-C , 27-C ) :   1.1740 
B( 26-C , 70-H ) :   0.9756 B( 27-C , 29-C ) :   1.2420 B( 28-C , 71-H ) :   0.9709 
B( 29-C , 30-C ) :   1.1749 B( 30-C , 32-C ) :   1.3511 B( 31-C , 39-C ) :   1.6822 
B( 31-C , 72-H ) :   0.9708 B( 32-C , 37-C ) :   1.5086 B( 32-C , 73-H ) :   0.9771 
B( 33-C , 34-C ) :   1.2342 B( 33-C , 39-C ) :   1.2271 B( 33-C , 40-C ) :   1.3531 
B( 34-C , 35-C ) :   1.6808 B( 34-C , 74-H ) :   0.9710 B( 35-C , 75-H ) :   0.9708 
B( 36-C , 76-H ) :   0.9755 B( 36-C , 77-H ) :   0.9826 B( 36-C , 78-H ) :   0.9838 
B( 37-C , 38-C ) :   1.3456 B( 37-C , 79-H ) :   0.9792 B( 38-C , 40-C ) :   1.1782 
B( 39-C , 80-H ) :   0.9721 B( 40-C , 41-C ) :   1.1717 B( 41-C , 43-C ) :   1.2524 
B( 42-C , 50-C ) :   1.6414 B( 42-C , 81-H ) :   0.9696 B( 43-C , 48-C ) :   1.5988 
B( 43-C , 82-H ) :   0.9756 B( 44-C , 45-C ) :   1.2810 B( 44-C , 50-C ) :   1.2500 
B( 44-C , 51-C ) :   1.2463 B( 45-C , 46-C ) :   1.6325 B( 45-C , 83-H ) :   0.9703 
B( 46-C , 84-H ) :   0.9709 B( 47-C , 85-H ) :   0.9759 B( 47-C , 86-H ) :   0.9826 
B( 47-C , 87-H ) :   0.9830 B( 48-C , 49-C ) :   1.2469 B( 48-C , 88-H ) :   0.9727 
B( 49-C , 51-C ) :   1.1942 B( 50-C , 89-H ) :   0.9722 

-------
TIMINGS
-------

Total SCF time: 0 days 0 hours 33 min 51 sec 

Total time                  ....    2031.162 sec
Sum of individual times     ....    2026.365 sec  ( 99.8%)

Fock matrix formation       ....    2002.780 sec  ( 98.6%)
Diagonalization             ....       5.863 sec  (  0.3%)
Density matrix formation    ....       0.719 sec  (  0.0%)
Population analysis         ....       0.533 sec  (  0.0%)
Initial guess               ....       2.055 sec  (  0.1%)
Orbital Transformation      ....       0.000 sec  (  0.0%)
Orbital Orthonormalization  ....       0.000 sec  (  0.0%)
DIIS solution               ....       2.919 sec  (  0.1%)
SOSCF solution              ....      10.447 sec  (  0.5%)

Maximum memory used throughout the entire SCF-calculation: 302.6 MB


           ************************************************************
           *        Program running with 16 parallel MPI-processes    *
           *              working on a common directory               *
           ************************************************************

------------------------------------------------------------------------------
                                ORCA  MP2 
------------------------------------------------------------------------------

Freezing NCore=104 chemical core electrons

----------
MP2 ENERGY (disk based algorithm)
----------

Dimension of the basis                    ...  918
Memory devoted to MP2                     ... 2000 MB   
Data format for buffers                   ... DOUBLE
Compression type for matrix containers    ... UNCOMPRESSED

-------------------------------
PARTIAL EXCHANGE TRANSFORMATION
-------------------------------

Transformation type                        ... one-operator
Generation of integrals (i,mue|j,nue)      ... ON
Generation of integrals (mue,kappa|nue,tau)... OFF
Generation of integrals (i,mue|a,nue)      ... OFF
Dimension of the basis                     ...  918
Number of internal MOs                     ...  127 (  52- 178)
Pair cutoff                                ... 2.500e-12 Eh
Number of AO pairs in the trafo            ... 421821
Total Number of distinct AO pairs          ... 421821
Memory devoted for trafo                   ... 2000.0 MB 
Max. Number of MO pairs treated together   ...  311      
Number Format for Storage                  ... Double (8 Byte)
Integral package used                      ... LIBINT

Starting integral evaluation:
    ... done with AO integral generation
Closing buffer AOK     (37.83 GB; CompressionRatio= 1.34)
Collecting buffer AOK 
Number of MO pairs included in the trafo   ... 8128
------------------------
SORTING OF (i,mue|j,nue)
------------------------

IBATCH = 1 of  2
IBATCH = 2 of  2
Closing buffer KAO     (51.03 GB; CompressionRatio= 1.00)
Collecting buffer KAO 
N(AO-Batches) Done                         ...  85563300 
N(AO-Batches) Skipped                      ...  81906801 
N(IJ)-pairs Skipped                        ...         0 
TOTAL TIME for half transformation         ...  3057.633 sec
AO-integral generation                     ...   215.783 sec
Half transformation                        ...   382.640 sec
K-integral sorting                         ...  2292.961 sec
Process 13:   Internal MO 156
Process 10:   Internal MO 132
Process  4:   Internal MO  84
Process  1:   Internal MO  60

Finished integral transformation - now doing MP2 part

OPERATOR COMBINATION   0   0: ij=( 52..178, 52..178)
Process  7:   Internal MO 108
Process  0:   Internal MO  54
Process  0:   Internal MO  57
Process  2:   Internal MO  69
Process  1:   Internal MO  63
Process  5:   Internal MO  93
Process  3:   Internal MO  78
Process  8:   Internal MO 117
Process  1:   Internal MO  66
Process  2:   Internal MO  72
Process 11:   Internal MO 141
Process  6:   Internal MO 102
Process  4:   Internal MO  87
Process 14:   Internal MO 165
Process  2:   Internal MO  75
Process  3:   Internal MO  81
Process  9:   Internal MO 126
Process  7:   Internal MO 111
Process  5:   Internal MO  96
Process 12:   Internal MO 150
Process  4:   Internal MO  90
Process 10:   Internal MO 135
Process 15:   Internal MO 174
Process  6:   Internal MO 105
Process  8:   Internal MO 120
Process  5:   Internal MO  99
Process 13:   Internal MO 159
Process  7:   Internal MO 114
Process 11:   Internal MO 144
Process  9:   Internal MO 129
Process 14:   Internal MO 168
Process 10:   Internal MO 138
Process  8:   Internal MO 123
Process 12:   Internal MO 153
Process 15:   Internal MO 177
Process 11:   Internal MO 147
Process 13:   Internal MO 162
Process 14:   Internal MO 171
-----------------------------------------------
 MP2 CORRELATION ENERGY   :     -7.265135239 Eh
-----------------------------------------------


-------
TIMINGS
-------
Total time                : 3603.966 sec
Integral trafo            : 3059.714 sec ( 84.9%)
K(i,j)                    :    6.598 sec (  0.2%)
T(i,j)                    :    0.098 sec (  0.0%)

---------------------------------------
MP2 TOTAL ENERGY:    -2130.876107146 Eh
---------------------------------------

Maximum memory used throughout the entire MP2-calculation: 2275.2 MB

-------------------------   --------------------
FINAL SINGLE POINT ENERGY     -2130.876107145737
-------------------------   --------------------


                            ***************************************
                            *     ORCA property calculations      *
                            ***************************************


  WARNING: The energy has been calculated at the MP2 level but the densities
           used in the property calculations are still SCF densities
           MP2 response densities have not been calculated 
           use %mp2 Density relaxed end
           or  %mp2 Density unrelaxed end

                                    ---------------------
                                    Active property flags
                                    ---------------------
   (+) Dipole Moment


------------------------------------------------------------------------------
                       ORCA ELECTRIC PROPERTIES CALCULATION
------------------------------------------------------------------------------

Dipole Moment Calculation                       ... on
Quadrupole Moment Calculation                   ... off
Polarizability Calculation                      ... off
GBWName                                         ... /scratch/allen/tmpyp4_amber_gaff2/conf1/conf1/Conf82.orca.gbw
Electron density                                ... /scratch/allen/tmpyp4_amber_gaff2/conf1/conf1/Conf82.orca.scfp
The origin for moment calculation is the CENTER OF MASS  = ( 0.001376, -0.003221  0.004065)

-------------
DIPOLE MOMENT
-------------
                                X             Y             Z
Electronic contribution:     -4.24141       4.96405      -0.14748
Nuclear contribution   :     -0.03524       0.16296       0.20010
                        -----------------------------------------
Total Dipole Moment    :     -4.27665       5.12700       0.05262
                        -----------------------------------------
Magnitude (a.u.)       :      6.67672
Magnitude (Debye)      :     16.97088



--------------------
Rotational spectrum 
--------------------
 
Rotational constants in cm-1:     0.001498     0.001472     0.000763 
Rotational constants in MHz :    44.907318    44.140812    22.866266 

 Dipole components along the rotational axes: 
x,y,z [a.u.] :    -5.904011    -3.117583     0.044223 
x,y,z [Debye]:   -15.006804    -7.924266     0.112405 

 

Timings for individual modules:

Sum of individual times         ...     5663.618 sec (=  94.394 min)
GTO integral calculation        ...        3.252 sec (=   0.054 min)   0.1 %
SCF iterations                  ...     2032.236 sec (=  33.871 min)  35.9 %
MP2 module                      ...     3628.130 sec (=  60.469 min)  64.1 %
                             ****ORCA TERMINATED NORMALLY****
TOTAL RUN TIME: 0 days 1 hours 34 minutes 27 seconds 21 msec
# of primitive gaussian functions

