
                                 *****************
                                 * O   R   C   A *
                                 *****************

                                            #,                                       
                                            ###                                      
                                            ####                                     
                                            #####                                    
                                            ######                                   
                                           ########,                                 
                                     ,,################,,,,,                         
                               ,,#################################,,                 
                          ,,##########################################,,             
                       ,#########################################, ''#####,          
                    ,#############################################,,   '####,        
                  ,##################################################,,,,####,       
                ,###########''''           ''''###############################       
              ,#####''   ,,,,##########,,,,          '''####'''          '####       
            ,##' ,,,,###########################,,,                        '##       
           ' ,,###''''                  '''############,,,                           
         ,,##''                                '''############,,,,        ,,,,,,###''
      ,#''                                            '''#######################'''  
     '                                                          ''''####''''         
             ,#######,   #######,   ,#######,      ##                                
            ,#'     '#,  ##    ##  ,#'     '#,    #''#        ######   ,####,        
            ##       ##  ##   ,#'  ##            #'  '#       #        #'  '#        
            ##       ##  #######   ##           ,######,      #####,   #    #        
            '#,     ,#'  ##    ##  '#,     ,#' ,#      #,         ##   #,  ,#        
             '#######'   ##     ##  '#######'  #'      '#     #####' # '####'        



                  #######################################################
                  #                        -***-                        #
                  #          Department of theory and spectroscopy      #
                  #    Directorship and core code : Frank Neese         #
                  #        Max Planck Institute fuer Kohlenforschung    #
                  #                Kaiser Wilhelm Platz 1               #
                  #                 D-45470 Muelheim/Ruhr               #
                  #                      Germany                        #
                  #                                                     #
                  #                  All rights reserved                #
                  #                        -***-                        #
                  #######################################################


                         Program Version 5.0.4 -  RELEASE  -


 With contributions from (in alphabetic order):
   Daniel Aravena         : Magnetic Suceptibility
   Michael Atanasov       : Ab Initio Ligand Field Theory (pilot matlab implementation)
   Alexander A. Auer      : GIAO ZORA, VPT2 properties, NMR spectrum
   Ute Becker             : Parallelization
   Giovanni Bistoni       : ED, misc. LED, open-shell LED, HFLD
   Martin Brehm           : Molecular dynamics
   Dmytro Bykov           : SCF Hessian
   Vijay G. Chilkuri      : MRCI spin determinant printing, contributions to CSF-ICE
   Dipayan Datta          : RHF DLPNO-CCSD density
   Achintya Kumar Dutta   : EOM-CC, STEOM-CC
   Dmitry Ganyushin       : Spin-Orbit,Spin-Spin,Magnetic field MRCI
   Miquel Garcia          : C-PCM and meta-GGA Hessian, CC/C-PCM, Gaussian charge scheme
   Yang Guo               : DLPNO-NEVPT2, F12-NEVPT2, CIM, IAO-localization
   Andreas Hansen         : Spin unrestricted coupled pair/coupled cluster methods
   Benjamin Helmich-Paris : MC-RPA, TRAH-SCF, COSX integrals
   Lee Huntington         : MR-EOM, pCC
   Robert Izsak           : Overlap fitted RIJCOSX, COSX-SCS-MP3, EOM
   Marcus Kettner         : VPT2
   Christian Kollmar      : KDIIS, OOCD, Brueckner-CCSD(T), CCSD density, CASPT2, CASPT2-K
   Simone Kossmann        : Meta GGA functionals, TD-DFT gradient, OOMP2, MP2 Hessian
   Martin Krupicka        : Initial AUTO-CI
   Lucas Lang             : DCDCAS
   Marvin Lechner         : AUTO-CI (C++ implementation), FIC-MRCC
   Dagmar Lenk            : GEPOL surface, SMD
   Dimitrios Liakos       : Extrapolation schemes; Compound Job, initial MDCI parallelization
   Dimitrios Manganas     : Further ROCIS development; embedding schemes
   Dimitrios Pantazis     : SARC Basis sets
   Anastasios Papadopoulos: AUTO-CI, single reference methods and gradients
   Taras Petrenko         : DFT Hessian,TD-DFT gradient, ASA, ECA, R-Raman, ABS, FL, XAS/XES, NRVS
   Peter Pinski           : DLPNO-MP2, DLPNO-MP2 Gradient
   Christoph Reimann      : Effective Core Potentials
   Marius Retegan         : Local ZFS, SOC
   Christoph Riplinger    : Optimizer, TS searches, QM/MM, DLPNO-CCSD(T), (RO)-DLPNO pert. Triples
   Tobias Risthaus        : Range-separated hybrids, TD-DFT gradient, RPA, STAB
   Michael Roemelt        : Original ROCIS implementation
   Masaaki Saitow         : Open-shell DLPNO-CCSD energy and density
   Barbara Sandhoefer     : DKH picture change effects
   Avijit Sen             : IP-ROCIS
   Kantharuban Sivalingam : CASSCF convergence, NEVPT2, FIC-MRCI
   Bernardo de Souza      : ESD, SOC TD-DFT
   Georgi Stoychev        : AutoAux, RI-MP2 NMR, DLPNO-MP2 response
   Willem Van den Heuvel  : Paramagnetic NMR
   Boris Wezisla          : Elementary symmetry handling
   Frank Wennmohs         : Technical directorship


 We gratefully acknowledge several colleagues who have allowed us to
 interface, adapt or use parts of their codes:
   Stefan Grimme, W. Hujo, H. Kruse, P. Pracht,  : VdW corrections, initial TS optimization,
                  C. Bannwarth, S. Ehlert          DFT functionals, gCP, sTDA/sTD-DF
   Ed Valeev, F. Pavosevic, A. Kumar             : LibInt (2-el integral package), F12 methods
   Garnet Chan, S. Sharma, J. Yang, R. Olivares  : DMRG
   Ulf Ekstrom                                   : XCFun DFT Library
   Mihaly Kallay                                 : mrcc  (arbitrary order and MRCC methods)
   Jiri Pittner, Ondrej Demel                    : Mk-CCSD
   Frank Weinhold                                : gennbo (NPA and NBO analysis)
   Christopher J. Cramer and Donald G. Truhlar   : smd solvation model
   Lars Goerigk                                  : TD-DFT with DH, B97 family of functionals
   V. Asgeirsson, H. Jonsson                     : NEB implementation
   FAccTs GmbH                                   : IRC, NEB, NEB-TS, DLPNO-Multilevel, CI-OPT
                                                   MM, QMMM, 2- and 3-layer-ONIOM, Crystal-QMMM,
                                                   LR-CPCM, SF, NACMEs, symmetry and pop. for TD-DFT,
                                                   nearIR, NL-DFT gradient (VV10), updates on ESD,
                                                   ML-optimized integration grids
   S Lehtola, MJT Oliveira, MAL Marques          : LibXC Library
   Liviu Ungur et al                             : ANISO software


 Your calculation uses the libint2 library for the computation of 2-el integrals
 For citations please refer to: http://libint.valeyev.net

 Your ORCA version has been built with support for libXC version: 5.1.0
 For citations please refer to: https://tddft.org/programs/libxc/

 This ORCA versions uses:
   CBLAS   interface :  Fast vector & matrix operations
   LAPACKE interface :  Fast linear algebra routines
   SCALAPACK package :  Parallel linear algebra routines
   Shared memory     :  Shared parallel matrices
   BLAS/LAPACK       :  OpenBLAS 0.3.15  USE64BITINT DYNAMIC_ARCH NO_AFFINITY Sandybridge SINGLE_THREADED
        Core in use  :  Sandybridge
   Copyright (c) 2011-2014, The OpenBLAS Project


================================================================================

----- Orbital basis set information -----
Your calculation utilizes the basis: cc-pVDZ 
       H, B-Ne : Obtained from the ccRepo (grant-hill.group.shef.ac.uk/ccrepo) Feb. 2017
                 T. H. Dunning, Jr., J. Chem. Phys. 90, 1007 (1989)
            He : Obtained from the ccRepo (grant-hill.group.shef.ac.uk/ccrepo) Feb. 2017
                 D. E. Woon, T. H. Dunning, Jr., J. Chem. Phys. 100, 2975 (1994)
  Li-Be, Na-Mg : Obtained from the ccRepo (grant-hill.group.shef.ac.uk/ccrepo) Feb. 2017
                 B. P. Prascher, D. E. Woon, K. A. Peterson, T. H. Dunning, Jr., A. K. Wilson, Theor. Chem. Acc. 128, 69 (2011)
         Al-Ar : Obtained from the ccRepo (grant-hill.group.shef.ac.uk/ccrepo) Feb. 2017
                 D. E. Woon, T. H. Dunning, Jr., J. Chem. Phys. 98, 1358 (1993)
            Ca : Obtained from the Peterson Research Group Website (tyr0.chem.wsu.edu/~kipeters) Feb. 2017
                 J. Koput, K. A. Peterson, J. Phys. Chem. 106, 9595 (2002)
         Sc-Zn : Obtained from the ccRepo (grant-hill.group.shef.ac.uk/ccrepo) Feb. 2017
                 N. B. Balabanov, K. A. Peterson, J. Chem. Phys. 123, 064107 (2005)
                 N. B. Balabanov, K. A. Peterson, J. Chem. Phys. 125, 074110 (2006)
         Ga-Kr : Obtained from the ccRepo (grant-hill.group.shef.ac.uk/ccrepo) Feb. 2017
                 A. K. Wilson, D. E. Woon, K. A. Peterson, T. H. Dunning, Jr., J. Chem. Phys. 110, 7667 (1999)

================================================================================
                                        WARNINGS
                       Please study these warnings very carefully!
================================================================================


WARNING: No MP2 level density has been requested!
         To caclulate MP2 level properties use
         %mp2 Density relaxed end
         or
         %mp2 Density unrelaxed end

WARNING: Post HF methods need fully converged wavefunctions
  ===> : Setting SCFConvForced true
         You can overwrite this default with %scf ConvForced false 


INFO   : the flag for use of the SHARK integral package has been found!

================================================================================
                                       INPUT FILE
================================================================================
NAME = /scratch/allen/tmpyp4_amber_gaff2/2.Mdgx/conf11/conf11/Conf70.orca
|  1> ! PAL2
|  2> ! mp2 cc-pvdz TightSCF  NoKeepInts
|  3> 
|  4> %scf
|  5>   MaxCore 2000
|  6> end
|  7> %mp2
|  8>   MaxCore 2000
|  9> end
| 10> * xyz 0 1
| 11>    C       -3.62800         6.11100        -0.98600
| 12>    C        1.47400         4.04100         0.05700
| 13>    C       -2.80200         4.09300         0.04900
| 14>    C       -3.57600         4.41500         1.17500
| 15>    C       -4.34500         5.56100         1.18300
| 16>    C       -5.22500         7.59300         0.14000
| 17>    C        0.13200         4.30700         0.06100
| 18>    C       -0.56900         3.05600         0.04700
| 19>    C        1.64900         2.61800         0.02300
| 20>    C       -2.84700         4.97300        -1.04400
| 21>    N       -4.36100         6.39200         0.11500
| 22>    N        0.38800         2.06700         0.02500
| 23>    N       -2.01000         0.39500        -0.07500
| 24>    N       -0.38800        -2.07400        -0.02700
| 25>    N        2.01000        -0.40100         0.06500
| 26>    C       -1.96000         2.86100         0.02400
| 27>    C       -2.62300         1.61500        -0.01800
| 28>    C       -5.57300        -4.32900         1.06600
| 29>    C       -4.07300         1.47100         0.05600
| 30>    C       -4.10600        -2.75600        -0.02600
| 31>    C       -4.99500        -2.75700        -1.11100
| 32>    C       -6.13200        -3.54200        -1.07600
| 33>    C       -7.65100        -5.11300         0.04000
| 34>    C       -4.32400         0.14100         0.03700
| 35>    C       -3.02500        -0.52000        -0.04800
| 36>    C       -4.42200        -3.56600         1.07500
| 37>    N       -6.40700        -4.31300         0.00100
| 38>    C       -2.86700        -1.92200        -0.04000
| 39>    C       -1.65000        -2.62400        -0.02700
| 40>    C        3.56800        -6.14200        -1.04000
| 41>    C       -1.47600        -4.04900        -0.03400
| 42>    C        2.80300        -4.09900        -0.00800
| 43>    C        3.65700        -4.38400         1.06900
| 44>    C        4.42700        -5.53000         1.05900
| 45>    C        5.24500        -7.58800         0.01400
| 46>    C       -0.13400        -4.31500        -0.02200
| 47>    C        0.56800        -3.06400        -0.02700
| 48>    C        2.77500        -5.01200        -1.07400
| 49>    N        4.37600        -6.39100         0.01700
| 50>    C        1.95900        -2.86900        -0.00900
| 51>    C        2.62100        -1.62200         0.00900
| 52>    C        5.54300         4.33900        -1.13000
| 53>    C        4.07000        -1.47900        -0.09400
| 54>    C        4.10400         2.75100        -0.02100
| 55>    C        5.02700         2.72900         1.03600
| 56>    C        6.16600         3.50900         0.97800
| 57>    C        7.61900         5.15300        -0.11500
| 58>    C        4.32100        -0.14800        -0.09200
| 59>    C        3.02500         0.51400         0.01500
| 60>    C        4.38700         3.58200        -1.11500
| 61>    C        2.86600         1.91600         0.01300
| 62>    N        6.41300         4.29600        -0.09500
| 63>    H       -3.68300         6.82300        -1.80000
| 64>    H        2.27400         4.76600         0.08100
| 65>    H       -3.59100         3.77100         2.04500
| 66>    H       -4.96400         5.84600         2.02400
| 67>    H       -6.22900         7.31600        -0.19200
| 68>    H       -5.26000         7.97900         1.15900
| 69>    H       -4.80300         8.34300        -0.52900
| 70>    H       -0.33200         5.28200         0.06900
| 71>    H       -2.26100         4.78700        -1.93600
| 72>    H        0.18200         1.07200         0.00500
| 73>    H       -0.18300        -1.08000        -0.02100
| 74>    H       -5.86400        -4.96200         1.89500
| 75>    H       -4.79400         2.27200         0.13900
| 76>    H       -4.80000        -2.16000        -1.99400
| 77>    H       -6.84100        -3.58200        -1.89300
| 78>    H       -8.42800        -4.53600         0.54600
| 79>    H       -7.95600        -5.33700        -0.98100
| 80>    H       -7.45600        -6.03700         0.58400
| 81>    H       -5.28700        -0.34400         0.10000
| 82>    H       -3.78000        -3.60100         1.94700
| 83>    H        3.58700        -6.86800        -1.84300
| 84>    H       -2.27600        -4.77400        -0.05000
| 85>    H        3.71400        -3.72400         1.92600
| 86>    H        5.09200        -5.79500         1.87100
| 87>    H        6.20500        -7.32900        -0.43900
| 88>    H        5.39300        -7.91700         1.04200
| 89>    H        4.75900        -8.37300        -0.56400
| 90>    H        0.32900        -5.29000        -0.00800
| 91>    H        2.14600        -4.84200        -1.94000
| 92>    H        5.80800         4.98600        -1.95600
| 93>    H        4.78800        -2.28100        -0.18500
| 94>    H        4.86000         2.11400         1.91200
| 95>    H        6.90100         3.53100         1.77200
| 96>    H        7.38300         6.10900         0.35600
| 97>    H        8.41400         4.65200         0.43500
| 98>    H        7.92100         5.31000        -1.15000
| 99>    H        5.28300         0.33600        -0.17900
|100>    H        3.72000         3.63200        -1.96700
|101> *
|102> 
|103>                          ****END OF INPUT****
================================================================================

                       ****************************
                       * Single Point Calculation *
                       ****************************

---------------------------------
CARTESIAN COORDINATES (ANGSTROEM)
---------------------------------
  C     -3.628000    6.111000   -0.986000
  C      1.474000    4.041000    0.057000
  C     -2.802000    4.093000    0.049000
  C     -3.576000    4.415000    1.175000
  C     -4.345000    5.561000    1.183000
  C     -5.225000    7.593000    0.140000
  C      0.132000    4.307000    0.061000
  C     -0.569000    3.056000    0.047000
  C      1.649000    2.618000    0.023000
  C     -2.847000    4.973000   -1.044000
  N     -4.361000    6.392000    0.115000
  N      0.388000    2.067000    0.025000
  N     -2.010000    0.395000   -0.075000
  N     -0.388000   -2.074000   -0.027000
  N      2.010000   -0.401000    0.065000
  C     -1.960000    2.861000    0.024000
  C     -2.623000    1.615000   -0.018000
  C     -5.573000   -4.329000    1.066000
  C     -4.073000    1.471000    0.056000
  C     -4.106000   -2.756000   -0.026000
  C     -4.995000   -2.757000   -1.111000
  C     -6.132000   -3.542000   -1.076000
  C     -7.651000   -5.113000    0.040000
  C     -4.324000    0.141000    0.037000
  C     -3.025000   -0.520000   -0.048000
  C     -4.422000   -3.566000    1.075000
  N     -6.407000   -4.313000    0.001000
  C     -2.867000   -1.922000   -0.040000
  C     -1.650000   -2.624000   -0.027000
  C      3.568000   -6.142000   -1.040000
  C     -1.476000   -4.049000   -0.034000
  C      2.803000   -4.099000   -0.008000
  C      3.657000   -4.384000    1.069000
  C      4.427000   -5.530000    1.059000
  C      5.245000   -7.588000    0.014000
  C     -0.134000   -4.315000   -0.022000
  C      0.568000   -3.064000   -0.027000
  C      2.775000   -5.012000   -1.074000
  N      4.376000   -6.391000    0.017000
  C      1.959000   -2.869000   -0.009000
  C      2.621000   -1.622000    0.009000
  C      5.543000    4.339000   -1.130000
  C      4.070000   -1.479000   -0.094000
  C      4.104000    2.751000   -0.021000
  C      5.027000    2.729000    1.036000
  C      6.166000    3.509000    0.978000
  C      7.619000    5.153000   -0.115000
  C      4.321000   -0.148000   -0.092000
  C      3.025000    0.514000    0.015000
  C      4.387000    3.582000   -1.115000
  C      2.866000    1.916000    0.013000
  N      6.413000    4.296000   -0.095000
  H     -3.683000    6.823000   -1.800000
  H      2.274000    4.766000    0.081000
  H     -3.591000    3.771000    2.045000
  H     -4.964000    5.846000    2.024000
  H     -6.229000    7.316000   -0.192000
  H     -5.260000    7.979000    1.159000
  H     -4.803000    8.343000   -0.529000
  H     -0.332000    5.282000    0.069000
  H     -2.261000    4.787000   -1.936000
  H      0.182000    1.072000    0.005000
  H     -0.183000   -1.080000   -0.021000
  H     -5.864000   -4.962000    1.895000
  H     -4.794000    2.272000    0.139000
  H     -4.800000   -2.160000   -1.994000
  H     -6.841000   -3.582000   -1.893000
  H     -8.428000   -4.536000    0.546000
  H     -7.956000   -5.337000   -0.981000
  H     -7.456000   -6.037000    0.584000
  H     -5.287000   -0.344000    0.100000
  H     -3.780000   -3.601000    1.947000
  H      3.587000   -6.868000   -1.843000
  H     -2.276000   -4.774000   -0.050000
  H      3.714000   -3.724000    1.926000
  H      5.092000   -5.795000    1.871000
  H      6.205000   -7.329000   -0.439000
  H      5.393000   -7.917000    1.042000
  H      4.759000   -8.373000   -0.564000
  H      0.329000   -5.290000   -0.008000
  H      2.146000   -4.842000   -1.940000
  H      5.808000    4.986000   -1.956000
  H      4.788000   -2.281000   -0.185000
  H      4.860000    2.114000    1.912000
  H      6.901000    3.531000    1.772000
  H      7.383000    6.109000    0.356000
  H      8.414000    4.652000    0.435000
  H      7.921000    5.310000   -1.150000
  H      5.283000    0.336000   -0.179000
  H      3.720000    3.632000   -1.967000

----------------------------
CARTESIAN COORDINATES (A.U.)
----------------------------
  NO LB      ZA    FRAG     MASS         X           Y           Z
   0 C     6.0000    0    12.011   -6.855926   11.548116   -1.863270
   1 C     6.0000    0    12.011    2.785456    7.636383    0.107714
   2 C     6.0000    0    12.011   -5.295013    7.734649    0.092597
   3 C     6.0000    0    12.011   -6.757661    8.343141    2.220428
   4 C     6.0000    0    12.011   -8.210860   10.508767    2.235546
   5 C     6.0000    0    12.011   -9.873819   14.348691    0.264562
   6 C     6.0000    0    12.011    0.249444    8.139050    0.115273
   7 C     6.0000    0    12.011   -1.075254    5.775003    0.088817
   8 C     6.0000    0    12.011    3.116158    4.947303    0.043464
   9 C     6.0000    0    12.011   -5.380050    9.397608   -1.972874
  10 N     7.0000    0    14.007   -8.241096   12.079129    0.217319
  11 N     7.0000    0    14.007    0.733214    3.906064    0.047243
  12 N     7.0000    0    14.007   -3.798350    0.746442   -0.141729
  13 N     7.0000    0    14.007   -0.733214   -3.919292   -0.051023
  14 N     7.0000    0    14.007    3.798350   -0.757780    0.122832
  15 C     6.0000    0    12.011   -3.703863    5.406506    0.045353
  16 C     6.0000    0    12.011   -4.956752    3.051908   -0.034015
  17 C     6.0000    0    12.011  -10.531444   -8.180624    2.014448
  18 C     6.0000    0    12.011   -7.696855    2.779787    0.105825
  19 C     6.0000    0    12.011   -7.759216   -5.208085   -0.049133
  20 C     6.0000    0    12.011   -9.439182   -5.209975   -2.099486
  21 C     6.0000    0    12.011  -11.587801   -6.693410   -2.033345
  22 C     6.0000    0    12.011  -14.458295   -9.662170    0.075589
  23 C     6.0000    0    12.011   -8.171176    0.266451    0.069920
  24 C     6.0000    0    12.011   -5.716422   -0.982658   -0.090707
  25 C     6.0000    0    12.011   -8.356369   -6.738763    2.031456
  26 N     7.0000    0    14.007  -12.107475   -8.150389    0.001890
  27 C     6.0000    0    12.011   -5.417845   -3.632054   -0.075589
  28 C     6.0000    0    12.011   -3.118048   -4.958641   -0.051023
  29 C     6.0000    0    12.011    6.742543  -11.606698   -1.965315
  30 C     6.0000    0    12.011   -2.789236   -7.651501   -0.064251
  31 C     6.0000    0    12.011    5.296902   -7.745987   -0.015118
  32 C     6.0000    0    12.011    6.910728   -8.284559    2.020117
  33 C     6.0000    0    12.011    8.365818  -10.450186    2.001220
  34 C     6.0000    0    12.011    9.911614  -14.339242    0.026456
  35 C     6.0000    0    12.011   -0.253223   -8.154168   -0.041574
  36 C     6.0000    0    12.011    1.073364   -5.790121   -0.051023
  37 C     6.0000    0    12.011    5.243990   -9.471307   -2.029566
  38 N     7.0000    0    14.007    8.269442  -12.077240    0.032125
  39 C     6.0000    0    12.011    3.701973   -5.421624   -0.017008
  40 C     6.0000    0    12.011    4.952972   -3.065136    0.017008
  41 C     6.0000    0    12.011   10.474752    8.199522   -2.135391
  42 C     6.0000    0    12.011    7.691185   -2.794905   -0.177634
  43 C     6.0000    0    12.011    7.755436    5.198637   -0.039684
  44 C     6.0000    0    12.011    9.499653    5.157063    1.957756
  45 C     6.0000    0    12.011   11.652051    6.631049    1.848152
  46 C     6.0000    0    12.011   14.397823    9.737759   -0.217319
  47 C     6.0000    0    12.011    8.165507   -0.279679   -0.173855
  48 C     6.0000    0    12.011    5.716422    0.971319    0.028346
  49 C     6.0000    0    12.011    8.290229    6.768999   -2.107045
  50 C     6.0000    0    12.011    5.415955    3.620715    0.024566
  51 N     7.0000    0    14.007   12.118814    8.118263   -0.179524
  52 H     1.0000    0     1.008   -6.959861   12.893601   -3.401507
  53 H     1.0000    0     1.008    4.297237    9.006435    0.153068
  54 H     1.0000    0     1.008   -6.786007    7.126157    3.864490
  55 H     1.0000    0     1.008   -9.380601   11.047339    3.824806
  56 H     1.0000    0     1.008  -11.771104   13.825236   -0.362827
  57 H     1.0000    0     1.008   -9.939959   15.078125    2.190193
  58 H     1.0000    0     1.008   -9.076355   15.765985   -0.999665
  59 H     1.0000    0     1.008   -0.627389    9.981533    0.130391
  60 H     1.0000    0     1.008   -4.272671    9.046119   -3.658510
  61 H     1.0000    0     1.008    0.343930    2.025786    0.009449
  62 H     1.0000    0     1.008   -0.345820   -2.040904   -0.039684
  63 H     1.0000    0     1.008  -11.081354   -9.376821    3.581031
  64 H     1.0000    0     1.008   -9.059347    4.293458    0.262672
  65 H     1.0000    0     1.008   -9.070685   -4.081808   -3.768114
  66 H     1.0000    0     1.008  -12.927616   -6.768999   -3.577252
  67 H     1.0000    0     1.008  -15.926612   -8.571798    1.031790
  68 H     1.0000    0     1.008  -15.034661  -10.085468   -1.853821
  69 H     1.0000    0     1.008  -14.089798  -11.408277    1.103600
  70 H     1.0000    0     1.008   -9.990982   -0.650066    0.188973
  71 H     1.0000    0     1.008   -7.143165   -6.804904    3.679297
  72 H     1.0000    0     1.008    6.778448  -12.978639   -3.482765
  73 H     1.0000    0     1.008   -4.301017   -9.021553   -0.094486
  74 H     1.0000    0     1.008    7.018443   -7.037340    3.639613
  75 H     1.0000    0     1.008    9.622485  -10.950963    3.535678
  76 H     1.0000    0     1.008   11.725751  -13.849803   -0.829590
  77 H     1.0000    0     1.008   10.191293  -14.960962    1.969095
  78 H     1.0000    0     1.008    8.993207  -15.822677   -1.065806
  79 H     1.0000    0     1.008    0.621720   -9.996651   -0.015118
  80 H     1.0000    0     1.008    4.055352   -9.150054   -3.666069
  81 H     1.0000    0     1.008   10.975529    9.422175   -3.696304
  82 H     1.0000    0     1.008    9.048009   -4.310465   -0.349599
  83 H     1.0000    0     1.008    9.184069    3.994881    3.613156
  84 H     1.0000    0     1.008   13.041000    6.672623    3.348595
  85 H     1.0000    0     1.008   13.951848   11.544337    0.672743
  86 H     1.0000    0     1.008   15.900156    8.791006    0.822031
  87 H     1.0000    0     1.008   14.968521   10.034446   -2.173185
  88 H     1.0000    0     1.008    9.983423    0.634948   -0.338261
  89 H     1.0000    0     1.008    7.029781    6.863485   -3.717091

--------------------------------
INTERNAL COORDINATES (ANGSTROEM)
--------------------------------
 C      0   0   0     0.000000000000     0.00000000     0.00000000
 C      1   0   0     5.603851621876     0.00000000     0.00000000
 C      1   2   0     2.413674584529    45.55576194     0.00000000
 C      3   1   2     1.403793432097    87.90761281   125.25902223
 C      4   3   1     1.380123545194   120.15453345     0.13292995
 C      5   4   3     2.447707703138   152.52212362     1.61271145
 C      2   1   3     1.368114030335    15.34660773   340.63714955
 C      7   2   1     1.434084376876   108.05010202   133.80298123
 C      2   1   3     1.434123425651   118.24279813    32.60352495
 C      1   2   3     1.381437294994    35.78629258   315.19170471
 N      1   2   3     1.352202277768   114.75567605    64.10777307
 N      9   2   1     1.376127174356   106.58526707   346.56009347
 N     12   9   2     2.925062050624   168.53581413   171.12065651
 N     13  12   9     2.954513327098    91.55032014    11.12112580
 N     14  13  12     2.925371258490    88.43092389   359.84326247
 C      8   7   2     1.404790019896   127.24786865   181.11170171
 C     13  12   9     1.366535034311    81.72106996   188.00453233
 C     14  13  12     5.758810554272    80.56209567   166.76250791
 C     17  13  12     1.459010623676   111.08861209   183.82872609
 C     18  14  13     2.412235892279    27.27532823    36.33507194
 C     20  18  14     1.402692767501    87.95206320   148.94598259
 C     21  20  18     1.382106725257   120.14573887   359.70382047
 C     18  14  13     2.446510985056   144.15733107    82.80075377
 C     19  17  13     1.353610726908   106.29293361   359.75308708
 C     13  12   9     1.366813447402   172.21332906    33.46711076
 C     18  14  13     1.380960173213    15.08449437   309.23336894
 N     22  21  20     1.352773077792   120.73759875     0.27865223
 C     25  13  17     1.410897586645   125.60330303   182.37774668
 C     14  13  12     1.376642291955    80.24689249   177.85461986
 C     14  13  12     5.764089607215   164.51507311   312.20821879
 C     29  14  13     1.435600919476   106.58649366   178.76395472
 C     30  14  13     2.413316804732    27.10625047    82.12560436
 C     32  30  14     1.403734305344    87.90059683   149.76154742
 C     33  32  30     1.380694028378   120.14881443   359.74174632
 C     34  33  32     2.448777858443   152.49203239     2.45173620
 C     31  29  14     1.368160809262   108.16950133     0.70383075
 C     14  13  12     1.376239804685   169.26375223   353.09862627
 C     30  14  13     1.380907310430    14.68948582   353.70041132
 N     34  33  32     1.352658863128   120.85575621     0.19603406
 C     37  14  29     1.404717053360   126.01551127   180.90772073
 C     15  14  13     1.366491126938    81.61824056   183.09049352
 C      2   1   3     4.249062720177   142.55738261   159.53613554
 C     41  15  14     1.459677704153   111.05201287   175.08990246
 C     42   2   1     2.412953791518    41.78584867   201.20189391
 C     44  42   2     1.403446472082    87.95153797   233.97558675
 C     45  44  42     1.381696421071   120.11137308     0.19721020
 C     42   2   1     2.450019795838   135.97209175   111.51674301
 C     43  41  15     1.354461516618   106.26758155     0.30894352
 C     15  14  13     1.367461151185   171.87382904   332.35056460
 C     42   2   1     1.381886391857    32.59078432   250.05717310
 C      9   2   1     1.404988612053   126.98745415   167.56443100
 N     42   2   1     1.352765315936   113.57249190   139.25333221
 H      1   2   3     1.082850405181   115.40644477   204.01970390
 H      2   1   3     1.079907866440   115.50610871   201.43825861
 H      4   3   1     1.082525288388   121.05229479   179.51704784
 H      5   4   3     1.082435679382   122.80428141   179.45784386
 H      6   5   4     1.093146376292   104.43342462   100.11146476
 H      6   5   4     1.090221078497    84.67476735   209.55425173
 H      6   5   4     1.090020642006   133.91117486   322.36615223
 H      7   2   1     1.079807853278   126.66122480   314.04139501
 H     10   1   2     1.083354051084   118.80368497   271.31934457
 H     12   9   2     1.016297692608   125.29023241   180.00180175
 H     14  13  12     1.014936943854    44.97226959   359.42596618
 H     18  14  13     1.082871645210   128.03556573   234.20482432
 H     19  17  13     1.080893611786   126.41830519   178.11313280
 H     21  20  18     1.083569563987   121.05669627   180.67006309
 H     22  21  20     1.082483256222   122.73097286   180.59748951
 H     23  18  14     1.092105306278   103.92715769   234.93429879
 H     23  18  14     1.088871893291   134.19244188    12.25587044
 H     23  18  14     1.089833473518    84.85857450   125.45241208
 H     24  19  17     1.080075460327   127.28078426   178.44613241
 H     26  18  14     1.083408048706   118.76995697   244.94906660
 H     30  14  13     1.082703098730   127.99711412   279.66882698
 H     31  29  14     1.079759695488   125.22293469   180.92530585
 H     33  32  30     1.083188810873   121.01964473   180.74284758
 H     34  33  32     1.082494341787   122.70821597   180.59516895
 H     35  34  33     1.092652735319   105.73575241    97.19771933
 H     35  34  33     1.089462711615    84.05943581   206.43036958
 H     35  34  33     1.089268102902   133.08365142   318.50306270
 H     36  31  29     1.079439669458   126.61599965   178.98859863
 H     38  30  73     1.083742127999   118.77264435   359.90091293
 H     42   2   1     1.082178358682   119.31790784   355.88486266
 H     43  41  15     1.080281907652   126.36969097   182.06329380
 H     45  44  42     1.083277434455   121.10105945   179.58025624
 H     46  45  44     1.082194529648   122.72144639   179.46906377
 H     47  42   2     1.091546151109   106.65128841   315.16475048
 H     47  42   2     1.088818625851   132.46019523    94.52397119
 H     47  42   2     1.089531091801    83.63838232   206.04504406
 H     48  43  41     1.080402239909   127.23657387   181.62955349
 H     50  42   2     1.083186502870   118.77001737    94.71359229

---------------------------
INTERNAL COORDINATES (A.U.)
---------------------------
 C      0   0   0     0.000000000000     0.00000000     0.00000000
 C      1   0   0    10.589744860476     0.00000000     0.00000000
 C      1   2   0     4.561183941165    45.55576194     0.00000000
 C      3   1   2     2.652785135262    87.90761281   125.25902223
 C      4   3   1     2.608055531394   120.15453345     0.13292995
 C      5   4   3     4.625497214820   152.52212362     1.61271145
 C      2   1   3     2.585360837309    15.34660773   340.63714955
 C      7   2   1     2.710026725231   108.05010202   133.80298123
 C      2   1   3     2.710100516721   118.24279813    32.60352495
 C      1   2   3     2.610538158723    35.78629258   315.19170471
 N      1   2   3     2.555291982645   114.75567605    64.10777307
 N      9   2   1     2.600503484979   106.58526707   346.56009347
 N     12   9   2     5.527566200405   168.53581413   171.12065651
 N     13  12   9     5.583221047236    91.55032014    11.12112580
 N     14  13  12     5.528150518591    88.43092389   359.84326247
 C      8   7   2     2.654668413270   127.24786865   181.11170171
 C     13  12   9     2.582376967257    81.72106996   188.00453233
 C     14  13  12    10.882574804710    80.56209567   166.76250791
 C     17  13  12     2.757130505230   111.08861209   183.82872609
 C     18  14  13     4.558465206823    27.27532823    36.33507194
 C     20  18  14     2.650705180609    87.95206320   148.94598259
 C     21  20  18     2.611803198586   120.14573887   359.70382047
 C     18  14  13     4.623235745386   144.15733107    82.80075377
 C     19  17  13     2.557953565794   106.29293361   359.75308708
 C     13  12   9     2.582903091751   172.21332906    33.46711076
 C     18  14  13     2.609636529225    15.08449437   309.23336894
 N     22  21  20     2.556370638369   120.73759875     0.27865223
 C     25  13  17     2.666210041769   125.60330303   182.37774668
 C     14  13  12     2.601476916169    80.24689249   177.85461986
 C     14  13  12    10.892550769017   164.51507311   312.20821879
 C     29  14  13     2.712892575415   106.58649366   178.76395472
 C     30  14  13     4.560507835333    27.10625047    82.12560436
 C     32  30  14     2.652673401891    87.90059683   149.76154742
 C     33  32  30     2.609133588376   120.14881443   359.74174632
 C     34  33  32     4.627519515267   152.49203239     2.45173620
 C     31  29  14     2.585449236669   108.16950133     0.70383075
 C     14  13  12     2.600716325456   169.26375223   353.09862627
 C     30  14  13     2.609536633043    14.68948582   353.70041132
 N     34  33  32     2.556154803934   120.85575621     0.19603406
 C     37  14  29     2.654530526499   126.01551127   180.90772073
 C     15  14  13     2.582293994346    81.61824056   183.09049352
 C      2   1   3     8.029564866989   142.55738261   159.53613554
 C     41  15  14     2.758391104639   111.05201287   175.08990246
 C     42   2   1     4.559821839776    41.78584867   201.20189391
 C     44  42   2     2.652129475853    87.95153797   233.97558675
 C     45  44  42     2.611027836043   120.11137308     0.19721020
 C     42   2   1     4.629866436820   135.97209175   111.51674301
 C     43  41  15     2.559561325344   106.26758155     0.30894352
 C     15  14  13     2.584127074516   171.87382904   332.35056460
 C     42   2   1     2.611386828803    32.59078432   250.05717310
 C      9   2   1     2.655043698059   126.98745415   167.56443100
 N     42   2   1     2.556355970587   113.57249190   139.25333221
 H      1   2   3     2.046290709797   115.40644477   204.01970390
 H      2   1   3     2.040730117440   115.50610871   201.43825861
 H      4   3   1     2.045676328098   121.05229479   179.51704784
 H      5   4   3     2.045506991618   122.80428141   179.45784386
 H      6   5   4     2.065747275480   104.43342462   100.11146476
 H      6   5   4     2.060219263788    84.67476735   209.55425173
 H      6   5   4     2.059840493713   133.91117486   322.36615223
 H      7   2   1     2.040541119952   126.66122480   314.04139501
 H     10   1   2     2.047242462623   118.80368497   271.31934457
 H     12   9   2     1.920524309565   125.29023241   180.00180175
 H     14  13  12     1.917952867083    44.97226959   359.42596618
 H     18  14  13     2.046330847636   128.03556573   234.20482432
 H     19  17  13     2.042592906181   126.41830519   178.11313280
 H     21  20  18     2.047649722989   121.05669627   180.67006309
 H     22  21  20     2.045596898814   122.73097286   180.59748951
 H     23  18  14     2.063779938267   103.92715769   234.93429879
 H     23  18  14     2.057669673245   134.19244188    12.25587044
 H     23  18  14     2.059486796529    84.85857450   125.45241208
 H     24  19  17     2.041046823986   127.28078426   178.44613241
 H     26  18  14     2.047344503340   118.76995697   244.94906660
 H     30  14  13     2.046012340948   127.99711412   279.66882698
 H     31  29  14     2.040450114918   125.22293469   180.92530585
 H     33  32  30     2.046930203877   121.01964473   180.74284758
 H     34  33  32     2.045617847496   122.70821597   180.59516895
 H     35  34  33     2.064814429233   105.73575241    97.19771933
 H     35  34  33     2.058786158072    84.05943581   206.43036958
 H     35  34  33     2.058418400901   133.08365142   318.50306270
 H     36  31  29     2.039845353366   126.61599965   178.98859863
 H     38  30  73     2.047975821711   118.77264435   359.90091293
 H     42   2   1     2.045020725966   119.31790784   355.88486266
 H     43  41  15     2.041436952892   126.36969097   182.06329380
 H     45  44  42     2.047097678177   121.10105945   179.58025624
 H     46  45  44     2.045051284662   122.72144639   179.46906377
 H     47  42   2     2.062723288131   106.65128841   315.16475048
 H     47  42   2     2.057569012371   132.46019523    94.52397119
 H     47  42   2     2.058915377895    83.63838232   206.04504406
 H     48  43  41     2.041664347903   127.23657387   181.62955349
 H     50  42   2     2.046925842384   118.77001737    94.71359229

---------------------
BASIS SET INFORMATION
---------------------
There are 3 groups of distinct atoms

 Group   1 Type C   : 17s4p1d contracted to 3s2p1d pattern {881/31/1}
 Group   2 Type N   : 17s4p1d contracted to 3s2p1d pattern {881/31/1}
 Group   3 Type H   : 4s1p contracted to 2s1p pattern {31/1}

Atom   0C    basis set group =>   1
Atom   1N    basis set group =>   2
Atom   2C    basis set group =>   1
Atom   3N    basis set group =>   2
Atom   4C    basis set group =>   1
Atom   5N    basis set group =>   2
Atom   6C    basis set group =>   1
Atom   7N    basis set group =>   2
Atom   8C    basis set group =>   1
Atom   9N    basis set group =>   2
Atom  10C    basis set group =>   1
Atom  11N    basis set group =>   2
Atom  12C    basis set group =>   1
Atom  13N    basis set group =>   2
Atom  14C    basis set group =>   1
Atom  15N    basis set group =>   2
Atom  16C    basis set group =>   1
Atom  17C    basis set group =>   1
Atom  18C    basis set group =>   1
Atom  19C    basis set group =>   1
Atom  20C    basis set group =>   1
Atom  21C    basis set group =>   1
Atom  22C    basis set group =>   1
Atom  23C    basis set group =>   1
Atom  24C    basis set group =>   1
Atom  25C    basis set group =>   1
Atom  26C    basis set group =>   1
Atom  27C    basis set group =>   1
Atom  28C    basis set group =>   1
Atom  29C    basis set group =>   1
Atom  30C    basis set group =>   1
Atom  31C    basis set group =>   1
Atom  32C    basis set group =>   1
Atom  33C    basis set group =>   1
Atom  34C    basis set group =>   1
Atom  35C    basis set group =>   1
Atom  36C    basis set group =>   1
Atom  37C    basis set group =>   1
Atom  38C    basis set group =>   1
Atom  39C    basis set group =>   1
Atom  40C    basis set group =>   1
Atom  41C    basis set group =>   1
Atom  42C    basis set group =>   1
Atom  43C    basis set group =>   1
Atom  44C    basis set group =>   1
Atom  45C    basis set group =>   1
Atom  46C    basis set group =>   1
Atom  47C    basis set group =>   1
Atom  48C    basis set group =>   1
Atom  49C    basis set group =>   1
Atom  50C    basis set group =>   1
Atom  51C    basis set group =>   1
Atom  52H    basis set group =>   3
Atom  53H    basis set group =>   3
Atom  54H    basis set group =>   3
Atom  55H    basis set group =>   3
Atom  56H    basis set group =>   3
Atom  57H    basis set group =>   3
Atom  58H    basis set group =>   3
Atom  59H    basis set group =>   3
Atom  60H    basis set group =>   3
Atom  61H    basis set group =>   3
Atom  62H    basis set group =>   3
Atom  63H    basis set group =>   3
Atom  64H    basis set group =>   3
Atom  65H    basis set group =>   3
Atom  66H    basis set group =>   3
Atom  67H    basis set group =>   3
Atom  68H    basis set group =>   3
Atom  69H    basis set group =>   3
Atom  70H    basis set group =>   3
Atom  71H    basis set group =>   3
Atom  72H    basis set group =>   3
Atom  73H    basis set group =>   3
Atom  74H    basis set group =>   3
Atom  75H    basis set group =>   3
Atom  76H    basis set group =>   3
Atom  77H    basis set group =>   3
Atom  78H    basis set group =>   3
Atom  79H    basis set group =>   3
Atom  80H    basis set group =>   3
Atom  81H    basis set group =>   3
Atom  82H    basis set group =>   3
Atom  83H    basis set group =>   3
Atom  84H    basis set group =>   3
Atom  85H    basis set group =>   3
Atom  86H    basis set group =>   3
Atom  87H    basis set group =>   3
Atom  88H    basis set group =>   3
Atom  89H    basis set group =>   3


           ************************************************************
           *        Program running with 16 parallel MPI-processes    *
           *              working on a common directory               *
           ************************************************************
------------------------------------------------------------------------------
                           ORCA GTO INTEGRAL CALCULATION
------------------------------------------------------------------------------
------------------------------------------------------------------------------
                   ___                                                        
                  /   \      - P O W E R E D   B Y -                         
                 /     \                                                     
                 |  |  |   _    _      __       _____    __    __             
                 |  |  |  | |  | |    /  \     |  _  \  |  |  /  |          
                  \  \/   | |  | |   /    \    | | | |  |  | /  /          
                 / \  \   | |__| |  /  /\  \   | |_| |  |  |/  /          
                |  |  |   |  __  | /  /__\  \  |    /   |      \           
                |  |  |   | |  | | |   __   |  |    \   |  |\   \          
                \     /   | |  | | |  |  |  |  | |\  \  |  | \   \       
                 \___/    |_|  |_| |__|  |__|  |_| \__\ |__|  \__/        
                                                                              
                      - O R C A' S   B I G   F R I E N D -                    
                                      &                                       
                       - I N T E G R A L  F E E D E R -                       
                                                                              
 v1 FN, 2020, v2 2021                                                         
------------------------------------------------------------------------------


Reading SHARK input file /scratch/allen/tmpyp4_amber_gaff2/conf1/conf1/Conf70.orca.SHARKINP.tmp ... ok
----------------------
SHARK INTEGRAL PACKAGE
----------------------

Number of atoms                             ...     90
Number of basis functions                   ...   1230
Number of shells                            ...    738
Maximum angular momentum                    ...      2
Integral batch strategy                     ... SHARK/LIBINT Hybrid
RI-J (if used) integral strategy            ... SPLIT-RIJ (Revised 2003 algorithm where possible)
Printlevel                                  ...      1
Contraction scheme used                     ... PARTIAL GENERAL contraction
Coulomb Range Separation                    ... NOT USED
Exchange Range Separation                   ... NOT USED
Finite Nucleus Model                        ... NOT USED
Auxiliary Coulomb fitting basis             ... NOT available
Auxiliary J/K fitting basis                 ... NOT available
Auxiliary Correlation fitting basis         ... NOT available
Auxiliary 'external' fitting basis          ... NOT available
Integral threshold                          ...     2.500000e-11
Primitive cut-off                           ...     2.500000e-12
Primitive pair pre-selection threshold      ...     2.500000e-12

Calculating pre-screening integrals         ... done (  0.1 sec) Dimension = 738
Calculating pre-screening integrals (ORCA)  ... done (  0.3 sec) Dimension = 426
Organizing shell pair data                  ... done (  0.8 sec)
Shell pair information
Total number of shell pairs                 ...    272691
Shell pairs after pre-screening             ...     71591
Total number of primitive shell pairs       ...    422091
Primitive shell pairs kept                  ...     92340
          la=0 lb=0:  29406 shell pairs
          la=1 lb=0:  25961 shell pairs
          la=1 lb=1:   4687 shell pairs
          la=2 lb=0:   7879 shell pairs
          la=2 lb=1:   3127 shell pairs
          la=2 lb=2:    531 shell pairs

Calculating one electron integrals          ... done (  0.3 sec)
Calculating Nuclear repulsion               ... done (  0.0 sec) ENN=   6223.493083908598 Eh

SHARK setup successfully completed in   2.2 seconds

Maximum memory used throughout the entire GTOINT-calculation: 98.9 MB


           ************************************************************
           *        Program running with 16 parallel MPI-processes    *
           *              working on a common directory               *
           ************************************************************
-------------------------------------------------------------------------------
                                 ORCA SCF
-------------------------------------------------------------------------------

------------
SCF SETTINGS
------------
Hamiltonian:
 Ab initio Hamiltonian  Method          .... Hartree-Fock(GTOs)


General Settings:
 Integral files         IntName         .... /scratch/allen/tmpyp4_amber_gaff2/conf1/conf1/Conf70.orca
 Hartree-Fock type      HFTyp           .... RHF
 Total Charge           Charge          ....    0
 Multiplicity           Mult            ....    1
 Number of Electrons    NEL             ....  358
 Basis Dimension        Dim             ....  918
 Nuclear Repulsion      ENuc            ....   6223.4930839086 Eh

Convergence Acceleration:
 DIIS                   CNVDIIS         .... on
   Start iteration      DIISMaxIt       ....    12
   Startup error        DIISStart       ....  0.200000
   # of expansion vecs  DIISMaxEq       ....     5
   Bias factor          DIISBfac        ....   1.050
   Max. coefficient     DIISMaxC        ....  10.000
 Trust-Rad. Augm. Hess. CNVTRAH         .... auto
   Auto Start mean grad. ratio tolernc. ....  1.125000
   Auto Start start iteration           ....    20
   Auto Start num. interpolation iter.  ....    10
   Max. Number of Micro iterations      ....    16
   Max. Number of Macro iterations      .... Maxiter - #DIIS iter
   Number of Davidson start vectors     ....     2
   Converg. threshold I  (grad. norm)   ....   1.000e-05
   Converg. threshold II (energy diff.) ....   1.000e-08
   Grad. Scal. Fac. for Micro threshold ....   0.100
   Minimum threshold for Micro iter.    ....   0.010
   NR start threshold (gradient norm)   ....   0.001
   Initial trust radius                 ....   0.400
   Minimum AH scaling param. (alpha)    ....   1.000
   Maximum AH scaling param. (alpha)    .... 1000.000
   Orbital update algorithm             .... Taylor
   White noise on init. David. guess    .... on
   Maximum white noise                  ....   0.010
   Quad. conv. algorithm                .... NR
 SOSCF                  CNVSOSCF        .... on
   Start iteration      SOSCFMaxIt      ....   150
   Startup grad/error   SOSCFStart      ....  0.003300
 Level Shifting         CNVShift        .... on
   Level shift para.    LevelShift      ....    0.2500
   Turn off err/grad.   ShiftErr        ....    0.0010
 Zerner damping         CNVZerner       .... off
 Static damping         CNVDamp         .... on
   Fraction old density DampFac         ....    0.7000
   Max. Damping (<1)    DampMax         ....    0.9800
   Min. Damping (>=0)   DampMin         ....    0.0000
   Turn off err/grad.   DampErr         ....    0.1000
 Fernandez-Rico         CNVRico         .... off

SCF Procedure:
 Maximum # iterations   MaxIter         ....   125
 SCF integral mode      SCFMode         .... Direct
   Integral package                     .... SHARK and LIBINT hybrid scheme
 Reset frequency        DirectResetFreq ....    20
 Integral Threshold     Thresh          ....  2.500e-11 Eh
 Primitive CutOff       TCut            ....  2.500e-12 Eh

Convergence Tolerance:
 Convergence Check Mode ConvCheckMode   .... Total+1el-Energy
 Convergence forced     ConvForced      .... 1
 Energy Change          TolE            ....  1.000e-08 Eh
 1-El. energy change                    ....  1.000e-05 Eh
 Orbital Gradient       TolG            ....  1.000e-05
 Orbital Rotation angle TolX            ....  1.000e-05
 DIIS Error             TolErr          ....  5.000e-07


Diagonalization of the overlap matrix:
Smallest eigenvalue                        ... 2.256e-04
Time for diagonalization                   ...    0.357 sec
Threshold for overlap eigenvalues          ... 1.000e-08
Number of eigenvalues below threshold      ... 0
Time for construction of square roots      ...    0.245 sec
Total time needed                          ...    0.608 sec

Time for model grid setup =    1.050 sec

------------------------------
INITIAL GUESS: MODEL POTENTIAL
------------------------------
Loading Hartree-Fock densities                     ... done
Calculating cut-offs                               ... done
Initializing the effective Hamiltonian             ... done
Setting up the integral package (SHARK)            ... done
Starting the Coulomb interaction                   ... done (   1.1 sec)
Reading the grid                                   ... done
Mapping shells                                     ... done
Starting the XC term evaluation                    ... done (   0.2 sec)
Transforming the Hamiltonian                       ... done (   0.2 sec)
Diagonalizing the Hamiltonian                      ... done (   0.3 sec)
Back transforming the eigenvectors                 ... done (   0.1 sec)
Now organizing SCF variables                       ... done
                      ------------------
                      INITIAL GUESS DONE (   3.1 sec)
                      ------------------
--------------
SCF ITERATIONS
--------------
ITER       Energy         Delta-E        Max-DP      RMS-DP      [F,P]     Damp
               ***  Starting incremental Fock matrix formation  ***
  0  -2121.6553243855   0.000000000000 0.06922129  0.00121279  0.2339952 0.7000
  1  -2122.3234335288  -0.668109143300 0.05256706  0.00098387  0.1446739 0.7000
                               ***Turning on DIIS***
  2  -2122.7386897747  -0.415256245873 0.11683184  0.00222634  0.0803324 0.0000
  3  -2117.6930853548   5.045604419915 0.03302823  0.00068916  0.0444020 0.0000
  4  -2123.4012470294  -5.708161674635 0.00889052  0.00023041  0.0070476 0.0000
  5  -2123.5832918111  -0.182044781735 0.00513410  0.00013786  0.0049922 0.0000
  6  -2123.5657712460   0.017520565119 0.00344925  0.00009152  0.0020770 0.0000
  7  -2123.6730206030  -0.107249357012 0.00296705  0.00007442  0.0015599 0.0000
  8  -2123.6989811431  -0.025960540115 0.00277635  0.00007250  0.0014471 0.0000
  9  -2123.6591425749   0.039838568231 0.00242924  0.00005079  0.0011254 0.0000
 10  -2123.6799285959  -0.020786021018 0.00575081  0.00010796  0.0008428 0.0000
                      *** Initiating the SOSCF procedure ***
                           *** Shutting down DIIS ***
                      *** Re-Reading the Fockian *** 
                      *** Removing any level shift *** 
ITER      Energy       Delta-E        Grad      Rot      Max-DP    RMS-DP
 11  -2123.53350200   0.1464265919  0.000325  0.000325  0.000280  0.000007
               *** Restarting incremental Fock matrix formation ***
 12  -2123.61664404  -0.0831420349  0.001051  0.007296  0.001404  0.000034
 13  -2123.61674680  -0.0001027612  0.001192  0.030921  0.006106  0.000115
 14  -2123.61688795  -0.0001411543  0.000462  0.002348  0.000524  0.000013
 15  -2123.61690571  -0.0000177604  0.000258  0.004287  0.000814  0.000019
 16  -2123.61691665  -0.0000109315  0.000147  0.004376  0.000934  0.000020
 17  -2123.61692473  -0.0000080882  0.000225  0.005432  0.000923  0.000021
 18  -2123.61693090  -0.0000061664  0.000137  0.005010  0.000792  0.000019
 19  -2123.61693540  -0.0000045022  0.000140  0.002432  0.000489  0.000009
 20  -2123.61693701  -0.0000016071  0.000064  0.001229  0.000305  0.000006
 21  -2123.61693763  -0.0000006185  0.000050  0.000477  0.000137  0.000003
 22  -2123.61693803  -0.0000004018  0.000037  0.000684  0.000178  0.000003
 23  -2123.61693829  -0.0000002560  0.000025  0.000702  0.000117  0.000002
 24  -2123.61693838  -0.0000000950  0.000013  0.000419  0.000059  0.000001
 25  -2123.61693842  -0.0000000382  0.000011  0.000235  0.000040  0.000001
 26  -2123.61693844  -0.0000000212  0.000010  0.000210  0.000036  0.000001
 27  -2123.61693845  -0.0000000062  0.000006  0.000234  0.000036  0.000001
 28  -2123.61693845  -0.0000000019  0.000004  0.000199  0.000033  0.000001
 29  -2123.61693845  -0.0000000001  0.000003  0.000111  0.000017  0.000000
                  ***Gradient check signals convergence***
              ***Rediagonalizing the Fockian in SOSCF/NRSCF***

               *****************************************************
               *                     SUCCESS                       *
               *           SCF CONVERGED AFTER  30 CYCLES          *
               *****************************************************


----------------
TOTAL SCF ENERGY
----------------

Total Energy       :        -2123.61693844 Eh          -57786.55471 eV

Components:
Nuclear Repulsion  :         6223.49308391 Eh          169349.85639 eV
Electronic Energy  :        -8347.11002235 Eh         -227136.41110 eV
One Electron Energy:       -15288.31381055 Eh         -416016.16864 eV
Two Electron Energy:         6941.20378819 Eh          188879.75754 eV

Virial components:
Potential Energy   :        -4245.60747324 Eh         -115528.85272 eV
Kinetic Energy     :         2121.99053479 Eh           57742.29801 eV
Virial Ratio       :            2.00076645


---------------
SCF CONVERGENCE
---------------

  Last Energy change         ...    4.2219e-09  Tolerance :   1.0000e-08
  Last MAX-Density change    ...    7.3468e-06  Tolerance :   1.0000e-07
  Last RMS-Density change    ...    1.7081e-07  Tolerance :   5.0000e-09
  Last Orbital Gradient      ...    1.9458e-06  Tolerance :   1.0000e-05
  Last Orbital Rotation      ...    4.4298e-05  Tolerance :   1.0000e-05

             **** THE GBW FILE WAS UPDATED (/scratch/allen/tmpyp4_amber_gaff2/conf1/conf1/Conf70.orca.gbw) ****
             **** DENSITY /scratch/allen/tmpyp4_amber_gaff2/conf1/conf1/Conf70.orca.scfp WAS UPDATED ****
             **** ENERGY FILE WAS UPDATED (/scratch/allen/tmpyp4_amber_gaff2/conf1/conf1/Conf70.orca.en.tmp) ****
             **** THE GBW FILE WAS UPDATED (/scratch/allen/tmpyp4_amber_gaff2/conf1/conf1/Conf70.orca.gbw) ****
             **** DENSITY /scratch/allen/tmpyp4_amber_gaff2/conf1/conf1/Conf70.orca.scfp WAS UPDATED ****
----------------
ORBITAL ENERGIES
----------------

  NO   OCC          E(Eh)            E(eV) 
   0   2.0000     -15.659053      -426.1045 
   1   2.0000     -15.637326      -425.5133 
   2   2.0000     -15.627178      -425.2371 
   3   2.0000     -15.612277      -424.8317 
   4   2.0000     -15.517864      -422.2626 
   5   2.0000     -15.512706      -422.1222 
   6   2.0000     -15.446273      -420.3145 
   7   2.0000     -15.437225      -420.0682 
   8   2.0000     -11.314749      -307.8900 
   9   2.0000     -11.311130      -307.7915 
  10   2.0000     -11.309689      -307.7523 
  11   2.0000     -11.301418      -307.5272 
  12   2.0000     -11.294923      -307.3505 
  13   2.0000     -11.294367      -307.3353 
  14   2.0000     -11.291046      -307.2450 
  15   2.0000     -11.285999      -307.1076 
  16   2.0000     -11.285838      -307.1033 
  17   2.0000     -11.282082      -307.0011 
  18   2.0000     -11.273125      -306.7573 
  19   2.0000     -11.270487      -306.6855 
  20   2.0000     -11.260609      -306.4168 
  21   2.0000     -11.247974      -306.0729 
  22   2.0000     -11.247404      -306.0574 
  23   2.0000     -11.240589      -305.8720 
  24   2.0000     -11.232729      -305.6581 
  25   2.0000     -11.231886      -305.6351 
  26   2.0000     -11.231367      -305.6210 
  27   2.0000     -11.225335      -305.4569 
  28   2.0000     -11.225099      -305.4505 
  29   2.0000     -11.217925      -305.2553 
  30   2.0000     -11.214665      -305.1665 
  31   2.0000     -11.213835      -305.1440 
  32   2.0000     -11.200443      -304.7796 
  33   2.0000     -11.200089      -304.7699 
  34   2.0000     -11.191386      -304.5331 
  35   2.0000     -11.191061      -304.5243 
  36   2.0000     -11.179507      -304.2098 
  37   2.0000     -11.179001      -304.1961 
  38   2.0000     -11.177149      -304.1457 
  39   2.0000     -11.168378      -303.9070 
  40   2.0000     -11.165279      -303.8227 
  41   2.0000     -11.161758      -303.7269 
  42   2.0000     -11.161070      -303.7081 
  43   2.0000     -11.161040      -303.7073 
  44   2.0000     -11.157367      -303.6074 
  45   2.0000     -11.157306      -303.6057 
  46   2.0000     -11.151912      -303.4590 
  47   2.0000     -11.150951      -303.4328 
  48   2.0000     -11.149460      -303.3922 
  49   2.0000     -11.146702      -303.3172 
  50   2.0000     -11.132645      -302.9347 
  51   2.0000     -11.130312      -302.8712 
  52   2.0000      -1.342260       -36.5247 
  53   2.0000      -1.324054       -36.0293 
  54   2.0000      -1.315091       -35.7855 
  55   2.0000      -1.302628       -35.4463 
  56   2.0000      -1.217361       -33.1261 
  57   2.0000      -1.209646       -32.9161 
  58   2.0000      -1.165534       -31.7158 
  59   2.0000      -1.150404       -31.3041 
  60   2.0000      -1.127249       -30.6740 
  61   2.0000      -1.111726       -30.2516 
  62   2.0000      -1.104444       -30.0535 
  63   2.0000      -1.092917       -29.7398 
  64   2.0000      -1.065023       -28.9807 
  65   2.0000      -1.047871       -28.5140 
  66   2.0000      -1.039664       -28.2907 
  67   2.0000      -1.029703       -28.0197 
  68   2.0000      -1.028105       -27.9762 
  69   2.0000      -1.012388       -27.5485 
  70   2.0000      -1.006867       -27.3982 
  71   2.0000      -0.994089       -27.0505 
  72   2.0000      -0.981881       -26.7183 
  73   2.0000      -0.973752       -26.4971 
  74   2.0000      -0.971300       -26.4304 
  75   2.0000      -0.960214       -26.1287 
  76   2.0000      -0.949087       -25.8260 
  77   2.0000      -0.948178       -25.8012 
  78   2.0000      -0.932851       -25.3842 
  79   2.0000      -0.921728       -25.0815 
  80   2.0000      -0.894733       -24.3469 
  81   2.0000      -0.887051       -24.1379 
  82   2.0000      -0.874912       -23.8076 
  83   2.0000      -0.866763       -23.5858 
  84   2.0000      -0.861795       -23.4506 
  85   2.0000      -0.856481       -23.3060 
  86   2.0000      -0.850861       -23.1531 
  87   2.0000      -0.837023       -22.7765 
  88   2.0000      -0.822239       -22.3743 
  89   2.0000      -0.797142       -21.6913 
  90   2.0000      -0.795837       -21.6558 
  91   2.0000      -0.741663       -20.1817 
  92   2.0000      -0.733010       -19.9462 
  93   2.0000      -0.726967       -19.7818 
  94   2.0000      -0.722209       -19.6523 
  95   2.0000      -0.716810       -19.5054 
  96   2.0000      -0.710348       -19.3295 
  97   2.0000      -0.705731       -19.2039 
  98   2.0000      -0.699494       -19.0342 
  99   2.0000      -0.692739       -18.8504 
 100   2.0000      -0.690972       -18.8023 
 101   2.0000      -0.681854       -18.5542 
 102   2.0000      -0.678777       -18.4705 
 103   2.0000      -0.672072       -18.2880 
 104   2.0000      -0.670520       -18.2458 
 105   2.0000      -0.669245       -18.2111 
 106   2.0000      -0.662595       -18.0301 
 107   2.0000      -0.661024       -17.9874 
 108   2.0000      -0.657441       -17.8899 
 109   2.0000      -0.655633       -17.8407 
 110   2.0000      -0.650371       -17.6975 
 111   2.0000      -0.648258       -17.6400 
 112   2.0000      -0.644241       -17.5307 
 113   2.0000      -0.638356       -17.3705 
 114   2.0000      -0.633203       -17.2303 
 115   2.0000      -0.630424       -17.1547 
 116   2.0000      -0.623002       -16.9527 
 117   2.0000      -0.615232       -16.7413 
 118   2.0000      -0.612871       -16.6771 
 119   2.0000      -0.608633       -16.5617 
 120   2.0000      -0.607177       -16.5221 
 121   2.0000      -0.599600       -16.3159 
 122   2.0000      -0.597249       -16.2520 
 123   2.0000      -0.596233       -16.2243 
 124   2.0000      -0.592490       -16.1225 
 125   2.0000      -0.583609       -15.8808 
 126   2.0000      -0.577200       -15.7064 
 127   2.0000      -0.571396       -15.5485 
 128   2.0000      -0.567654       -15.4467 
 129   2.0000      -0.562397       -15.3036 
 130   2.0000      -0.555283       -15.1100 
 131   2.0000      -0.548469       -14.9246 
 132   2.0000      -0.539594       -14.6831 
 133   2.0000      -0.534952       -14.5568 
 134   2.0000      -0.532392       -14.4871 
 135   2.0000      -0.530849       -14.4451 
 136   2.0000      -0.524970       -14.2852 
 137   2.0000      -0.521628       -14.1942 
 138   2.0000      -0.518336       -14.1046 
 139   2.0000      -0.514430       -13.9983 
 140   2.0000      -0.509484       -13.8638 
 141   2.0000      -0.505851       -13.7649 
 142   2.0000      -0.503409       -13.6985 
 143   2.0000      -0.499902       -13.6030 
 144   2.0000      -0.498726       -13.5710 
 145   2.0000      -0.496239       -13.5034 
 146   2.0000      -0.493659       -13.4331 
 147   2.0000      -0.492113       -13.3911 
 148   2.0000      -0.486861       -13.2482 
 149   2.0000      -0.466625       -12.6975 
 150   2.0000      -0.461040       -12.5455 
 151   2.0000      -0.452929       -12.3248 
 152   2.0000      -0.447614       -12.1802 
 153   2.0000      -0.444096       -12.0845 
 154   2.0000      -0.441910       -12.0250 
 155   2.0000      -0.440018       -11.9735 
 156   2.0000      -0.432293       -11.7633 
 157   2.0000      -0.425901       -11.5894 
 158   2.0000      -0.394752       -10.7417 
 159   2.0000      -0.381851       -10.3907 
 160   2.0000      -0.375303       -10.2125 
 161   2.0000      -0.372529       -10.1370 
 162   2.0000      -0.367725       -10.0063 
 163   2.0000      -0.358447        -9.7538 
 164   2.0000      -0.351478        -9.5642 
 165   2.0000      -0.341795        -9.3007 
 166   2.0000      -0.338243        -9.2041 
 167   2.0000      -0.334533        -9.1031 
 168   2.0000      -0.323329        -8.7982 
 169   2.0000      -0.299851        -8.1594 
 170   2.0000      -0.295163        -8.0318 
 171   2.0000      -0.287087        -7.8120 
 172   2.0000      -0.285630        -7.7724 
 173   2.0000      -0.258536        -7.0351 
 174   2.0000      -0.242531        -6.5996 
 175   2.0000      -0.186317        -5.0699 
 176   2.0000      -0.176111        -4.7922 
 177   2.0000      -0.063488        -1.7276 
 178   2.0000      -0.052249        -1.4218 
 179   0.0000       0.032976         0.8973 
 180   0.0000       0.067239         1.8297 
 181   0.0000       0.092319         2.5121 
 182   0.0000       0.095634         2.6023 
 183   0.0000       0.120883         3.2894 
 184   0.0000       0.135710         3.6929 
 185   0.0000       0.143051         3.8926 
 186   0.0000       0.152384         4.1466 
 187   0.0000       0.153645         4.1809 
 188   0.0000       0.161588         4.3970 
 189   0.0000       0.163389         4.4461 
 190   0.0000       0.168801         4.5933 
 191   0.0000       0.176548         4.8041 
 192   0.0000       0.191800         5.2191 
 193   0.0000       0.195320         5.3149 
 194   0.0000       0.202775         5.5178 
 195   0.0000       0.207303         5.6410 
 196   0.0000       0.208561         5.6752 
 197   0.0000       0.212519         5.7829 
 198   0.0000       0.216940         5.9032 
 199   0.0000       0.220112         5.9896 
 200   0.0000       0.227448         6.1892 
 201   0.0000       0.237927         6.4743 
 202   0.0000       0.242799         6.6069 
 203   0.0000       0.244694         6.6585 
 204   0.0000       0.250222         6.8089 
 205   0.0000       0.253537         6.8991 
 206   0.0000       0.256060         6.9678 
 207   0.0000       0.260772         7.0960 
 208   0.0000       0.263849         7.1797 
 209   0.0000       0.264710         7.2031 
 210   0.0000       0.266442         7.2503 
 211   0.0000       0.268859         7.3160 
 212   0.0000       0.271931         7.3996 
 213   0.0000       0.274285         7.4637 
 214   0.0000       0.276454         7.5227 
 215   0.0000       0.279632         7.6092 
 216   0.0000       0.280810         7.6412 
 217   0.0000       0.282996         7.7007 
 218   0.0000       0.284297         7.7361 
 219   0.0000       0.288229         7.8431 
 220   0.0000       0.290581         7.9071 
 221   0.0000       0.291596         7.9347 
 222   0.0000       0.294888         8.0243 
 223   0.0000       0.295833         8.0500 
 224   0.0000       0.299298         8.1443 
 225   0.0000       0.301389         8.2012 
 226   0.0000       0.302691         8.2366 
 227   0.0000       0.305957         8.3255 
 228   0.0000       0.308426         8.3927 
 229   0.0000       0.310596         8.4517 
 230   0.0000       0.315653         8.5893 
 231   0.0000       0.317337         8.6352 
 232   0.0000       0.326005         8.8711 
 233   0.0000       0.327662         8.9161 
 234   0.0000       0.332659         9.0521 
 235   0.0000       0.341462         9.2916 
 236   0.0000       0.357743         9.7347 
 237   0.0000       0.380229        10.3466 
 238   0.0000       0.396788        10.7971 
 239   0.0000       0.399954        10.8833 
 240   0.0000       0.403045        10.9674 
 241   0.0000       0.411323        11.1927 
 242   0.0000       0.417780        11.3684 
 243   0.0000       0.423511        11.5243 
 244   0.0000       0.424180        11.5425 
 245   0.0000       0.431423        11.7396 
 246   0.0000       0.433505        11.7963 
 247   0.0000       0.438945        11.9443 
 248   0.0000       0.442336        12.0366 
 249   0.0000       0.445227        12.1153 
 250   0.0000       0.448197        12.1961 
 251   0.0000       0.454344        12.3633 
 252   0.0000       0.455417        12.3925 
 253   0.0000       0.460235        12.5236 
 254   0.0000       0.470335        12.7985 
 255   0.0000       0.476555        12.9677 
 256   0.0000       0.483878        13.1670 
 257   0.0000       0.485856        13.2208 
 258   0.0000       0.491266        13.3680 
 259   0.0000       0.492937        13.4135 
 260   0.0000       0.499562        13.5938 
 261   0.0000       0.503961        13.7135 
 262   0.0000       0.506560        13.7842 
 263   0.0000       0.510806        13.8997 
 264   0.0000       0.511426        13.9166 
 265   0.0000       0.516353        14.0507 
 266   0.0000       0.519441        14.1347 
 267   0.0000       0.523322        14.2403 
 268   0.0000       0.535244        14.5647 
 269   0.0000       0.538489        14.6530 
 270   0.0000       0.542406        14.7596 
 271   0.0000       0.543342        14.7851 
 272   0.0000       0.546661        14.8754 
 273   0.0000       0.553112        15.0510 
 274   0.0000       0.563007        15.3202 
 275   0.0000       0.564258        15.3542 
 276   0.0000       0.571902        15.5623 
 277   0.0000       0.576416        15.6851 
 278   0.0000       0.577301        15.7092 
 279   0.0000       0.585193        15.9239 
 280   0.0000       0.586417        15.9572 
 281   0.0000       0.591450        16.0942 
 282   0.0000       0.593140        16.1402 
 283   0.0000       0.596764        16.2388 
 284   0.0000       0.600846        16.3498 
 285   0.0000       0.601286        16.3618 
 286   0.0000       0.607190        16.5225 
 287   0.0000       0.610029        16.5997 
 288   0.0000       0.612756        16.6739 
 289   0.0000       0.615208        16.7407 
 290   0.0000       0.619028        16.8446 
 291   0.0000       0.628257        17.0957 
 292   0.0000       0.633196        17.2301 
 293   0.0000       0.638281        17.3685 
 294   0.0000       0.646709        17.5978 
 295   0.0000       0.649641        17.6776 
 296   0.0000       0.652325        17.7507 
 297   0.0000       0.658912        17.9299 
 298   0.0000       0.663680        18.0597 
 299   0.0000       0.666473        18.1357 
 300   0.0000       0.668432        18.1890 
 301   0.0000       0.673211        18.3190 
 302   0.0000       0.675059        18.3693 
 303   0.0000       0.682591        18.5742 
 304   0.0000       0.683831        18.6080 
 305   0.0000       0.685721        18.6594 
 306   0.0000       0.687230        18.7005 
 307   0.0000       0.690816        18.7980 
 308   0.0000       0.696535        18.9537 
 309   0.0000       0.700539        19.0626 
 310   0.0000       0.702153        19.1065 
 311   0.0000       0.703768        19.1505 
 312   0.0000       0.708041        19.2668 
 313   0.0000       0.709640        19.3103 
 314   0.0000       0.711865        19.3708 
 315   0.0000       0.714157        19.4332 
 316   0.0000       0.716197        19.4887 
 317   0.0000       0.719001        19.5650 
 318   0.0000       0.719476        19.5779 
 319   0.0000       0.723197        19.6792 
 320   0.0000       0.727933        19.8081 
 321   0.0000       0.728436        19.8217 
 322   0.0000       0.730886        19.8884 
 323   0.0000       0.735609        20.0169 
 324   0.0000       0.738078        20.0841 
 325   0.0000       0.739309        20.1176 
 326   0.0000       0.741784        20.1850 
 327   0.0000       0.742895        20.2152 
 328   0.0000       0.748068        20.3560 
 329   0.0000       0.751808        20.4577 
 330   0.0000       0.752215        20.4688 
 331   0.0000       0.755154        20.5488 
 332   0.0000       0.758296        20.6343 
 333   0.0000       0.760423        20.6922 
 334   0.0000       0.764786        20.8109 
 335   0.0000       0.770751        20.9732 
 336   0.0000       0.772676        21.0256 
 337   0.0000       0.777974        21.1697 
 338   0.0000       0.783762        21.3272 
 339   0.0000       0.788836        21.4653 
 340   0.0000       0.790618        21.5138 
 341   0.0000       0.791821        21.5465 
 342   0.0000       0.794182        21.6108 
 343   0.0000       0.797478        21.7005 
 344   0.0000       0.803851        21.8739 
 345   0.0000       0.806356        21.9421 
 346   0.0000       0.808299        21.9949 
 347   0.0000       0.809760        22.0347 
 348   0.0000       0.817081        22.2339 
 349   0.0000       0.817214        22.2375 
 350   0.0000       0.819744        22.3064 
 351   0.0000       0.822436        22.3796 
 352   0.0000       0.823477        22.4080 
 353   0.0000       0.827016        22.5042 
 354   0.0000       0.829362        22.5681 
 355   0.0000       0.831899        22.6371 
 356   0.0000       0.832854        22.6631 
 357   0.0000       0.834295        22.7023 
 358   0.0000       0.836497        22.7623 
 359   0.0000       0.838975        22.8297 
 360   0.0000       0.840805        22.8795 
 361   0.0000       0.845451        23.0059 
 362   0.0000       0.846845        23.0438 
 363   0.0000       0.847049        23.0494 
 364   0.0000       0.849153        23.1066 
 365   0.0000       0.851071        23.1588 
 366   0.0000       0.852218        23.1900 
 367   0.0000       0.854647        23.2561 
 368   0.0000       0.856579        23.3087 
 369   0.0000       0.857706        23.3394 
 370   0.0000       0.862745        23.4765 
 371   0.0000       0.866967        23.5914 
 372   0.0000       0.871377        23.7114 
 373   0.0000       0.874260        23.7898 
 374   0.0000       0.879833        23.9415 
 375   0.0000       0.883261        24.0347 
 376   0.0000       0.885572        24.0976 
 377   0.0000       0.888433        24.1755 
 378   0.0000       0.890463        24.2307 
 379   0.0000       0.891975        24.2719 
 380   0.0000       0.894508        24.3408 
 381   0.0000       0.900315        24.4988 
 382   0.0000       0.902331        24.5537 
 383   0.0000       0.904187        24.6042 
 384   0.0000       0.905134        24.6299 
 385   0.0000       0.907218        24.6866 
 386   0.0000       0.909604        24.7516 
 387   0.0000       0.911314        24.7981 
 388   0.0000       0.912489        24.8301 
 389   0.0000       0.915873        24.9222 
 390   0.0000       0.918764        25.0008 
 391   0.0000       0.922066        25.0907 
 392   0.0000       0.924641        25.1607 
 393   0.0000       0.926601        25.2141 
 394   0.0000       0.927453        25.2373 
 395   0.0000       0.930311        25.3151 
 396   0.0000       0.932196        25.3663 
 397   0.0000       0.934624        25.4324 
 398   0.0000       0.937501        25.5107 
 399   0.0000       0.943719        25.6799 
 400   0.0000       0.944646        25.7051 
 401   0.0000       0.946636        25.7593 
 402   0.0000       0.949045        25.8248 
 403   0.0000       0.951534        25.8926 
 404   0.0000       0.955226        25.9930 
 405   0.0000       0.956851        26.0372 
 406   0.0000       0.960470        26.1357 
 407   0.0000       0.962730        26.1972 
 408   0.0000       0.968434        26.3524 
 409   0.0000       0.972979        26.4761 
 410   0.0000       0.975213        26.5369 
 411   0.0000       0.976099        26.5610 
 412   0.0000       0.981875        26.7182 
 413   0.0000       0.990880        26.9632 
 414   0.0000       0.992146        26.9977 
 415   0.0000       0.992973        27.0202 
 416   0.0000       0.996851        27.1257 
 417   0.0000       1.002859        27.2892 
 418   0.0000       1.006908        27.3994 
 419   0.0000       1.013648        27.5828 
 420   0.0000       1.024581        27.8803 
 421   0.0000       1.029198        28.0059 
 422   0.0000       1.032660        28.1001 
 423   0.0000       1.036586        28.2069 
 424   0.0000       1.038718        28.2650 
 425   0.0000       1.048067        28.5194 
 426   0.0000       1.055728        28.7278 
 427   0.0000       1.062897        28.9229 
 428   0.0000       1.069728        29.1088 
 429   0.0000       1.074489        29.2383 
 430   0.0000       1.075608        29.2688 
 431   0.0000       1.083422        29.4814 
 432   0.0000       1.083667        29.4881 
 433   0.0000       1.091168        29.6922 
 434   0.0000       1.095281        29.8041 
 435   0.0000       1.101981        29.9864 
 436   0.0000       1.105768        30.0895 
 437   0.0000       1.113886        30.3104 
 438   0.0000       1.116104        30.3707 
 439   0.0000       1.118034        30.4233 
 440   0.0000       1.120104        30.4796 
 441   0.0000       1.123615        30.5751 
 442   0.0000       1.127436        30.6791 
 443   0.0000       1.132415        30.8146 
 444   0.0000       1.135129        30.8884 
 445   0.0000       1.136912        30.9370 
 446   0.0000       1.138841        30.9894 
 447   0.0000       1.140875        31.0448 
 448   0.0000       1.142604        31.0918 
 449   0.0000       1.148394        31.2494 
 450   0.0000       1.151404        31.3313 
 451   0.0000       1.153241        31.3813 
 452   0.0000       1.155240        31.4357 
 453   0.0000       1.160426        31.5768 
 454   0.0000       1.161013        31.5928 
 455   0.0000       1.167130        31.7592 
 456   0.0000       1.172135        31.8954 
 457   0.0000       1.176727        32.0204 
 458   0.0000       1.182603        32.1803 
 459   0.0000       1.186263        32.2799 
 460   0.0000       1.188675        32.3455 
 461   0.0000       1.190662        32.3996 
 462   0.0000       1.199216        32.6323 
 463   0.0000       1.206294        32.8249 
 464   0.0000       1.209436        32.9104 
 465   0.0000       1.211015        32.9534 
 466   0.0000       1.213147        33.0114 
 467   0.0000       1.221233        33.2314 
 468   0.0000       1.223310        33.2880 
 469   0.0000       1.227441        33.4004 
 470   0.0000       1.230550        33.4850 
 471   0.0000       1.232458        33.5369 
 472   0.0000       1.237370        33.6705 
 473   0.0000       1.239342        33.7242 
 474   0.0000       1.241355        33.7790 
 475   0.0000       1.247088        33.9350 
 476   0.0000       1.250740        34.0344 
 477   0.0000       1.252049        34.0700 
 478   0.0000       1.255106        34.1532 
 479   0.0000       1.258318        34.2406 
 480   0.0000       1.260471        34.2992 
 481   0.0000       1.265509        34.4363 
 482   0.0000       1.267143        34.4807 
 483   0.0000       1.267412        34.4880 
 484   0.0000       1.273537        34.6547 
 485   0.0000       1.278287        34.7840 
 486   0.0000       1.280214        34.8364 
 487   0.0000       1.282692        34.9038 
 488   0.0000       1.288814        35.0704 
 489   0.0000       1.291690        35.1487 
 490   0.0000       1.292439        35.1691 
 491   0.0000       1.295836        35.2615 
 492   0.0000       1.301861        35.4254 
 493   0.0000       1.308155        35.5967 
 494   0.0000       1.311797        35.6958 
 495   0.0000       1.315521        35.7971 
 496   0.0000       1.322007        35.9736 
 497   0.0000       1.322917        35.9984 
 498   0.0000       1.327461        36.1221 
 499   0.0000       1.331758        36.2390 
 500   0.0000       1.332488        36.2588 
 501   0.0000       1.339243        36.4427 
 502   0.0000       1.341155        36.4947 
 503   0.0000       1.342778        36.5388 
 504   0.0000       1.347092        36.6562 
 505   0.0000       1.350213        36.7412 
 506   0.0000       1.353383        36.8274 
[...]
      pz      :     0.021871  p :     0.079417
      px      :     0.043075
      py      :     0.014471
 77 H s       :     0.892280  s :     0.892280
      pz      :     0.047375  p :     0.078614
      px      :     0.015007
      py      :     0.016233
 78 H s       :     0.892651  s :     0.892651
      pz      :     0.025577  p :     0.078544
      px      :     0.020631
      py      :     0.032336
 79 H s       :     0.908275  s :     0.908275
      pz      :     0.022354  p :     0.086969
      px      :     0.021837
      py      :     0.042778
 80 H s       :     0.875121  s :     0.875121
      pz      :     0.038516  p :     0.083634
      px      :     0.029689
      py      :     0.015430
 81 H s       :     0.887565  s :     0.887565
      pz      :     0.037682  p :     0.083603
      px      :     0.016093
      py      :     0.029828
 82 H s       :     0.914376  s :     0.914376
      pz      :     0.022242  p :     0.086999
      px      :     0.031165
      py      :     0.033592
 83 H s       :     0.871979  s :     0.871979
      pz      :     0.039258  p :     0.083869
      px      :     0.015237
      py      :     0.029374
 84 H s       :     0.887405  s :     0.887405
      pz      :     0.035829  p :     0.084042
      px      :     0.031778
      py      :     0.016435
 85 H s       :     0.894331  s :     0.894331
      pz      :     0.022513  p :     0.079693
      px      :     0.014102
      py      :     0.043077
 86 H s       :     0.890452  s :     0.890452
      pz      :     0.024725  p :     0.078902
      px      :     0.033015
      py      :     0.021162
 87 H s       :     0.890436  s :     0.890436
      pz      :     0.047912  p :     0.078674
      px      :     0.015632
      py      :     0.015130
 88 H s       :     0.915962  s :     0.915962
      pz      :     0.022238  p :     0.086864
      px      :     0.042285
      py      :     0.022342
 89 H s       :     0.873426  s :     0.873426
      pz      :     0.037873  p :     0.083983
      px      :     0.030507
      py      :     0.015603


                      *****************************
                      * MAYER POPULATION ANALYSIS *
                      *****************************

  NA   - Mulliken gross atomic population
  ZA   - Total nuclear charge
  QA   - Mulliken gross atomic charge
  VA   - Mayer's total valence
  BVA  - Mayer's bonded valence
  FA   - Mayer's free valence

  ATOM       NA         ZA         QA         VA         BVA        FA
  0 C      5.7825     6.0000     0.2175     3.8189     3.8189    -0.0000
  1 N      7.4320     7.0000    -0.4320     3.4082     3.4082    -0.0000
  2 C      6.0656     6.0000    -0.0656     3.9182     3.9182     0.0000
  3 N      7.3396     7.0000    -0.3396     3.4357     3.4357    -0.0000
  4 C      6.0735     6.0000    -0.0735     3.9777     3.9777     0.0000
  5 N      7.5648     7.0000    -0.5648     3.0774     3.0774    -0.0000
  6 C      6.0449     6.0000    -0.0449     3.9812     3.9812     0.0000
  7 N      7.3372     7.0000    -0.3372     3.4442     3.4442    -0.0000
  8 C      5.7851     6.0000     0.2149     3.8192     3.8192    -0.0000
  9 N      7.5645     7.0000    -0.5645     3.0870     3.0870     0.0000
 10 C      5.8900     6.0000     0.1100     3.8819     3.8819     0.0000
 11 N      7.4379     7.0000    -0.4379     3.3825     3.3825    -0.0000
 12 C      6.0649     6.0000    -0.0649     3.9138     3.9138     0.0000
 13 N      7.4447     7.0000    -0.4447     3.3531     3.3531    -0.0000
 14 C      5.7651     6.0000     0.2349     3.7986     3.7986    -0.0000
 15 N      7.4406     7.0000    -0.4406     3.3709     3.3709    -0.0000
 16 C      5.7576     6.0000     0.2424     3.7990     3.7990    -0.0000
 17 C      6.0504     6.0000    -0.0504     3.9843     3.9843    -0.0000
 18 C      6.2016     6.0000    -0.2016     3.7243     3.7243     0.0000
 19 C      5.7617     6.0000     0.2383     3.8817     3.8817    -0.0000
 20 C      5.7987     6.0000     0.2013     3.8233     3.8233    -0.0000
 21 C      6.0769     6.0000    -0.0769     3.9021     3.9021     0.0000
 22 C      6.0866     6.0000    -0.0866     3.9850     3.9850     0.0000
 23 C      6.0559     6.0000    -0.0559     3.9888     3.9888    -0.0000
 24 C      5.7883     6.0000     0.2117     3.8257     3.8257     0.0000
 25 C      5.8860     6.0000     0.1140     3.8906     3.8906    -0.0000
 26 C      6.0704     6.0000    -0.0704     3.9068     3.9068     0.0000
 27 C      5.7665     6.0000     0.2335     3.8938     3.8938    -0.0000
 28 C      6.0470     6.0000    -0.0470     3.9880     3.9880     0.0000
 29 C      6.1912     6.0000    -0.1912     3.7293     3.7293     0.0000
 30 C      5.7703     6.0000     0.2297     3.7885     3.7885     0.0000
 31 C      5.7997     6.0000     0.2003     3.8301     3.8301     0.0000
 32 C      6.0666     6.0000    -0.0666     3.9145     3.9145    -0.0000
 33 C      6.0907     6.0000    -0.0907     3.9861     3.9861     0.0000
 34 C      6.0510     6.0000    -0.0510     3.9953     3.9953     0.0000
 35 C      5.8063     6.0000     0.1937     3.8279     3.8279    -0.0000
 36 C      5.8829     6.0000     0.1171     3.8997     3.8997    -0.0000
 37 C      6.0683     6.0000    -0.0683     3.9166     3.9166    -0.0000
 38 C      5.7607     6.0000     0.2393     3.7968     3.7968    -0.0000
 39 C      6.0625     6.0000    -0.0625     3.9947     3.9947     0.0000
 40 C      6.1960     6.0000    -0.1960     3.7462     3.7462     0.0000
 41 C      5.7800     6.0000     0.2200     3.8790     3.8790     0.0000
 42 C      5.7921     6.0000     0.2079     3.8293     3.8293    -0.0000
 43 C      6.0746     6.0000    -0.0746     3.9045     3.9045     0.0000
 44 C      6.0890     6.0000    -0.0890     3.9844     3.9844    -0.0000
 45 C      6.0464     6.0000    -0.0464     3.9941     3.9941     0.0000
 46 C      5.8034     6.0000     0.1966     3.8232     3.8232    -0.0000
 47 C      5.8842     6.0000     0.1158     3.8943     3.8943     0.0000
 48 C      6.0773     6.0000    -0.0773     3.9012     3.9012    -0.0000
 49 C      5.7810     6.0000     0.2190     3.8759     3.8759     0.0000
 50 C      6.0585     6.0000    -0.0585     3.9899     3.9899    -0.0000
 51 C      6.1886     6.0000    -0.1886     3.7382     3.7382    -0.0000
 52 H      0.9353     1.0000     0.0647     0.9840     0.9840    -0.0000
 53 H      1.0116     1.0000    -0.0116     1.0002     1.0002     0.0000
 54 H      0.9460     1.0000     0.0540     1.0079     1.0079     0.0000
 55 H      0.9365     1.0000     0.0635     0.9850     0.9850    -0.0000
 56 H      0.9312     1.0000     0.0688     0.9721     0.9721    -0.0000
 57 H      0.9357     1.0000     0.0643     0.9845     0.9845     0.0000
 58 H      0.9373     1.0000     0.0627     0.9858     0.9858     0.0000
 59 H      1.0191     1.0000    -0.0191     0.9976     0.9976     0.0000
 60 H      0.9480     1.0000     0.0520     1.0068     1.0068    -0.0000
 61 H      0.8253     1.0000     0.1747     1.0430     1.0430     0.0000
 62 H      0.8293     1.0000     0.1707     1.0433     1.0433    -0.0000
 63 H      0.9442     1.0000     0.0558     0.9857     0.9857    -0.0000
 64 H      1.0254     1.0000    -0.0254     0.9944     0.9944    -0.0000
 65 H      0.9544     1.0000     0.0456     1.0084     1.0084    -0.0000
 66 H      0.9426     1.0000     0.0574     0.9848     0.9848     0.0000
 67 H      0.9385     1.0000     0.0615     0.9718     0.9718    -0.0000
 68 H      0.9422     1.0000     0.0578     0.9866     0.9866    -0.0000
 69 H      0.9406     1.0000     0.0594     0.9830     0.9830     0.0000
 70 H      1.0208     1.0000    -0.0208     0.9958     0.9958     0.0000
 71 H      0.9520     1.0000     0.0480     1.0071     1.0071     0.0000
 72 H      0.9518     1.0000     0.0482     0.9855     0.9855     0.0000
 73 H      1.0173     1.0000    -0.0173     0.9975     0.9975    -0.0000
 74 H      0.9608     1.0000     0.0392     1.0095     1.0095     0.0000
 75 H      0.9528     1.0000     0.0472     0.9861     0.9861    -0.0000
 76 H      0.9449     1.0000     0.0551     0.9710     0.9710     0.0000
 77 H      0.9471     1.0000     0.0529     0.9847     0.9847    -0.0000
 78 H      0.9478     1.0000     0.0522     0.9842     0.9842    -0.0000
 79 H      1.0132     1.0000    -0.0132     1.0004     1.0004     0.0000
 80 H      0.9606     1.0000     0.0394     1.0068     1.0068    -0.0000
 81 H      0.9472     1.0000     0.0528     0.9853     0.9853     0.0000
 82 H      1.0227     1.0000    -0.0227     0.9948     0.9948     0.0000
 83 H      0.9562     1.0000     0.0438     1.0099     1.0099    -0.0000
 84 H      0.9476     1.0000     0.0524     0.9858     0.9858    -0.0000
 85 H      0.9422     1.0000     0.0578     0.9715     0.9715     0.0000
 86 H      0.9432     1.0000     0.0568     0.9841     0.9841    -0.0000
 87 H      0.9438     1.0000     0.0562     0.9854     0.9854     0.0000
 88 H      1.0254     1.0000    -0.0254     0.9930     0.9930    -0.0000
 89 H      0.9574     1.0000     0.0426     1.0067     1.0067    -0.0000

  Mayer bond orders larger than 0.100000
B(  0-C ,  1-N ) :   1.1448 B(  0-C , 17-C ) :   1.5968 B(  0-C , 52-H ) :   0.9688 
B(  1-N ,  8-C ) :   1.1397 B(  1-N , 10-C ) :   0.9498 B(  2-C , 12-C ) :   1.5498 
B(  2-C , 16-C ) :   1.3078 B(  2-C , 53-H ) :   0.9783 B(  3-N , 14-C ) :   1.1920 
B(  3-N , 16-C ) :   1.1993 B(  3-N , 61-H ) :   0.8971 B(  4-C ,  6-C ) :   1.2975 
B(  4-C , 17-C ) :   1.2992 B(  4-C , 18-C ) :   1.1887 B(  5-N , 19-C ) :   1.3966 
B(  5-N , 27-C ) :   1.4230 B(  6-C ,  8-C ) :   1.5979 B(  6-C , 54-H ) :   0.9711 
B(  7-N , 30-C ) :   1.1912 B(  7-N , 38-C ) :   1.2067 B(  7-N , 62-H ) :   0.8996 
B(  8-C , 55-H ) :   0.9692 B(  9-N , 41-C ) :   1.4206 B(  9-N , 49-C ) :   1.4045 
B( 10-C , 56-H ) :   0.9763 B( 10-C , 57-H ) :   0.9814 B( 10-C , 58-H ) :   0.9830 
B( 11-N , 20-C ) :   1.1164 B( 11-N , 24-C ) :   1.1298 B( 11-N , 25-C ) :   0.9587 
B( 12-C , 14-C ) :   1.3076 B( 12-C , 59-H ) :   0.9774 B( 13-N , 31-C ) :   1.1055 
B( 13-N , 35-C ) :   1.0985 B( 13-N , 36-C ) :   0.9691 B( 14-C , 18-C ) :   1.2186 
B( 15-N , 42-C ) :   1.1217 B( 15-N , 46-C ) :   1.1064 B( 15-N , 47-C ) :   0.9629 
B( 16-C , 51-C ) :   1.2141 B( 17-C , 60-H ) :   0.9717 B( 18-C , 19-C ) :   1.2516 
B( 19-C , 21-C ) :   1.1920 B( 20-C , 28-C ) :   1.6233 B( 20-C , 63-H ) :   0.9704 
B( 21-C , 26-C ) :   1.6573 B( 21-C , 64-H ) :   0.9723 B( 22-C , 23-C ) :   1.2747 
B( 22-C , 28-C ) :   1.2782 B( 22-C , 29-C ) :   1.2398 B( 23-C , 24-C ) :   1.6225 
B( 23-C , 65-H ) :   0.9714 B( 24-C , 66-H ) :   0.9690 B( 25-C , 67-H ) :   0.9763 
B( 25-C , 68-H ) :   0.9831 B( 25-C , 69-H ) :   0.9820 B( 26-C , 27-C ) :   1.1956 
B( 26-C , 70-H ) :   0.9741 B( 27-C , 29-C ) :   1.2353 B( 28-C , 71-H ) :   0.9712 
B( 29-C , 30-C ) :   1.1939 B( 30-C , 32-C ) :   1.3308 B( 31-C , 39-C ) :   1.6525 
B( 31-C , 72-H ) :   0.9702 B( 32-C , 37-C ) :   1.5274 B( 32-C , 73-H ) :   0.9774 
B( 33-C , 34-C ) :   1.2571 B( 33-C , 39-C ) :   1.2507 B( 33-C , 40-C ) :   1.2928 
B( 34-C , 35-C ) :   1.6503 B( 34-C , 74-H ) :   0.9708 B( 35-C , 75-H ) :   0.9702 
B( 36-C , 76-H ) :   0.9760 B( 36-C , 77-H ) :   0.9823 B( 36-C , 78-H ) :   0.9834 
B( 37-C , 38-C ) :   1.3301 B( 37-C , 79-H ) :   0.9783 B( 38-C , 40-C ) :   1.1935 
B( 39-C , 80-H ) :   0.9718 B( 40-C , 41-C ) :   1.1997 B( 41-C , 43-C ) :   1.2283 
B( 42-C , 50-C ) :   1.6347 B( 42-C , 81-H ) :   0.9696 B( 43-C , 48-C ) :   1.6232 
B( 43-C , 82-H ) :   0.9746 B( 44-C , 45-C ) :   1.2767 B( 44-C , 50-C ) :   1.2617 
B( 44-C , 51-C ) :   1.2494 B( 45-C , 46-C ) :   1.6305 B( 45-C , 83-H ) :   0.9708 
B( 46-C , 84-H ) :   0.9704 B( 47-C , 85-H ) :   0.9761 B( 47-C , 86-H ) :   0.9827 
B( 47-C , 87-H ) :   0.9827 B( 48-C , 49-C ) :   1.2255 B( 48-C , 88-H ) :   0.9733 
B( 49-C , 51-C ) :   1.2124 B( 50-C , 89-H ) :   0.9717 

-------
TIMINGS
-------

Total SCF time: 0 days 0 hours 31 min 56 sec 

Total time                  ....    1916.115 sec
Sum of individual times     ....    1911.479 sec  ( 99.8%)

Fock matrix formation       ....    1887.314 sec  ( 98.5%)
Diagonalization             ....       6.887 sec  (  0.4%)
Density matrix formation    ....       0.715 sec  (  0.0%)
Population analysis         ....       0.528 sec  (  0.0%)
Initial guess               ....       2.041 sec  (  0.1%)
Orbital Transformation      ....       0.000 sec  (  0.0%)
Orbital Orthonormalization  ....       0.000 sec  (  0.0%)
DIIS solution               ....       3.510 sec  (  0.2%)
SOSCF solution              ....       9.435 sec  (  0.5%)

Maximum memory used throughout the entire SCF-calculation: 302.5 MB


           ************************************************************
           *        Program running with 16 parallel MPI-processes    *
           *              working on a common directory               *
           ************************************************************

------------------------------------------------------------------------------
                                ORCA  MP2 
------------------------------------------------------------------------------

Freezing NCore=104 chemical core electrons

----------
MP2 ENERGY (disk based algorithm)
----------

Dimension of the basis                    ...  918
Memory devoted to MP2                     ... 2000 MB   
Data format for buffers                   ... DOUBLE
Compression type for matrix containers    ... UNCOMPRESSED

-------------------------------
PARTIAL EXCHANGE TRANSFORMATION
-------------------------------

Transformation type                        ... one-operator
Generation of integrals (i,mue|j,nue)      ... ON
Generation of integrals (mue,kappa|nue,tau)... OFF
Generation of integrals (i,mue|a,nue)      ... OFF
Dimension of the basis                     ...  918
Number of internal MOs                     ...  127 (  52- 178)
Pair cutoff                                ... 2.500e-12 Eh
Number of AO pairs in the trafo            ... 421821
Total Number of distinct AO pairs          ... 421821
Memory devoted for trafo                   ... 2000.0 MB 
Max. Number of MO pairs treated together   ...  311      
Number Format for Storage                  ... Double (8 Byte)
Integral package used                      ... LIBINT

Starting integral evaluation:
    ... done with AO integral generation
Closing buffer AOK     (38.08 GB; CompressionRatio= 1.33)
Collecting buffer AOK 
Number of MO pairs included in the trafo   ... 8128
------------------------
SORTING OF (i,mue|j,nue)
------------------------

IBATCH = 1 of  2
IBATCH = 2 of  2
Closing buffer KAO     (51.03 GB; CompressionRatio= 1.00)
Collecting buffer KAO 
N(AO-Batches) Done                         ...  85482654 
N(AO-Batches) Skipped                      ...  82193318 
N(IJ)-pairs Skipped                        ...         0 
TOTAL TIME for half transformation         ...  3248.416 sec
AO-integral generation                     ...   209.822 sec
Half transformation                        ...   372.304 sec
K-integral sorting                         ...  2477.415 sec
Process 10:   Internal MO 132
Process  4:   Internal MO  84
Process 13:   Internal MO 156
Process  1:   Internal MO  60
Process  7:   Internal MO 108

Finished integral transformation - now doing MP2 part

OPERATOR COMBINATION   0   0: ij=( 52..178, 52..178)
Process  0:   Internal MO  54
Process  2:   Internal MO  69
Process  0:   Internal MO  57
Process  5:   Internal MO  93
Process  8:   Internal MO 117
Process  2:   Internal MO  72
Process  1:   Internal MO  63
Process  3:   Internal MO  78
Process  6:   Internal MO 102
Process 14:   Internal MO 165
Process 11:   Internal MO 141
Process  4:   Internal MO  87
Process  1:   Internal MO  66
Process  2:   Internal MO  75
Process  9:   Internal MO 126
Process  7:   Internal MO 111
Process  3:   Internal MO  81
Process  5:   Internal MO  96
Process 12:   Internal MO 150
Process  4:   Internal MO  90
Process 15:   Internal MO 174
Process 10:   Internal MO 135
Process  6:   Internal MO 105
Process  8:   Internal MO 120
Process  5:   Internal MO  99
Process  9:   Internal MO 129
Process  7:   Internal MO 114
Process 11:   Internal MO 144
Process 13:   Internal MO 159
Process 14:   Internal MO 168
Process  8:   Internal MO 123
Process 10:   Internal MO 138
Process 12:   Internal MO 153
Process 15:   Internal MO 177
Process 11:   Internal MO 147
Process 13:   Internal MO 162
Process 14:   Internal MO 171
-----------------------------------------------
 MP2 CORRELATION ENERGY   :     -7.287310022 Eh
-----------------------------------------------


-------
TIMINGS
-------
Total time                : 3808.750 sec
Integral trafo            : 3250.665 sec ( 85.3%)
K(i,j)                    :    5.872 sec (  0.2%)
T(i,j)                    :    0.079 sec (  0.0%)

---------------------------------------
MP2 TOTAL ENERGY:    -2130.904248467 Eh
---------------------------------------

Maximum memory used throughout the entire MP2-calculation: 2275.2 MB

-------------------------   --------------------
FINAL SINGLE POINT ENERGY     -2130.904248467074
-------------------------   --------------------


                            ***************************************
                            *     ORCA property calculations      *
                            ***************************************


  WARNING: The energy has been calculated at the MP2 level but the densities
           used in the property calculations are still SCF densities
           MP2 response densities have not been calculated 
           use %mp2 Density relaxed end
           or  %mp2 Density unrelaxed end

                                    ---------------------
                                    Active property flags
                                    ---------------------
   (+) Dipole Moment


------------------------------------------------------------------------------
                       ORCA ELECTRIC PROPERTIES CALCULATION
------------------------------------------------------------------------------

Dipole Moment Calculation                       ... on
Quadrupole Moment Calculation                   ... off
Polarizability Calculation                      ... off
GBWName                                         ... /scratch/allen/tmpyp4_amber_gaff2/conf1/conf1/Conf70.orca.gbw
Electron density                                ... /scratch/allen/tmpyp4_amber_gaff2/conf1/conf1/Conf70.orca.scfp
The origin for moment calculation is the CENTER OF MASS  = ( 0.000838, -0.003572  0.004109)

-------------
DIPOLE MOMENT
-------------
                                X             Y             Z
Electronic contribution:     -1.80611       1.55709      -0.14733
Nuclear contribution   :     -0.04292       0.15645       0.18615
                        -----------------------------------------
Total Dipole Moment    :     -1.84903       1.71354       0.03882
                        -----------------------------------------
Magnitude (a.u.)       :      2.52124
Magnitude (Debye)      :      6.40848



--------------------
Rotational spectrum 
--------------------
 
Rotational constants in cm-1:     0.001499     0.001473     0.000762 
Rotational constants in MHz :    44.925435    44.162476    22.855687 

 Dipole components along the rotational axes: 
x,y,z [a.u.] :    -2.336737    -0.946111     0.034284 
x,y,z [Debye]:    -5.939513    -2.404822     0.087143 

 

Timings for individual modules:

Sum of individual times         ...     5749.663 sec (=  95.828 min)
GTO integral calculation        ...        3.257 sec (=   0.054 min)   0.1 %
SCF iterations                  ...     1917.190 sec (=  31.953 min)  33.3 %
MP2 module                      ...     3829.216 sec (=  63.820 min)  66.6 %
                             ****ORCA TERMINATED NORMALLY****
TOTAL RUN TIME: 0 days 1 hours 35 minutes 53 seconds 21 msec
# of primitive gaussian functions

