
                                 *****************
                                 * O   R   C   A *
                                 *****************

                                            #,                                       
                                            ###                                      
                                            ####                                     
                                            #####                                    
                                            ######                                   
                                           ########,                                 
                                     ,,################,,,,,                         
                               ,,#################################,,                 
                          ,,##########################################,,             
                       ,#########################################, ''#####,          
                    ,#############################################,,   '####,        
                  ,##################################################,,,,####,       
                ,###########''''           ''''###############################       
              ,#####''   ,,,,##########,,,,          '''####'''          '####       
            ,##' ,,,,###########################,,,                        '##       
           ' ,,###''''                  '''############,,,                           
         ,,##''                                '''############,,,,        ,,,,,,###''
      ,#''                                            '''#######################'''  
     '                                                          ''''####''''         
             ,#######,   #######,   ,#######,      ##                                
            ,#'     '#,  ##    ##  ,#'     '#,    #''#        ######   ,####,        
            ##       ##  ##   ,#'  ##            #'  '#       #        #'  '#        
            ##       ##  #######   ##           ,######,      #####,   #    #        
            '#,     ,#'  ##    ##  '#,     ,#' ,#      #,         ##   #,  ,#        
             '#######'   ##     ##  '#######'  #'      '#     #####' # '####'        



                  #######################################################
                  #                        -***-                        #
                  #          Department of theory and spectroscopy      #
                  #    Directorship and core code : Frank Neese         #
                  #        Max Planck Institute fuer Kohlenforschung    #
                  #                Kaiser Wilhelm Platz 1               #
                  #                 D-45470 Muelheim/Ruhr               #
                  #                      Germany                        #
                  #                                                     #
                  #                  All rights reserved                #
                  #                        -***-                        #
                  #######################################################


                         Program Version 5.0.4 -  RELEASE  -


 With contributions from (in alphabetic order):
   Daniel Aravena         : Magnetic Suceptibility
   Michael Atanasov       : Ab Initio Ligand Field Theory (pilot matlab implementation)
   Alexander A. Auer      : GIAO ZORA, VPT2 properties, NMR spectrum
   Ute Becker             : Parallelization
   Giovanni Bistoni       : ED, misc. LED, open-shell LED, HFLD
   Martin Brehm           : Molecular dynamics
   Dmytro Bykov           : SCF Hessian
   Vijay G. Chilkuri      : MRCI spin determinant printing, contributions to CSF-ICE
   Dipayan Datta          : RHF DLPNO-CCSD density
   Achintya Kumar Dutta   : EOM-CC, STEOM-CC
   Dmitry Ganyushin       : Spin-Orbit,Spin-Spin,Magnetic field MRCI
   Miquel Garcia          : C-PCM and meta-GGA Hessian, CC/C-PCM, Gaussian charge scheme
   Yang Guo               : DLPNO-NEVPT2, F12-NEVPT2, CIM, IAO-localization
   Andreas Hansen         : Spin unrestricted coupled pair/coupled cluster methods
   Benjamin Helmich-Paris : MC-RPA, TRAH-SCF, COSX integrals
   Lee Huntington         : MR-EOM, pCC
   Robert Izsak           : Overlap fitted RIJCOSX, COSX-SCS-MP3, EOM
   Marcus Kettner         : VPT2
   Christian Kollmar      : KDIIS, OOCD, Brueckner-CCSD(T), CCSD density, CASPT2, CASPT2-K
   Simone Kossmann        : Meta GGA functionals, TD-DFT gradient, OOMP2, MP2 Hessian
   Martin Krupicka        : Initial AUTO-CI
   Lucas Lang             : DCDCAS
   Marvin Lechner         : AUTO-CI (C++ implementation), FIC-MRCC
   Dagmar Lenk            : GEPOL surface, SMD
   Dimitrios Liakos       : Extrapolation schemes; Compound Job, initial MDCI parallelization
   Dimitrios Manganas     : Further ROCIS development; embedding schemes
   Dimitrios Pantazis     : SARC Basis sets
   Anastasios Papadopoulos: AUTO-CI, single reference methods and gradients
   Taras Petrenko         : DFT Hessian,TD-DFT gradient, ASA, ECA, R-Raman, ABS, FL, XAS/XES, NRVS
   Peter Pinski           : DLPNO-MP2, DLPNO-MP2 Gradient
   Christoph Reimann      : Effective Core Potentials
   Marius Retegan         : Local ZFS, SOC
   Christoph Riplinger    : Optimizer, TS searches, QM/MM, DLPNO-CCSD(T), (RO)-DLPNO pert. Triples
   Tobias Risthaus        : Range-separated hybrids, TD-DFT gradient, RPA, STAB
   Michael Roemelt        : Original ROCIS implementation
   Masaaki Saitow         : Open-shell DLPNO-CCSD energy and density
   Barbara Sandhoefer     : DKH picture change effects
   Avijit Sen             : IP-ROCIS
   Kantharuban Sivalingam : CASSCF convergence, NEVPT2, FIC-MRCI
   Bernardo de Souza      : ESD, SOC TD-DFT
   Georgi Stoychev        : AutoAux, RI-MP2 NMR, DLPNO-MP2 response
   Willem Van den Heuvel  : Paramagnetic NMR
   Boris Wezisla          : Elementary symmetry handling
   Frank Wennmohs         : Technical directorship


 We gratefully acknowledge several colleagues who have allowed us to
 interface, adapt or use parts of their codes:
   Stefan Grimme, W. Hujo, H. Kruse, P. Pracht,  : VdW corrections, initial TS optimization,
                  C. Bannwarth, S. Ehlert          DFT functionals, gCP, sTDA/sTD-DF
   Ed Valeev, F. Pavosevic, A. Kumar             : LibInt (2-el integral package), F12 methods
   Garnet Chan, S. Sharma, J. Yang, R. Olivares  : DMRG
   Ulf Ekstrom                                   : XCFun DFT Library
   Mihaly Kallay                                 : mrcc  (arbitrary order and MRCC methods)
   Jiri Pittner, Ondrej Demel                    : Mk-CCSD
   Frank Weinhold                                : gennbo (NPA and NBO analysis)
   Christopher J. Cramer and Donald G. Truhlar   : smd solvation model
   Lars Goerigk                                  : TD-DFT with DH, B97 family of functionals
   V. Asgeirsson, H. Jonsson                     : NEB implementation
   FAccTs GmbH                                   : IRC, NEB, NEB-TS, DLPNO-Multilevel, CI-OPT
                                                   MM, QMMM, 2- and 3-layer-ONIOM, Crystal-QMMM,
                                                   LR-CPCM, SF, NACMEs, symmetry and pop. for TD-DFT,
                                                   nearIR, NL-DFT gradient (VV10), updates on ESD,
                                                   ML-optimized integration grids
   S Lehtola, MJT Oliveira, MAL Marques          : LibXC Library
   Liviu Ungur et al                             : ANISO software


 Your calculation uses the libint2 library for the computation of 2-el integrals
 For citations please refer to: http://libint.valeyev.net

 Your ORCA version has been built with support for libXC version: 5.1.0
 For citations please refer to: https://tddft.org/programs/libxc/

 This ORCA versions uses:
   CBLAS   interface :  Fast vector & matrix operations
   LAPACKE interface :  Fast linear algebra routines
   SCALAPACK package :  Parallel linear algebra routines
   Shared memory     :  Shared parallel matrices
   BLAS/LAPACK       :  OpenBLAS 0.3.15  USE64BITINT DYNAMIC_ARCH NO_AFFINITY Sandybridge SINGLE_THREADED
        Core in use  :  Sandybridge
   Copyright (c) 2011-2014, The OpenBLAS Project


================================================================================

----- Orbital basis set information -----
Your calculation utilizes the basis: cc-pVDZ 
       H, B-Ne : Obtained from the ccRepo (grant-hill.group.shef.ac.uk/ccrepo) Feb. 2017
                 T. H. Dunning, Jr., J. Chem. Phys. 90, 1007 (1989)
            He : Obtained from the ccRepo (grant-hill.group.shef.ac.uk/ccrepo) Feb. 2017
                 D. E. Woon, T. H. Dunning, Jr., J. Chem. Phys. 100, 2975 (1994)
  Li-Be, Na-Mg : Obtained from the ccRepo (grant-hill.group.shef.ac.uk/ccrepo) Feb. 2017
                 B. P. Prascher, D. E. Woon, K. A. Peterson, T. H. Dunning, Jr., A. K. Wilson, Theor. Chem. Acc. 128, 69 (2011)
         Al-Ar : Obtained from the ccRepo (grant-hill.group.shef.ac.uk/ccrepo) Feb. 2017
                 D. E. Woon, T. H. Dunning, Jr., J. Chem. Phys. 98, 1358 (1993)
            Ca : Obtained from the Peterson Research Group Website (tyr0.chem.wsu.edu/~kipeters) Feb. 2017
                 J. Koput, K. A. Peterson, J. Phys. Chem. 106, 9595 (2002)
         Sc-Zn : Obtained from the ccRepo (grant-hill.group.shef.ac.uk/ccrepo) Feb. 2017
                 N. B. Balabanov, K. A. Peterson, J. Chem. Phys. 123, 064107 (2005)
                 N. B. Balabanov, K. A. Peterson, J. Chem. Phys. 125, 074110 (2006)
         Ga-Kr : Obtained from the ccRepo (grant-hill.group.shef.ac.uk/ccrepo) Feb. 2017
                 A. K. Wilson, D. E. Woon, K. A. Peterson, T. H. Dunning, Jr., J. Chem. Phys. 110, 7667 (1999)

================================================================================
                                        WARNINGS
                       Please study these warnings very carefully!
================================================================================


WARNING: No MP2 level density has been requested!
         To caclulate MP2 level properties use
         %mp2 Density relaxed end
         or
         %mp2 Density unrelaxed end

WARNING: Post HF methods need fully converged wavefunctions
  ===> : Setting SCFConvForced true
         You can overwrite this default with %scf ConvForced false 


INFO   : the flag for use of the SHARK integral package has been found!

================================================================================
                                       INPUT FILE
================================================================================
NAME = /scratch/allen/tmpyp4_amber_gaff2/2.Mdgx/conf11/conf11/Conf259.orca
|  1> ! PAL2
|  2> ! mp2 cc-pvdz TightSCF  NoKeepInts
|  3> 
|  4> %scf
|  5>   MaxCore 2000
|  6> end
|  7> %mp2
|  8>   MaxCore 2000
|  9> end
| 10> * xyz 0 1
| 11>    C       -4.20900         5.66900         1.21600
| 12>    C        1.47400         4.04100         0.05700
| 13>    C       -2.80200         4.09300         0.04900
| 14>    C       -3.00000         4.85500        -1.11300
| 15>    C       -3.78600         5.98900        -1.07300
| 16>    C       -5.18600         7.62100         0.09700
| 17>    C        0.13200         4.30700         0.06100
| 18>    C       -0.56900         3.05600         0.04700
| 19>    C        1.64900         2.61800         0.02300
| 20>    C       -3.42700         4.53000         1.22700
| 21>    N       -4.38100         6.38000         0.07800
| 22>    N        0.38800         2.06700         0.02500
| 23>    N       -2.01000         0.39500        -0.07500
| 24>    N       -0.38800        -2.07400        -0.02700
| 25>    N        2.01000        -0.40100         0.06500
| 26>    C       -1.96000         2.86100         0.02400
| 27>    C       -2.62300         1.61500        -0.01800
| 28>    C       -5.57300        -4.32900         1.06600
| 29>    C       -4.07300         1.47100         0.05600
| 30>    C       -4.10600        -2.75600        -0.02600
| 31>    C       -4.99500        -2.75700        -1.11100
| 32>    C       -6.13200        -3.54200        -1.07600
| 33>    C       -7.65100        -5.11300         0.04000
| 34>    C       -4.32400         0.14100         0.03700
| 35>    C       -3.02500        -0.52000        -0.04800
| 36>    C       -4.42200        -3.56600         1.07500
| 37>    N       -6.40700        -4.31300         0.00100
| 38>    C       -2.86700        -1.92200        -0.04000
| 39>    C       -1.65000        -2.62400        -0.02700
| 40>    C        3.56800        -6.14200        -1.04000
| 41>    C       -1.47600        -4.04900        -0.03400
| 42>    C        2.80300        -4.09900        -0.00800
| 43>    C        3.65700        -4.38400         1.06900
| 44>    C        4.42700        -5.53000         1.05900
| 45>    C        5.24500        -7.58800         0.01400
| 46>    C       -0.13400        -4.31500        -0.02200
| 47>    C        0.56800        -3.06400        -0.02700
| 48>    C        2.77500        -5.01200        -1.07400
| 49>    N        4.37600        -6.39100         0.01700
| 50>    C        1.95900        -2.86900        -0.00900
| 51>    C        2.62100        -1.62200         0.00900
| 52>    C        5.54300         4.33900        -1.13000
| 53>    C        4.07000        -1.47900        -0.09400
| 54>    C        4.10400         2.75100        -0.02100
| 55>    C        5.02700         2.72900         1.03600
| 56>    C        6.16600         3.50900         0.97800
| 57>    C        7.61900         5.15300        -0.11500
| 58>    C        4.32100        -0.14800        -0.09200
| 59>    C        3.02500         0.51400         0.01500
| 60>    C        4.38700         3.58200        -1.11500
| 61>    C        2.86600         1.91600         0.01300
| 62>    N        6.41300         4.29600        -0.09500
| 63>    H       -4.72000         6.03500         2.09800
| 64>    H        2.27400         4.76600         0.08100
| 65>    H       -2.53700         4.57400        -2.05100
| 66>    H       -3.96100         6.61200        -1.94000
| 67>    H       -4.52400         8.47200         0.27200
| 68>    H       -5.68800         7.72800        -0.86500
| 69>    H       -5.92300         7.54900         0.89700
| 70>    H       -0.33200         5.28200         0.06900
| 71>    H       -3.32400         3.97700         2.15400
| 72>    H        0.18200         1.07200         0.00500
| 73>    H       -0.18300        -1.08000        -0.02100
| 74>    H       -5.86400        -4.96200         1.89500
| 75>    H       -4.79400         2.27200         0.13900
| 76>    H       -4.80000        -2.16000        -1.99400
| 77>    H       -6.84100        -3.58200        -1.89300
| 78>    H       -8.42800        -4.53600         0.54600
| 79>    H       -7.95600        -5.33700        -0.98100
| 80>    H       -7.45600        -6.03700         0.58400
| 81>    H       -5.28700        -0.34400         0.10000
| 82>    H       -3.78000        -3.60100         1.94700
| 83>    H        3.58700        -6.86800        -1.84300
| 84>    H       -2.27600        -4.77400        -0.05000
| 85>    H        3.71400        -3.72400         1.92600
| 86>    H        5.09200        -5.79500         1.87100
| 87>    H        6.20500        -7.32900        -0.43900
| 88>    H        5.39300        -7.91700         1.04200
| 89>    H        4.75900        -8.37300        -0.56400
| 90>    H        0.32900        -5.29000        -0.00800
| 91>    H        2.14600        -4.84200        -1.94000
| 92>    H        5.80800         4.98600        -1.95600
| 93>    H        4.78800        -2.28100        -0.18500
| 94>    H        4.86000         2.11400         1.91200
| 95>    H        6.90100         3.53100         1.77200
| 96>    H        7.38300         6.10900         0.35600
| 97>    H        8.41400         4.65200         0.43500
| 98>    H        7.92100         5.31000        -1.15000
| 99>    H        5.28300         0.33600        -0.17900
|100>    H        3.72000         3.63200        -1.96700
|101> *
|102> 
|103>                          ****END OF INPUT****
================================================================================

                       ****************************
                       * Single Point Calculation *
                       ****************************

---------------------------------
CARTESIAN COORDINATES (ANGSTROEM)
---------------------------------
  C     -4.209000    5.669000    1.216000
  C      1.474000    4.041000    0.057000
  C     -2.802000    4.093000    0.049000
  C     -3.000000    4.855000   -1.113000
  C     -3.786000    5.989000   -1.073000
  C     -5.186000    7.621000    0.097000
  C      0.132000    4.307000    0.061000
  C     -0.569000    3.056000    0.047000
  C      1.649000    2.618000    0.023000
  C     -3.427000    4.530000    1.227000
  N     -4.381000    6.380000    0.078000
  N      0.388000    2.067000    0.025000
  N     -2.010000    0.395000   -0.075000
  N     -0.388000   -2.074000   -0.027000
  N      2.010000   -0.401000    0.065000
  C     -1.960000    2.861000    0.024000
  C     -2.623000    1.615000   -0.018000
  C     -5.573000   -4.329000    1.066000
  C     -4.073000    1.471000    0.056000
  C     -4.106000   -2.756000   -0.026000
  C     -4.995000   -2.757000   -1.111000
  C     -6.132000   -3.542000   -1.076000
  C     -7.651000   -5.113000    0.040000
  C     -4.324000    0.141000    0.037000
  C     -3.025000   -0.520000   -0.048000
  C     -4.422000   -3.566000    1.075000
  N     -6.407000   -4.313000    0.001000
  C     -2.867000   -1.922000   -0.040000
  C     -1.650000   -2.624000   -0.027000
  C      3.568000   -6.142000   -1.040000
  C     -1.476000   -4.049000   -0.034000
  C      2.803000   -4.099000   -0.008000
  C      3.657000   -4.384000    1.069000
  C      4.427000   -5.530000    1.059000
  C      5.245000   -7.588000    0.014000
  C     -0.134000   -4.315000   -0.022000
  C      0.568000   -3.064000   -0.027000
  C      2.775000   -5.012000   -1.074000
  N      4.376000   -6.391000    0.017000
  C      1.959000   -2.869000   -0.009000
  C      2.621000   -1.622000    0.009000
  C      5.543000    4.339000   -1.130000
  C      4.070000   -1.479000   -0.094000
  C      4.104000    2.751000   -0.021000
  C      5.027000    2.729000    1.036000
  C      6.166000    3.509000    0.978000
  C      7.619000    5.153000   -0.115000
  C      4.321000   -0.148000   -0.092000
  C      3.025000    0.514000    0.015000
  C      4.387000    3.582000   -1.115000
  C      2.866000    1.916000    0.013000
  N      6.413000    4.296000   -0.095000
  H     -4.720000    6.035000    2.098000
  H      2.274000    4.766000    0.081000
  H     -2.537000    4.574000   -2.051000
  H     -3.961000    6.612000   -1.940000
  H     -4.524000    8.472000    0.272000
  H     -5.688000    7.728000   -0.865000
  H     -5.923000    7.549000    0.897000
  H     -0.332000    5.282000    0.069000
  H     -3.324000    3.977000    2.154000
  H      0.182000    1.072000    0.005000
  H     -0.183000   -1.080000   -0.021000
  H     -5.864000   -4.962000    1.895000
  H     -4.794000    2.272000    0.139000
  H     -4.800000   -2.160000   -1.994000
  H     -6.841000   -3.582000   -1.893000
  H     -8.428000   -4.536000    0.546000
  H     -7.956000   -5.337000   -0.981000
  H     -7.456000   -6.037000    0.584000
  H     -5.287000   -0.344000    0.100000
  H     -3.780000   -3.601000    1.947000
  H      3.587000   -6.868000   -1.843000
  H     -2.276000   -4.774000   -0.050000
  H      3.714000   -3.724000    1.926000
  H      5.092000   -5.795000    1.871000
  H      6.205000   -7.329000   -0.439000
  H      5.393000   -7.917000    1.042000
  H      4.759000   -8.373000   -0.564000
  H      0.329000   -5.290000   -0.008000
  H      2.146000   -4.842000   -1.940000
  H      5.808000    4.986000   -1.956000
  H      4.788000   -2.281000   -0.185000
  H      4.860000    2.114000    1.912000
  H      6.901000    3.531000    1.772000
  H      7.383000    6.109000    0.356000
  H      8.414000    4.652000    0.435000
  H      7.921000    5.310000   -1.150000
  H      5.283000    0.336000   -0.179000
  H      3.720000    3.632000   -1.967000

----------------------------
CARTESIAN COORDINATES (A.U.)
----------------------------
  NO LB      ZA    FRAG     MASS         X           Y           Z
   0 C     6.0000    0    12.011   -7.953857   10.712857    2.297907
   1 C     6.0000    0    12.011    2.785456    7.636383    0.107714
   2 C     6.0000    0    12.011   -5.295013    7.734649    0.092597
   3 C     6.0000    0    12.011   -5.669178    9.174620   -2.103265
   4 C     6.0000    0    12.011   -7.154503   11.317570   -2.027676
   5 C     6.0000    0    12.011   -9.800120   14.401603    0.183303
   6 C     6.0000    0    12.011    0.249444    8.139050    0.115273
   7 C     6.0000    0    12.011   -1.075254    5.775003    0.088817
   8 C     6.0000    0    12.011    3.116158    4.947303    0.043464
   9 C     6.0000    0    12.011   -6.476091    8.560459    2.318694
  10 N     7.0000    0    14.007   -8.278890   12.056453    0.147399
  11 N     7.0000    0    14.007    0.733214    3.906064    0.047243
  12 N     7.0000    0    14.007   -3.798350    0.746442   -0.141729
  13 N     7.0000    0    14.007   -0.733214   -3.919292   -0.051023
  14 N     7.0000    0    14.007    3.798350   -0.757780    0.122832
  15 C     6.0000    0    12.011   -3.703863    5.406506    0.045353
  16 C     6.0000    0    12.011   -4.956752    3.051908   -0.034015
  17 C     6.0000    0    12.011  -10.531444   -8.180624    2.014448
  18 C     6.0000    0    12.011   -7.696855    2.779787    0.105825
  19 C     6.0000    0    12.011   -7.759216   -5.208085   -0.049133
  20 C     6.0000    0    12.011   -9.439182   -5.209975   -2.099486
  21 C     6.0000    0    12.011  -11.587801   -6.693410   -2.033345
  22 C     6.0000    0    12.011  -14.458295   -9.662170    0.075589
  23 C     6.0000    0    12.011   -8.171176    0.266451    0.069920
  24 C     6.0000    0    12.011   -5.716422   -0.982658   -0.090707
  25 C     6.0000    0    12.011   -8.356369   -6.738763    2.031456
  26 N     7.0000    0    14.007  -12.107475   -8.150389    0.001890
  27 C     6.0000    0    12.011   -5.417845   -3.632054   -0.075589
  28 C     6.0000    0    12.011   -3.118048   -4.958641   -0.051023
  29 C     6.0000    0    12.011    6.742543  -11.606698   -1.965315
  30 C     6.0000    0    12.011   -2.789236   -7.651501   -0.064251
  31 C     6.0000    0    12.011    5.296902   -7.745987   -0.015118
  32 C     6.0000    0    12.011    6.910728   -8.284559    2.020117
  33 C     6.0000    0    12.011    8.365818  -10.450186    2.001220
  34 C     6.0000    0    12.011    9.911614  -14.339242    0.026456
  35 C     6.0000    0    12.011   -0.253223   -8.154168   -0.041574
  36 C     6.0000    0    12.011    1.073364   -5.790121   -0.051023
  37 C     6.0000    0    12.011    5.243990   -9.471307   -2.029566
  38 N     7.0000    0    14.007    8.269442  -12.077240    0.032125
  39 C     6.0000    0    12.011    3.701973   -5.421624   -0.017008
  40 C     6.0000    0    12.011    4.952972   -3.065136    0.017008
  41 C     6.0000    0    12.011   10.474752    8.199522   -2.135391
  42 C     6.0000    0    12.011    7.691185   -2.794905   -0.177634
  43 C     6.0000    0    12.011    7.755436    5.198637   -0.039684
  44 C     6.0000    0    12.011    9.499653    5.157063    1.957756
  45 C     6.0000    0    12.011   11.652051    6.631049    1.848152
  46 C     6.0000    0    12.011   14.397823    9.737759   -0.217319
  47 C     6.0000    0    12.011    8.165507   -0.279679   -0.173855
  48 C     6.0000    0    12.011    5.716422    0.971319    0.028346
  49 C     6.0000    0    12.011    8.290229    6.768999   -2.107045
  50 C     6.0000    0    12.011    5.415955    3.620715    0.024566
  51 N     7.0000    0    14.007   12.118814    8.118263   -0.179524
  52 H     1.0000    0     1.008   -8.919507   11.404497    3.964645
  53 H     1.0000    0     1.008    4.297237    9.006435    0.153068
  54 H     1.0000    0     1.008   -4.794235    8.643607   -3.875828
  55 H     1.0000    0     1.008   -7.485205   12.494869   -3.666069
  56 H     1.0000    0     1.008   -8.549121   16.009760    0.514006
  57 H     1.0000    0     1.008  -10.748762   14.603804   -1.634613
  58 H     1.0000    0     1.008  -11.192848   14.265543    1.695084
  59 H     1.0000    0     1.008   -0.627389    9.981533    0.130391
  60 H     1.0000    0     1.008   -6.281450    7.515441    4.070470
  61 H     1.0000    0     1.008    0.343930    2.025786    0.009449
  62 H     1.0000    0     1.008   -0.345820   -2.040904   -0.039684
  63 H     1.0000    0     1.008  -11.081354   -9.376821    3.581031
  64 H     1.0000    0     1.008   -9.059347    4.293458    0.262672
  65 H     1.0000    0     1.008   -9.070685   -4.081808   -3.768114
  66 H     1.0000    0     1.008  -12.927616   -6.768999   -3.577252
  67 H     1.0000    0     1.008  -15.926612   -8.571798    1.031790
  68 H     1.0000    0     1.008  -15.034661  -10.085468   -1.853821
  69 H     1.0000    0     1.008  -14.089798  -11.408277    1.103600
  70 H     1.0000    0     1.008   -9.990982   -0.650066    0.188973
  71 H     1.0000    0     1.008   -7.143165   -6.804904    3.679297
  72 H     1.0000    0     1.008    6.778448  -12.978639   -3.482765
  73 H     1.0000    0     1.008   -4.301017   -9.021553   -0.094486
  74 H     1.0000    0     1.008    7.018443   -7.037340    3.639613
  75 H     1.0000    0     1.008    9.622485  -10.950963    3.535678
  76 H     1.0000    0     1.008   11.725751  -13.849803   -0.829590
  77 H     1.0000    0     1.008   10.191293  -14.960962    1.969095
  78 H     1.0000    0     1.008    8.993207  -15.822677   -1.065806
  79 H     1.0000    0     1.008    0.621720   -9.996651   -0.015118
  80 H     1.0000    0     1.008    4.055352   -9.150054   -3.666069
  81 H     1.0000    0     1.008   10.975529    9.422175   -3.696304
  82 H     1.0000    0     1.008    9.048009   -4.310465   -0.349599
  83 H     1.0000    0     1.008    9.184069    3.994881    3.613156
  84 H     1.0000    0     1.008   13.041000    6.672623    3.348595
  85 H     1.0000    0     1.008   13.951848   11.544337    0.672743
  86 H     1.0000    0     1.008   15.900156    8.791006    0.822031
  87 H     1.0000    0     1.008   14.968521   10.034446   -2.173185
  88 H     1.0000    0     1.008    9.983423    0.634948   -0.338261
  89 H     1.0000    0     1.008    7.029781    6.863485   -3.717091

--------------------------------
INTERNAL COORDINATES (ANGSTROEM)
--------------------------------
 C      0   0   0     0.000000000000     0.00000000     0.00000000
 C      1   0   0     6.024130974672     0.00000000     0.00000000
 C      1   2   0     2.413568727010    34.97199642     0.00000000
 C      3   1   2     1.403599658022    87.91173384   260.89355619
 C      4   3   1     1.380344884440   120.15481661     0.11460909
 C      5   4   3     2.447922384390   152.52566797     1.63761356
 C      2   1   3     1.368114030335    11.91030025    30.81338581
 C      7   2   3     1.434084376876   108.05010202     0.84668783
 C      2   1   3     1.434123425651   112.81937680   321.36905642
 C      1   2   3     1.381653357395    40.95796596    49.18766733
 N      1   2   3     1.352829996711    95.74679810   277.20106518
 N      9   2   1     1.376127174356   106.58526707    10.97580394
 N     12   9   2     2.925062050624   168.53581413   171.12065651
 N     13  12   9     2.954513327098    91.55032014    11.12112580
 N     14  13  12     2.925371258490    88.43092389   359.84326247
 C      8   7   2     1.404790019896   127.24786865   181.11170171
 C     13  12   9     1.366535034311    81.72106996   188.00453233
 C     14  13  12     5.758810554272    80.56209567   166.76250791
 C     17  13  12     1.459010623676   111.08861209   183.82872609
 C     18  14  13     2.412235892279    27.27532823    36.33507194
 C     20  18  14     1.402692767501    87.95206320   148.94598259
 C     21  20  18     1.382106725257   120.14573887   359.70382047
 C     18  14  13     2.446510985056   144.15733107    82.80075377
 C     19  17  13     1.353610726908   106.29293361   359.75308708
 C     13  12   9     1.366813447402   172.21332906    33.46711076
 C     18  14  13     1.380960173213    15.08449437   309.23336894
 N     22  21  20     1.352773077792   120.73759875     0.27865223
 C     25  13  17     1.410897586645   125.60330303   182.37774668
 C     14  13  12     1.376642291955    80.24689249   177.85461986
 C     14  13  12     5.764089607215   164.51507311   312.20821879
 C     29  14  13     1.435600919476   106.58649366   178.76395472
 C     30  14  13     2.413316804732    27.10625047    82.12560436
 C     32  30  14     1.403734305344    87.90059683   149.76154742
 C     33  32  30     1.380694028378   120.14881443   359.74174632
 C     34  33  32     2.448777858443   152.49203239     2.45173620
 C     31  29  14     1.368160809262   108.16950133     0.70383075
 C     14  13  12     1.376239804685   169.26375223   353.09862627
 C     30  14  13     1.380907310430    14.68948582   353.70041132
 N     34  33  32     1.352658863128   120.85575621     0.19603406
 C     37  14  29     1.404717053360   126.01551127   180.90772073
 C     15  14  13     1.366491126938    81.61824056   183.09049352
 C      2   1   3     4.249062720177   159.74945992   127.67514215
 C     41  15  14     1.459677704153   111.05201287   175.08990246
 C     42   2   1     2.412953791518    41.78584867   168.97805111
 C     44  42   2     1.403446472082    87.95153797   233.97558675
 C     45  44  42     1.381696421071   120.11137308     0.19721020
 C     42   2   1     2.450019795838   135.97209175    79.29290021
 C     43  41  15     1.354461516618   106.26758155     0.30894352
 C     15  14  13     1.367461151185   171.87382904   332.35056460
 C     42   2   1     1.381886391857    32.59078432   217.83333030
 C      9   2   1     1.404988612053   126.98745415   191.98014147
 N     42   2   1     1.352765315936   113.57249190   107.02948941
 H      1   2   3     1.083051706984   133.87607682   141.09408380
 H      2   1   3     1.079907866440   120.87370781   152.85172126
 H      4   3   1     1.083131570955   121.05085405   179.59299345
 H      5   4   3     1.081870140082   122.81779965   179.49584359
 H      6   5   4     1.092277437284   104.44054282   100.09911272
 H      6   5   4     1.090365535039    84.66621998   209.52913900
 H      6   5   4     1.090116048868   133.89820367   322.34742382
 H      7   2  54     1.079807853278   126.66122480     1.30600390
 H     10   1   2     1.084318680094   118.75067404   121.50135685
 H     12   9   2     1.016297692608   125.29023241   180.00180175
 H     14  13  12     1.014936943854    44.97226959   359.42596618
 H     18  14  13     1.082871645210   128.03556573   234.20482432
 H     19  17  13     1.080893611786   126.41830519   178.11313280
 H     21  20  18     1.083569563987   121.05669627   180.67006309
 H     22  21  20     1.082483256222   122.73097286   180.59748951
 H     23  18  14     1.092105306278   103.92715769   234.93429879
 H     23  18  14     1.088871893291   134.19244188    12.25587044
 H     23  18  14     1.089833473518    84.85857450   125.45241208
 H     24  19  17     1.080075460327   127.28078426   178.44613241
 H     26  18  14     1.083408048706   118.76995697   244.94906660
 H     30  14  13     1.082703098730   127.99711412   279.66882698
 H     31  29  14     1.079759695488   125.22293469   180.92530585
 H     33  32  30     1.083188810873   121.01964473   180.74284758
 H     34  33  32     1.082494341787   122.70821597   180.59516895
 H     35  34  33     1.092652735319   105.73575241    97.19771933
 H     35  34  33     1.089462711615    84.05943581   206.43036958
 H     35  34  33     1.089268102902   133.08365142   318.50306270
 H     36  31  29     1.079439669458   126.61599965   178.98859863
 H     38  30  73     1.083742127999   118.77264435   359.90091293
 H     42   2   1     1.082178358682   119.31790784   323.66101986
 H     43  41  15     1.080281907652   126.36969097   182.06329380
 H     45  44  42     1.083277434455   121.10105945   179.58025624
 H     46  45  44     1.082194529648   122.72144639   179.46906377
 H     47  42   2     1.091546151109   106.65128841   315.16475048
 H     47  42   2     1.088818625851   132.46019523    94.52397119
 H     47  42   2     1.089531091801    83.63838232   206.04504406
 H     48  43  41     1.080402239909   127.23657387   181.62955349
 H     50  42   2     1.083186502870   118.77001737    94.71359229

---------------------------
INTERNAL COORDINATES (A.U.)
---------------------------
 C      0   0   0     0.000000000000     0.00000000     0.00000000
 C      1   0   0    11.383957737002     0.00000000     0.00000000
 C      1   2   0     4.560983899446    34.97199642     0.00000000
 C      3   1   2     2.652418955327    87.91173384   260.89355619
 C      4   3   1     2.608473801951   120.15481661     0.11460909
 C      5   4   3     4.625902903594   152.52566797     1.63761356
 C      2   1   3     2.585360837309    11.91030025    30.81338581
 C      7   2   3     2.710026725231   108.05010202     0.84668783
 C      2   1   3     2.710100516721   112.81937680   321.36905642
 C      1   2   3     2.610946457489    40.95796596    49.18766733
 N      1   2   3     2.556478199537    95.74679810   277.20106518
 N      9   2   1     2.600503484979   106.58526707    10.97580394
 N     12   9   2     5.527566200405   168.53581413   171.12065651
 N     13  12   9     5.583221047236    91.55032014    11.12112580
 N     14  13  12     5.528150518591    88.43092389   359.84326247
 C      8   7   2     2.654668413270   127.24786865   181.11170171
 C     13  12   9     2.582376967257    81.72106996   188.00453233
 C     14  13  12    10.882574804710    80.56209567   166.76250791
 C     17  13  12     2.757130505230   111.08861209   183.82872609
 C     18  14  13     4.558465206823    27.27532823    36.33507194
 C     20  18  14     2.650705180609    87.95206320   148.94598259
 C     21  20  18     2.611803198586   120.14573887   359.70382047
 C     18  14  13     4.623235745386   144.15733107    82.80075377
 C     19  17  13     2.557953565794   106.29293361   359.75308708
 C     13  12   9     2.582903091751   172.21332906    33.46711076
 C     18  14  13     2.609636529225    15.08449437   309.23336894
 N     22  21  20     2.556370638369   120.73759875     0.27865223
 C     25  13  17     2.666210041769   125.60330303   182.37774668
 C     14  13  12     2.601476916169    80.24689249   177.85461986
 C     14  13  12    10.892550769017   164.51507311   312.20821879
 C     29  14  13     2.712892575415   106.58649366   178.76395472
 C     30  14  13     4.560507835333    27.10625047    82.12560436
 C     32  30  14     2.652673401891    87.90059683   149.76154742
 C     33  32  30     2.609133588376   120.14881443   359.74174632
 C     34  33  32     4.627519515267   152.49203239     2.45173620
 C     31  29  14     2.585449236669   108.16950133     0.70383075
 C     14  13  12     2.600716325456   169.26375223   353.09862627
 C     30  14  13     2.609536633043    14.68948582   353.70041132
 N     34  33  32     2.556154803934   120.85575621     0.19603406
 C     37  14  29     2.654530526499   126.01551127   180.90772073
 C     15  14  13     2.582293994346    81.61824056   183.09049352
 C      2   1   3     8.029564866989   159.74945992   127.67514215
 C     41  15  14     2.758391104639   111.05201287   175.08990246
 C     42   2   1     4.559821839776    41.78584867   168.97805111
 C     44  42   2     2.652129475853    87.95153797   233.97558675
 C     45  44  42     2.611027836043   120.11137308     0.19721020
 C     42   2   1     4.629866436820   135.97209175    79.29290021
 C     43  41  15     2.559561325344   106.26758155     0.30894352
 C     15  14  13     2.584127074516   171.87382904   332.35056460
 C     42   2   1     2.611386828803    32.59078432   217.83333030
 C      9   2   1     2.655043698059   126.98745415   191.98014147
 N     42   2   1     2.556355970587   113.57249190   107.02948941
 H      1   2   3     2.046671115075   133.87607682   141.09408380
 H      2   1   3     2.040730117440   120.87370781   152.85172126
 H      4   3   1     2.046822036109   121.05085405   179.59299345
 H      5   4   3     2.044438277221   122.81779965   179.49584359
 H      6   5   4     2.064105218728   104.44054282   100.09911272
 H      6   5   4     2.060492247089    84.66621998   209.52913900
 H      6   5   4     2.060020786553   133.89820367   322.34742382
 H      7   2  54     2.040541119952   126.66122480     1.30600390
 H     10   1   2     2.049065347272   118.75067404   121.50135685
 H     12   9   2     1.920524309565   125.29023241   180.00180175
 H     14  13  12     1.917952867083    44.97226959   359.42596618
 H     18  14  13     2.046330847636   128.03556573   234.20482432
 H     19  17  13     2.042592906181   126.41830519   178.11313280
 H     21  20  18     2.047649722989   121.05669627   180.67006309
 H     22  21  20     2.045596898814   122.73097286   180.59748951
 H     23  18  14     2.063779938267   103.92715769   234.93429879
 H     23  18  14     2.057669673245   134.19244188    12.25587044
 H     23  18  14     2.059486796529    84.85857450   125.45241208
 H     24  19  17     2.041046823986   127.28078426   178.44613241
 H     26  18  14     2.047344503340   118.76995697   244.94906660
 H     30  14  13     2.046012340948   127.99711412   279.66882698
 H     31  29  14     2.040450114918   125.22293469   180.92530585
 H     33  32  30     2.046930203877   121.01964473   180.74284758
 H     34  33  32     2.045617847496   122.70821597   180.59516895
 H     35  34  33     2.064814429233   105.73575241    97.19771933
 H     35  34  33     2.058786158072    84.05943581   206.43036958
 H     35  34  33     2.058418400901   133.08365142   318.50306270
 H     36  31  29     2.039845353366   126.61599965   178.98859863
 H     38  30  73     2.047975821711   118.77264435   359.90091293
 H     42   2   1     2.045020725966   119.31790784   323.66101986
 H     43  41  15     2.041436952892   126.36969097   182.06329380
 H     45  44  42     2.047097678177   121.10105945   179.58025624
 H     46  45  44     2.045051284662   122.72144639   179.46906377
 H     47  42   2     2.062723288131   106.65128841   315.16475048
 H     47  42   2     2.057569012371   132.46019523    94.52397119
 H     47  42   2     2.058915377895    83.63838232   206.04504406
 H     48  43  41     2.041664347903   127.23657387   181.62955349
 H     50  42   2     2.046925842384   118.77001737    94.71359229

---------------------
BASIS SET INFORMATION
---------------------
There are 3 groups of distinct atoms

 Group   1 Type C   : 17s4p1d contracted to 3s2p1d pattern {881/31/1}
 Group   2 Type N   : 17s4p1d contracted to 3s2p1d pattern {881/31/1}
 Group   3 Type H   : 4s1p contracted to 2s1p pattern {31/1}

Atom   0C    basis set group =>   1
Atom   1N    basis set group =>   2
Atom   2C    basis set group =>   1
Atom   3N    basis set group =>   2
Atom   4C    basis set group =>   1
Atom   5N    basis set group =>   2
Atom   6C    basis set group =>   1
Atom   7N    basis set group =>   2
Atom   8C    basis set group =>   1
Atom   9N    basis set group =>   2
Atom  10C    basis set group =>   1
Atom  11N    basis set group =>   2
Atom  12C    basis set group =>   1
Atom  13N    basis set group =>   2
Atom  14C    basis set group =>   1
Atom  15N    basis set group =>   2
Atom  16C    basis set group =>   1
Atom  17C    basis set group =>   1
Atom  18C    basis set group =>   1
Atom  19C    basis set group =>   1
Atom  20C    basis set group =>   1
Atom  21C    basis set group =>   1
Atom  22C    basis set group =>   1
Atom  23C    basis set group =>   1
Atom  24C    basis set group =>   1
Atom  25C    basis set group =>   1
Atom  26C    basis set group =>   1
Atom  27C    basis set group =>   1
Atom  28C    basis set group =>   1
Atom  29C    basis set group =>   1
Atom  30C    basis set group =>   1
Atom  31C    basis set group =>   1
Atom  32C    basis set group =>   1
Atom  33C    basis set group =>   1
Atom  34C    basis set group =>   1
Atom  35C    basis set group =>   1
Atom  36C    basis set group =>   1
Atom  37C    basis set group =>   1
Atom  38C    basis set group =>   1
Atom  39C    basis set group =>   1
Atom  40C    basis set group =>   1
Atom  41C    basis set group =>   1
Atom  42C    basis set group =>   1
Atom  43C    basis set group =>   1
Atom  44C    basis set group =>   1
Atom  45C    basis set group =>   1
Atom  46C    basis set group =>   1
Atom  47C    basis set group =>   1
Atom  48C    basis set group =>   1
Atom  49C    basis set group =>   1
Atom  50C    basis set group =>   1
Atom  51C    basis set group =>   1
Atom  52H    basis set group =>   3
Atom  53H    basis set group =>   3
Atom  54H    basis set group =>   3
Atom  55H    basis set group =>   3
Atom  56H    basis set group =>   3
Atom  57H    basis set group =>   3
Atom  58H    basis set group =>   3
Atom  59H    basis set group =>   3
Atom  60H    basis set group =>   3
Atom  61H    basis set group =>   3
Atom  62H    basis set group =>   3
Atom  63H    basis set group =>   3
Atom  64H    basis set group =>   3
Atom  65H    basis set group =>   3
Atom  66H    basis set group =>   3
Atom  67H    basis set group =>   3
Atom  68H    basis set group =>   3
Atom  69H    basis set group =>   3
Atom  70H    basis set group =>   3
Atom  71H    basis set group =>   3
Atom  72H    basis set group =>   3
Atom  73H    basis set group =>   3
Atom  74H    basis set group =>   3
Atom  75H    basis set group =>   3
Atom  76H    basis set group =>   3
Atom  77H    basis set group =>   3
Atom  78H    basis set group =>   3
Atom  79H    basis set group =>   3
Atom  80H    basis set group =>   3
Atom  81H    basis set group =>   3
Atom  82H    basis set group =>   3
Atom  83H    basis set group =>   3
Atom  84H    basis set group =>   3
Atom  85H    basis set group =>   3
Atom  86H    basis set group =>   3
Atom  87H    basis set group =>   3
Atom  88H    basis set group =>   3
Atom  89H    basis set group =>   3


           ************************************************************
           *        Program running with 16 parallel MPI-processes    *
           *              working on a common directory               *
           ************************************************************
------------------------------------------------------------------------------
                           ORCA GTO INTEGRAL CALCULATION
------------------------------------------------------------------------------
------------------------------------------------------------------------------
                   ___                                                        
                  /   \      - P O W E R E D   B Y -                         
                 /     \                                                     
                 |  |  |   _    _      __       _____    __    __             
                 |  |  |  | |  | |    /  \     |  _  \  |  |  /  |          
                  \  \/   | |  | |   /    \    | | | |  |  | /  /          
                 / \  \   | |__| |  /  /\  \   | |_| |  |  |/  /          
                |  |  |   |  __  | /  /__\  \  |    /   |      \           
                |  |  |   | |  | | |   __   |  |    \   |  |\   \          
                \     /   | |  | | |  |  |  |  | |\  \  |  | \   \       
                 \___/    |_|  |_| |__|  |__|  |_| \__\ |__|  \__/        
                                                                              
                      - O R C A' S   B I G   F R I E N D -                    
                                      &                                       
                       - I N T E G R A L  F E E D E R -                       
                                                                              
 v1 FN, 2020, v2 2021                                                         
------------------------------------------------------------------------------


Reading SHARK input file /scratch/allen/tmpyp4_amber_gaff2/conf1/conf1/Conf259.orca.SHARKINP.tmp ... ok
----------------------
SHARK INTEGRAL PACKAGE
----------------------

Number of atoms                             ...     90
Number of basis functions                   ...   1230
Number of shells                            ...    738
Maximum angular momentum                    ...      2
Integral batch strategy                     ... SHARK/LIBINT Hybrid
RI-J (if used) integral strategy            ... SPLIT-RIJ (Revised 2003 algorithm where possible)
Printlevel                                  ...      1
Contraction scheme used                     ... PARTIAL GENERAL contraction
Coulomb Range Separation                    ... NOT USED
Exchange Range Separation                   ... NOT USED
Finite Nucleus Model                        ... NOT USED
Auxiliary Coulomb fitting basis             ... NOT available
Auxiliary J/K fitting basis                 ... NOT available
Auxiliary Correlation fitting basis         ... NOT available
Auxiliary 'external' fitting basis          ... NOT available
Integral threshold                          ...     2.500000e-11
Primitive cut-off                           ...     2.500000e-12
Primitive pair pre-selection threshold      ...     2.500000e-12

Calculating pre-screening integrals         ... done (  0.1 sec) Dimension = 738
Calculating pre-screening integrals (ORCA)  ... done (  0.3 sec) Dimension = 426
Organizing shell pair data                  ... done (  0.7 sec)
Shell pair information
Total number of shell pairs                 ...    272691
Shell pairs after pre-screening             ...     71591
Total number of primitive shell pairs       ...    422091
Primitive shell pairs kept                  ...     92342
          la=0 lb=0:  29410 shell pairs
          la=1 lb=0:  25961 shell pairs
          la=1 lb=1:   4682 shell pairs
          la=2 lb=0:   7889 shell pairs
          la=2 lb=1:   3118 shell pairs
          la=2 lb=2:    531 shell pairs

Calculating one electron integrals          ... done (  0.2 sec)
Calculating Nuclear repulsion               ... done (  0.0 sec) ENN=   6222.370338778842 Eh

SHARK setup successfully completed in   2.4 seconds

Maximum memory used throughout the entire GTOINT-calculation: 99.0 MB


           ************************************************************
           *        Program running with 16 parallel MPI-processes    *
           *              working on a common directory               *
           ************************************************************
-------------------------------------------------------------------------------
                                 ORCA SCF
-------------------------------------------------------------------------------

------------
SCF SETTINGS
------------
Hamiltonian:
 Ab initio Hamiltonian  Method          .... Hartree-Fock(GTOs)


General Settings:
 Integral files         IntName         .... /scratch/allen/tmpyp4_amber_gaff2/conf1/conf1/Conf259.orca
 Hartree-Fock type      HFTyp           .... RHF
 Total Charge           Charge          ....    0
 Multiplicity           Mult            ....    1
 Number of Electrons    NEL             ....  358
 Basis Dimension        Dim             ....  918
 Nuclear Repulsion      ENuc            ....   6222.3703387788 Eh

Convergence Acceleration:
 DIIS                   CNVDIIS         .... on
   Start iteration      DIISMaxIt       ....    12
   Startup error        DIISStart       ....  0.200000
   # of expansion vecs  DIISMaxEq       ....     5
   Bias factor          DIISBfac        ....   1.050
   Max. coefficient     DIISMaxC        ....  10.000
 Trust-Rad. Augm. Hess. CNVTRAH         .... auto
   Auto Start mean grad. ratio tolernc. ....  1.125000
   Auto Start start iteration           ....    20
   Auto Start num. interpolation iter.  ....    10
   Max. Number of Micro iterations      ....    16
   Max. Number of Macro iterations      .... Maxiter - #DIIS iter
   Number of Davidson start vectors     ....     2
   Converg. threshold I  (grad. norm)   ....   1.000e-05
   Converg. threshold II (energy diff.) ....   1.000e-08
   Grad. Scal. Fac. for Micro threshold ....   0.100
   Minimum threshold for Micro iter.    ....   0.010
   NR start threshold (gradient norm)   ....   0.001
   Initial trust radius                 ....   0.400
   Minimum AH scaling param. (alpha)    ....   1.000
   Maximum AH scaling param. (alpha)    .... 1000.000
   Orbital update algorithm             .... Taylor
   White noise on init. David. guess    .... on
   Maximum white noise                  ....   0.010
   Quad. conv. algorithm                .... NR
 SOSCF                  CNVSOSCF        .... on
   Start iteration      SOSCFMaxIt      ....   150
   Startup grad/error   SOSCFStart      ....  0.003300
 Level Shifting         CNVShift        .... on
   Level shift para.    LevelShift      ....    0.2500
   Turn off err/grad.   ShiftErr        ....    0.0010
 Zerner damping         CNVZerner       .... off
 Static damping         CNVDamp         .... on
   Fraction old density DampFac         ....    0.7000
   Max. Damping (<1)    DampMax         ....    0.9800
   Min. Damping (>=0)   DampMin         ....    0.0000
   Turn off err/grad.   DampErr         ....    0.1000
 Fernandez-Rico         CNVRico         .... off

SCF Procedure:
 Maximum # iterations   MaxIter         ....   125
 SCF integral mode      SCFMode         .... Direct
   Integral package                     .... SHARK and LIBINT hybrid scheme
 Reset frequency        DirectResetFreq ....    20
 Integral Threshold     Thresh          ....  2.500e-11 Eh
 Primitive CutOff       TCut            ....  2.500e-12 Eh

Convergence Tolerance:
 Convergence Check Mode ConvCheckMode   .... Total+1el-Energy
 Convergence forced     ConvForced      .... 1
 Energy Change          TolE            ....  1.000e-08 Eh
 1-El. energy change                    ....  1.000e-05 Eh
 Orbital Gradient       TolG            ....  1.000e-05
 Orbital Rotation angle TolX            ....  1.000e-05
 DIIS Error             TolErr          ....  5.000e-07


Diagonalization of the overlap matrix:
Smallest eigenvalue                        ... 2.261e-04
Time for diagonalization                   ...    0.443 sec
Threshold for overlap eigenvalues          ... 1.000e-08
Number of eigenvalues below threshold      ... 0
Time for construction of square roots      ...    0.268 sec
Total time needed                          ...    0.718 sec

Time for model grid setup =    1.299 sec

------------------------------
INITIAL GUESS: MODEL POTENTIAL
------------------------------
Loading Hartree-Fock densities                     ... done
Calculating cut-offs                               ... done
Initializing the effective Hamiltonian             ... done
Setting up the integral package (SHARK)            ... done
Starting the Coulomb interaction                   ... done (   1.4 sec)
Reading the grid                                   ... done
Mapping shells                                     ... done
Starting the XC term evaluation                    ... done (   0.2 sec)
Transforming the Hamiltonian                       ... done (   0.3 sec)
Diagonalizing the Hamiltonian                      ... done (   0.4 sec)
Back transforming the eigenvectors                 ... done (   0.1 sec)
Now organizing SCF variables                       ... done
                      ------------------
                      INITIAL GUESS DONE (   3.8 sec)
                      ------------------
--------------
SCF ITERATIONS
--------------
ITER       Energy         Delta-E        Max-DP      RMS-DP      [F,P]     Damp
               ***  Starting incremental Fock matrix formation  ***
  0  -2121.6449373207   0.000000000000 0.06931233  0.00121263  0.2347921 0.7000
  1  -2122.3138899454  -0.668952624648 0.05267679  0.00098304  0.1452027 0.7000
                               ***Turning on DIIS***
  2  -2122.7299676029  -0.416077657508 0.11725701  0.00222297  0.0805903 0.0000
  3  -2117.7305108798   4.999456723033 0.03398340  0.00068760  0.0443490 0.0000
  4  -2123.4057321025  -5.675221222664 0.00913260  0.00023063  0.0072605 0.0000
  5  -2123.5801932168  -0.174461114357 0.00526663  0.00013870  0.0051104 0.0000
  6  -2123.5608515600   0.019341656867 0.00420690  0.00009400  0.0023342 0.0000
  7  -2123.6667842605  -0.105932700546 0.00372293  0.00007834  0.0018163 0.0000
  8  -2123.6953594304  -0.028575169883 0.00356253  0.00007874  0.0017018 0.0000
  9  -2123.6542026487   0.041156781694 0.00288809  0.00005720  0.0013601 0.0000
 10  -2123.6776239684  -0.023421319689 0.00287311  0.00005493  0.0010318 0.0000
                      *** Initiating the SOSCF procedure ***
                           *** Shutting down DIIS ***
                      *** Re-Reading the Fockian *** 
                      *** Removing any level shift *** 
ITER      Energy       Delta-E        Grad      Rot      Max-DP    RMS-DP
 11  -2123.67144274   0.0061812328  0.003010  0.003010  0.007717  0.000120
               *** Restarting incremental Fock matrix formation ***
 12  -2123.61122328   0.0602194574  0.001153  0.010363  0.001916  0.000050
 13  -2123.61139711  -0.0001738284  0.001363  0.025198  0.006210  0.000098
 14  -2123.61170368  -0.0003065757  0.000783  0.041902  0.011080  0.000165
 15  -2123.61191932  -0.0002156376  0.000663  0.007639  0.002096  0.000030
 16  -2123.61195725  -0.0000379340  0.000450  0.005115  0.001438  0.000028
 17  -2123.61199434  -0.0000370893  0.000244  0.011412  0.002435  0.000048
 18  -2123.61201950  -0.0000251559  0.000168  0.002870  0.000711  0.000013
 19  -2123.61202743  -0.0000079347  0.000177  0.003949  0.000845  0.000013
 20  -2123.61203278  -0.0000053412  0.000130  0.003801  0.000828  0.000013
 21  -2123.61203550  -0.0000027276  0.000072  0.002459  0.000418  0.000008
 22  -2123.61203705  -0.0000015481  0.000067  0.003382  0.000511  0.000011
 23  -2123.61203848  -0.0000014333  0.000041  0.001209  0.000249  0.000005
 24  -2123.61203892  -0.0000004342  0.000027  0.000882  0.000204  0.000004
 25  -2123.61203915  -0.0000002309  0.000024  0.000467  0.000141  0.000002
 26  -2123.61203926  -0.0000001133  0.000022  0.000539  0.000134  0.000002
 27  -2123.61203934  -0.0000000789  0.000015  0.000590  0.000145  0.000002
 28  -2123.61203940  -0.0000000610  0.000010  0.000458  0.000118  0.000002
 29  -2123.61203944  -0.0000000349  0.000007  0.000226  0.000049  0.000001
 30  -2123.61203945  -0.0000000092  0.000003  0.000064  0.000014  0.000000
 31  -2123.61203945  -0.0000000051  0.000004  0.000046  0.000017  0.000000
               *** Restarting incremental Fock matrix formation ***
                  ***Gradient check signals convergence***
              ***Rediagonalizing the Fockian in SOSCF/NRSCF***

               *****************************************************
               *                     SUCCESS                       *
               *           SCF CONVERGED AFTER  32 CYCLES          *
               *****************************************************


----------------
TOTAL SCF ENERGY
----------------

Total Energy       :        -2123.61203953 Eh          -57786.42140 eV

Components:
Nuclear Repulsion  :         6222.37033878 Eh          169319.30495 eV
Electronic Energy  :        -8345.98237831 Eh         -227105.72635 eV
One Electron Energy:       -15286.18955353 Eh         -415958.36467 eV
Two Electron Energy:         6940.20717523 Eh          188852.63832 eV

Virial components:
Potential Energy   :        -4245.59772279 Eh         -115528.58740 eV
Kinetic Energy     :         2121.98568326 Eh           57742.16600 eV
Virial Ratio       :            2.00076643


---------------
SCF CONVERGENCE
---------------

  Last Energy change         ...   -7.6498e-08  Tolerance :   1.0000e-08
  Last MAX-Density change    ...    1.6418e-05  Tolerance :   1.0000e-07
  Last RMS-Density change    ...    2.4672e-07  Tolerance :   5.0000e-09
  Last Orbital Gradient      ...    2.2164e-06  Tolerance :   1.0000e-05
  Last Orbital Rotation      ...    4.8871e-05  Tolerance :   1.0000e-05

             **** THE GBW FILE WAS UPDATED (/scratch/allen/tmpyp4_amber_gaff2/conf1/conf1/Conf259.orca.gbw) ****
             **** DENSITY /scratch/allen/tmpyp4_amber_gaff2/conf1/conf1/Conf259.orca.scfp WAS UPDATED ****
             **** ENERGY FILE WAS UPDATED (/scratch/allen/tmpyp4_amber_gaff2/conf1/conf1/Conf259.orca.en.tmp) ****
             **** THE GBW FILE WAS UPDATED (/scratch/allen/tmpyp4_amber_gaff2/conf1/conf1/Conf259.orca.gbw) ****
             **** DENSITY /scratch/allen/tmpyp4_amber_gaff2/conf1/conf1/Conf259.orca.scfp WAS UPDATED ****
----------------
ORBITAL ENERGIES
----------------

  NO   OCC          E(Eh)            E(eV) 
   0   2.0000     -15.698618      -427.1811 
   1   2.0000     -15.632907      -425.3930 
   2   2.0000     -15.620840      -425.0647 
   3   2.0000     -15.587720      -424.1634 
   4   2.0000     -15.519804      -422.3153 
   5   2.0000     -15.506973      -421.9662 
   6   2.0000     -15.449723      -420.4083 
   7   2.0000     -15.429989      -419.8714 
   8   2.0000     -11.341772      -308.6253 
   9   2.0000     -11.341101      -308.6070 
  10   2.0000     -11.338093      -308.5252 
  11   2.0000     -11.298950      -307.4600 
  12   2.0000     -11.295307      -307.3609 
  13   2.0000     -11.293140      -307.3020 
  14   2.0000     -11.290995      -307.2436 
  15   2.0000     -11.285179      -307.0853 
  16   2.0000     -11.282534      -307.0133 
  17   2.0000     -11.274321      -306.7899 
  18   2.0000     -11.274134      -306.7848 
  19   2.0000     -11.273748      -306.7743 
  20   2.0000     -11.270269      -306.6796 
  21   2.0000     -11.252485      -306.1957 
  22   2.0000     -11.249151      -306.1050 
  23   2.0000     -11.236398      -305.7579 
  24   2.0000     -11.229705      -305.5758 
  25   2.0000     -11.228819      -305.5517 
  26   2.0000     -11.225128      -305.4513 
  27   2.0000     -11.220645      -305.3293 
  28   2.0000     -11.220341      -305.3210 
  29   2.0000     -11.207064      -304.9597 
  30   2.0000     -11.206227      -304.9369 
  31   2.0000     -11.196647      -304.6763 
  32   2.0000     -11.195855      -304.6547 
  33   2.0000     -11.193807      -304.5990 
  34   2.0000     -11.190040      -304.4965 
  35   2.0000     -11.188854      -304.4642 
  36   2.0000     -11.188624      -304.4579 
  37   2.0000     -11.183575      -304.3205 
  38   2.0000     -11.183354      -304.3145 
  39   2.0000     -11.172308      -304.0140 
  40   2.0000     -11.166045      -303.8435 
  41   2.0000     -11.164251      -303.7947 
  42   2.0000     -11.162195      -303.7388 
  43   2.0000     -11.161757      -303.7268 
  44   2.0000     -11.158027      -303.6254 
  45   2.0000     -11.149839      -303.4026 
  46   2.0000     -11.149454      -303.3921 
  47   2.0000     -11.143975      -303.2430 
  48   2.0000     -11.143613      -303.2331 
  49   2.0000     -11.135866      -303.0223 
  50   2.0000     -11.121723      -302.6375 
  51   2.0000     -11.117203      -302.5145 
  52   2.0000      -1.374643       -37.4059 
  53   2.0000      -1.320411       -35.9302 
  54   2.0000      -1.309567       -35.6351 
  55   2.0000      -1.281472       -34.8706 
  56   2.0000      -1.221864       -33.2486 
  57   2.0000      -1.203178       -32.7401 
  58   2.0000      -1.173232       -31.9253 
  59   2.0000      -1.153220       -31.3807 
  60   2.0000      -1.141105       -31.0510 
  61   2.0000      -1.108945       -30.1759 
  62   2.0000      -1.099230       -29.9116 
  63   2.0000      -1.094396       -29.7800 
  64   2.0000      -1.074442       -29.2371 
  65   2.0000      -1.046755       -28.4836 
  66   2.0000      -1.044534       -28.4232 
  67   2.0000      -1.034421       -28.1480 
  68   2.0000      -1.013976       -27.5917 
  69   2.0000      -1.008226       -27.4352 
  70   2.0000      -1.004765       -27.3410 
  71   2.0000      -0.990600       -26.9556 
  72   2.0000      -0.984099       -26.7787 
  73   2.0000      -0.979367       -26.6499 
  74   2.0000      -0.965530       -26.2734 
  75   2.0000      -0.961038       -26.1512 
  76   2.0000      -0.951691       -25.8968 
  77   2.0000      -0.942632       -25.6503 
  78   2.0000      -0.923634       -25.1334 
  79   2.0000      -0.920665       -25.0526 
  80   2.0000      -0.915844       -24.9214 
  81   2.0000      -0.889170       -24.1955 
  82   2.0000      -0.880197       -23.9514 
  83   2.0000      -0.870998       -23.7011 
  84   2.0000      -0.861782       -23.4503 
  85   2.0000      -0.849383       -23.1129 
  86   2.0000      -0.835712       -22.7409 
  87   2.0000      -0.829034       -22.5592 
  88   2.0000      -0.821938       -22.3661 
  89   2.0000      -0.795396       -21.6438 
  90   2.0000      -0.788972       -21.4690 
  91   2.0000      -0.761618       -20.7247 
  92   2.0000      -0.733876       -19.9698 
  93   2.0000      -0.728030       -19.8107 
  94   2.0000      -0.725593       -19.7444 
  95   2.0000      -0.721260       -19.6265 
  96   2.0000      -0.716590       -19.4994 
  97   2.0000      -0.707352       -19.2480 
  98   2.0000      -0.701655       -19.0930 
  99   2.0000      -0.695930       -18.9372 
 100   2.0000      -0.695455       -18.9243 
 101   2.0000      -0.691359       -18.8128 
 102   2.0000      -0.683522       -18.5996 
 103   2.0000      -0.675546       -18.3825 
 104   2.0000      -0.672661       -18.3040 
 105   2.0000      -0.669455       -18.2168 
 106   2.0000      -0.664678       -18.0868 
 107   2.0000      -0.657410       -17.8890 
 108   2.0000      -0.654063       -17.7980 
 109   2.0000      -0.651629       -17.7317 
 110   2.0000      -0.649060       -17.6618 
 111   2.0000      -0.643933       -17.5223 
 112   2.0000      -0.641394       -17.4532 
 113   2.0000      -0.638548       -17.3758 
 114   2.0000      -0.632486       -17.2108 
 115   2.0000      -0.624901       -17.0044 
 116   2.0000      -0.622021       -16.9260 
 117   2.0000      -0.621691       -16.9171 
 118   2.0000      -0.613804       -16.7025 
 119   2.0000      -0.611704       -16.6453 
 120   2.0000      -0.609710       -16.5911 
 121   2.0000      -0.602451       -16.3935 
 122   2.0000      -0.591879       -16.1058 
 123   2.0000      -0.586520       -15.9600 
 124   2.0000      -0.580956       -15.8086 
 125   2.0000      -0.580081       -15.7848 
 126   2.0000      -0.578104       -15.7310 
 127   2.0000      -0.576171       -15.6784 
 128   2.0000      -0.572309       -15.5733 
 129   2.0000      -0.558462       -15.1965 
 130   2.0000      -0.556418       -15.1409 
 131   2.0000      -0.550154       -14.9704 
 132   2.0000      -0.543256       -14.7827 
 133   2.0000      -0.539306       -14.6753 
 134   2.0000      -0.534691       -14.5497 
 135   2.0000      -0.530460       -14.4345 
 136   2.0000      -0.518776       -14.1166 
 137   2.0000      -0.515549       -14.0288 
 138   2.0000      -0.515449       -14.0261 
 139   2.0000      -0.512878       -13.9561 
 140   2.0000      -0.510359       -13.8876 
 141   2.0000      -0.504374       -13.7247 
 142   2.0000      -0.502001       -13.6602 
 143   2.0000      -0.500335       -13.6148 
 144   2.0000      -0.495764       -13.4904 
 145   2.0000      -0.493865       -13.4387 
 146   2.0000      -0.491391       -13.3714 
 147   2.0000      -0.477681       -12.9984 
 148   2.0000      -0.476775       -12.9737 
 149   2.0000      -0.465190       -12.6585 
 150   2.0000      -0.462492       -12.5850 
 151   2.0000      -0.458727       -12.4826 
 152   2.0000      -0.451230       -12.2786 
 153   2.0000      -0.441627       -12.0173 
 154   2.0000      -0.436373       -11.8743 
 155   2.0000      -0.434609       -11.8263 
 156   2.0000      -0.422343       -11.4925 
 157   2.0000      -0.416160       -11.3243 
 158   2.0000      -0.409583       -11.1453 
 159   2.0000      -0.397478       -10.8159 
 160   2.0000      -0.382421       -10.4062 
 161   2.0000      -0.371151       -10.0995 
 162   2.0000      -0.355932        -9.6854 
 163   2.0000      -0.355381        -9.6704 
 164   2.0000      -0.347268        -9.4496 
 165   2.0000      -0.339338        -9.2339 
 166   2.0000      -0.339139        -9.2284 
 167   2.0000      -0.324695        -8.8354 
 168   2.0000      -0.315492        -8.5850 
 169   2.0000      -0.301498        -8.2042 
 170   2.0000      -0.298640        -8.1264 
 171   2.0000      -0.284017        -7.7285 
 172   2.0000      -0.278579        -7.5805 
 173   2.0000      -0.264446        -7.1959 
 174   2.0000      -0.233377        -6.3505 
 175   2.0000      -0.184157        -5.0112 
 176   2.0000      -0.174212        -4.7405 
 177   2.0000      -0.062599        -1.7034 
 178   2.0000      -0.050956        -1.3866 
 179   0.0000       0.034471         0.9380 
 180   0.0000       0.058686         1.5969 
 181   0.0000       0.086208         2.3458 
 182   0.0000       0.097543         2.6543 
 183   0.0000       0.102560         2.7908 
 184   0.0000       0.133062         3.6208 
 185   0.0000       0.138614         3.7719 
 186   0.0000       0.147514         4.0141 
 187   0.0000       0.163016         4.4359 
 188   0.0000       0.165286         4.4977 
 189   0.0000       0.172029         4.6811 
 190   0.0000       0.172068         4.6822 
 191   0.0000       0.172867         4.7040 
 192   0.0000       0.175601         4.7783 
 193   0.0000       0.189762         5.1637 
 194   0.0000       0.204225         5.5572 
 195   0.0000       0.209126         5.6906 
 196   0.0000       0.209906         5.7118 
 197   0.0000       0.211481         5.7547 
 198   0.0000       0.216497         5.8912 
 199   0.0000       0.226413         6.1610 
 200   0.0000       0.230634         6.2759 
 201   0.0000       0.233727         6.3600 
 202   0.0000       0.238046         6.4776 
 203   0.0000       0.239971         6.5300 
 204   0.0000       0.245953         6.6927 
 205   0.0000       0.247970         6.7476 
 206   0.0000       0.254170         6.9163 
 207   0.0000       0.257228         6.9995 
 208   0.0000       0.257362         7.0032 
 209   0.0000       0.259587         7.0637 
 210   0.0000       0.262756         7.1499 
 211   0.0000       0.263838         7.1794 
 212   0.0000       0.267104         7.2683 
 213   0.0000       0.273050         7.4301 
 214   0.0000       0.278499         7.5783 
 215   0.0000       0.279659         7.6099 
 216   0.0000       0.281312         7.6549 
 217   0.0000       0.284921         7.7531 
 218   0.0000       0.287832         7.8323 
 219   0.0000       0.288589         7.8529 
 220   0.0000       0.293258         7.9800 
 221   0.0000       0.293505         7.9867 
 222   0.0000       0.296521         8.0688 
 223   0.0000       0.297862         8.1052 
 224   0.0000       0.301014         8.1910 
 225   0.0000       0.301838         8.2134 
 226   0.0000       0.304898         8.2967 
 227   0.0000       0.305600         8.3158 
 228   0.0000       0.313944         8.5429 
 229   0.0000       0.316679         8.6173 
 230   0.0000       0.325087         8.8461 
 231   0.0000       0.325952         8.8696 
 232   0.0000       0.327535         8.9127 
 233   0.0000       0.333098         9.0641 
 234   0.0000       0.337529         9.1846 
 235   0.0000       0.353697         9.6246 
 236   0.0000       0.358789         9.7631 
 237   0.0000       0.365506         9.9459 
 238   0.0000       0.385188        10.4815 
 239   0.0000       0.395021        10.7491 
 240   0.0000       0.400190        10.8897 
 241   0.0000       0.402352        10.9486 
 242   0.0000       0.407701        11.0941 
 243   0.0000       0.419288        11.4094 
 244   0.0000       0.425965        11.5911 
 245   0.0000       0.428337        11.6556 
 246   0.0000       0.435877        11.8608 
 247   0.0000       0.438569        11.9341 
 248   0.0000       0.441113        12.0033 
 249   0.0000       0.445838        12.1319 
 250   0.0000       0.450144        12.2490 
 251   0.0000       0.455848        12.4042 
 252   0.0000       0.464168        12.6307 
 253   0.0000       0.468651        12.7526 
 254   0.0000       0.470601        12.8057 
 255   0.0000       0.472138        12.8475 
 256   0.0000       0.477442        12.9919 
 257   0.0000       0.484482        13.1834 
 258   0.0000       0.488377        13.2894 
 259   0.0000       0.493355        13.4249 
 260   0.0000       0.502856        13.6834 
 261   0.0000       0.503284        13.6950 
 262   0.0000       0.506381        13.7793 
 263   0.0000       0.508001        13.8234 
 264   0.0000       0.514277        13.9942 
 265   0.0000       0.516727        14.0609 
 266   0.0000       0.521847        14.2002 
 267   0.0000       0.525195        14.2913 
 268   0.0000       0.530554        14.4371 
 269   0.0000       0.540357        14.7038 
 270   0.0000       0.542893        14.7729 
 271   0.0000       0.545840        14.8531 
 272   0.0000       0.549702        14.9582 
 273   0.0000       0.551240        15.0000 
 274   0.0000       0.556283        15.1372 
 275   0.0000       0.559589        15.2272 
 276   0.0000       0.566905        15.4263 
 277   0.0000       0.569930        15.5086 
 278   0.0000       0.578039        15.7292 
 279   0.0000       0.583697        15.8832 
 280   0.0000       0.589952        16.0534 
 281   0.0000       0.592921        16.1342 
 282   0.0000       0.594542        16.1783 
 283   0.0000       0.598057        16.2740 
 284   0.0000       0.601285        16.3618 
 285   0.0000       0.603274        16.4159 
 286   0.0000       0.607296        16.5254 
 287   0.0000       0.610797        16.6206 
 288   0.0000       0.614610        16.7244 
 289   0.0000       0.618674        16.8350 
 290   0.0000       0.623704        16.9719 
 291   0.0000       0.628745        17.1090 
 292   0.0000       0.629445        17.1281 
 293   0.0000       0.633377        17.2351 
 294   0.0000       0.644468        17.5369 
 295   0.0000       0.647581        17.6216 
 296   0.0000       0.656089        17.8531 
 297   0.0000       0.658890        17.9293 
 298   0.0000       0.660585        17.9754 
 299   0.0000       0.665496        18.1091 
 300   0.0000       0.667318        18.1587 
 301   0.0000       0.670667        18.2498 
 302   0.0000       0.675085        18.3700 
 303   0.0000       0.675657        18.3856 
 304   0.0000       0.677202        18.4276 
 305   0.0000       0.680777        18.5249 
 306   0.0000       0.683750        18.6058 
 307   0.0000       0.689259        18.7557 
 308   0.0000       0.690137        18.7796 
 309   0.0000       0.695906        18.9366 
 310   0.0000       0.700820        19.0703 
 311   0.0000       0.702151        19.1065 
 312   0.0000       0.704824        19.1792 
 313   0.0000       0.709767        19.3137 
 314   0.0000       0.713204        19.4073 
 315   0.0000       0.714218        19.4348 
 316   0.0000       0.716319        19.4920 
 317   0.0000       0.716982        19.5101 
 318   0.0000       0.721371        19.6295 
 319   0.0000       0.723454        19.6862 
 320   0.0000       0.725328        19.7372 
 321   0.0000       0.728598        19.8262 
 322   0.0000       0.730880        19.8883 
 323   0.0000       0.733972        19.9724 
 324   0.0000       0.739907        20.1339 
 325   0.0000       0.741610        20.1802 
 326   0.0000       0.745310        20.2809 
 327   0.0000       0.746541        20.3144 
 328   0.0000       0.748466        20.3668 
 329   0.0000       0.755954        20.5706 
 330   0.0000       0.757525        20.6133 
 331   0.0000       0.758825        20.6487 
 332   0.0000       0.760853        20.7039 
 333   0.0000       0.762281        20.7427 
 334   0.0000       0.766778        20.8651 
 335   0.0000       0.767294        20.8791 
 336   0.0000       0.775093        21.0914 
 337   0.0000       0.779606        21.2142 
 338   0.0000       0.780919        21.2499 
 339   0.0000       0.786073        21.3901 
 340   0.0000       0.789279        21.4774 
 341   0.0000       0.793197        21.5840 
 342   0.0000       0.793570        21.5941 
 343   0.0000       0.794796        21.6275 
 344   0.0000       0.799228        21.7481 
 345   0.0000       0.801367        21.8063 
 346   0.0000       0.805771        21.9261 
 347   0.0000       0.807537        21.9742 
 348   0.0000       0.811760        22.0891 
 349   0.0000       0.815645        22.1948 
 350   0.0000       0.817190        22.2369 
 351   0.0000       0.821081        22.3428 
 352   0.0000       0.823620        22.4118 
 353   0.0000       0.825717        22.4689 
 354   0.0000       0.829049        22.5596 
 355   0.0000       0.831018        22.6132 
 356   0.0000       0.832401        22.6508 
 357   0.0000       0.835723        22.7412 
 358   0.0000       0.838687        22.8218 
 359   0.0000       0.839270        22.8377 
 360   0.0000       0.843202        22.9447 
 361   0.0000       0.846617        23.0376 
 362   0.0000       0.847790        23.0695 
 363   0.0000       0.848474        23.0881 
 364   0.0000       0.851214        23.1627 
 365   0.0000       0.853408        23.2224 
 366   0.0000       0.856451        23.3052 
 367   0.0000       0.858814        23.3695 
 368   0.0000       0.863234        23.4898 
 369   0.0000       0.865899        23.5623 
 370   0.0000       0.866764        23.5858 
 371   0.0000       0.869911        23.6715 
 372   0.0000       0.870866        23.6975 
 373   0.0000       0.873241        23.7621 
 374   0.0000       0.873662        23.7736 
 375   0.0000       0.877305        23.8727 
 376   0.0000       0.878406        23.9027 
 377   0.0000       0.882015        24.0008 
 378   0.0000       0.888461        24.1763 
 379   0.0000       0.890297        24.2262 
 380   0.0000       0.890744        24.2384 
 381   0.0000       0.895264        24.3614 
 382   0.0000       0.897784        24.4300 
 383   0.0000       0.903852        24.5951 
 384   0.0000       0.905738        24.6464 
 385   0.0000       0.906302        24.6617 
 386   0.0000       0.907571        24.6963 
 387   0.0000       0.914321        24.8799 
 388   0.0000       0.916730        24.9455 
 389   0.0000       0.918164        24.9845 
 390   0.0000       0.920932        25.0598 
 391   0.0000       0.922217        25.0948 
 392   0.0000       0.926798        25.2194 
 393   0.0000       0.929900        25.3039 
 394   0.0000       0.931143        25.3377 
 395   0.0000       0.933442        25.4003 
 396   0.0000       0.936464        25.4825 
 397   0.0000       0.936743        25.4901 
 398   0.0000       0.940229        25.5849 
 399   0.0000       0.942514        25.6471 
 400   0.0000       0.948085        25.7987 
 401   0.0000       0.950271        25.8582 
 402   0.0000       0.953269        25.9398 
 403   0.0000       0.955350        25.9964 
 404   0.0000       0.956813        26.0362 
 405   0.0000       0.957708        26.0606 
 406   0.0000       0.963896        26.2290 
 407   0.0000       0.965148        26.2630 
 408   0.0000       0.965880        26.2829 
 409   0.0000       0.972486        26.4627 
 410   0.0000       0.976734        26.5783 
 411   0.0000       0.980958        26.6932 
 412   0.0000       0.987780        26.8789 
 413   0.0000       0.993799        27.0426 
 414   0.0000       0.995120        27.0786 
 415   0.0000       0.997234        27.1361 
 416   0.0000       1.001097        27.2412 
 417   0.0000       1.004215        27.3261 
 418   0.0000       1.008218        27.4350 
 419   0.0000       1.017932        27.6993 
 420   0.0000       1.023548        27.8522 
 421   0.0000       1.023610        27.8538 
 422   0.0000       1.034208        28.1422 
 423   0.0000       1.035330        28.1728 
 424   0.0000       1.041629        28.3442 
 425   0.0000       1.045665        28.4540 
 426   0.0000       1.054774        28.7019 
 427   0.0000       1.062610        28.9151 
 428   0.0000       1.071082        29.1456 
 429   0.0000       1.074420        29.2365 
 430   0.0000       1.078312        29.3424 
 431   0.0000       1.081065        29.4173 
 432   0.0000       1.084411        29.5083 
 433   0.0000       1.086719        29.5711 
 434   0.0000       1.092849        29.7379 
 435   0.0000       1.098191        29.8833 
 436   0.0000       1.106653        30.1136 
 437   0.0000       1.110786        30.2260 
 438   0.0000       1.113946        30.3120 
 439   0.0000       1.115027        30.3414 
 440   0.0000       1.117963        30.4213 
 441   0.0000       1.121611        30.5206 
 442   0.0000       1.128179        30.6993 
 443   0.0000       1.130511        30.7628 
 444   0.0000       1.132134        30.8069 
 445   0.0000       1.136257        30.9191 
 446   0.0000       1.140236        31.0274 
 447   0.0000       1.143052        31.1040 
 448   0.0000       1.146145        31.1882 
 449   0.0000       1.147764        31.2322 
 450   0.0000       1.154120        31.4052 
 451   0.0000       1.157338        31.4928 
 452   0.0000       1.158060        31.5124 
 453   0.0000       1.161814        31.6146 
 454   0.0000       1.162984        31.6464 
 455   0.0000       1.166830        31.7511 
 456   0.0000       1.169738        31.8302 
 457   0.0000       1.178279        32.0626 
 458   0.0000       1.182388        32.1744 
 459   0.0000       1.188582        32.3430 
 460   0.0000       1.189981        32.3810 
 461   0.0000       1.194898        32.5148 
 462   0.0000       1.197267        32.5793 
 463   0.0000       1.203387        32.7458 
 464   0.0000       1.208021        32.8719 
 465   0.0000       1.209825        32.9210 
 466   0.0000       1.210772        32.9468 
 467   0.0000       1.212703        32.9993 
 468   0.0000       1.223187        33.2846 
 469   0.0000       1.226253        33.3680 
 470   0.0000       1.227461        33.4009 
 471   0.0000       1.231481        33.5103 
 472   0.0000       1.235438        33.6180 
 473   0.0000       1.238232        33.6940 
 474   0.0000       1.240380        33.7524 
 475   0.0000       1.241973        33.7958 
 476   0.0000       1.246222        33.9114 
 477   0.0000       1.248895        33.9842 
 478   0.0000       1.255373        34.1604 
 479   0.0000       1.256127        34.1809 
 480   0.0000       1.260683        34.3049 
 481   0.0000       1.263518        34.3821 
 482   0.0000       1.266226        34.4558 
 483   0.0000       1.269747        34.5516 
 484   0.0000       1.274986        34.6941 
 485   0.0000       1.277937        34.7744 
 486   0.0000       1.280229        34.8368 
 487   0.0000       1.285689        34.9854 
 488   0.0000       1.288542        35.0630 
 489   0.0000       1.293563        35.1996 
 490   0.0000       1.296712        35.2853 
 491   0.0000       1.299552        35.3626 
 492   0.0000       1.300580        35.3906 
 493   0.0000       1.309022        35.6203 
 494   0.0000       1.313643        35.7460 
 495   0.0000       1.315636        35.8003 
 496   0.0000       1.315942        35.8086 
 497   0.0000       1.323061        36.0023 
 498   0.0000       1.326677        36.1007 
 499   0.0000       1.329390        36.1745 
 500   0.0000       1.333495        36.2863 
 501   0.0000       1.338966        36.4351 
[...]
      pz      :     0.021782  p :     0.079293
      px      :     0.042885
      py      :     0.014626
 77 H s       :     0.895071  s :     0.895071
      pz      :     0.047160  p :     0.078381
      px      :     0.015003
      py      :     0.016218
 78 H s       :     0.895465  s :     0.895465
      pz      :     0.025466  p :     0.078296
      px      :     0.020695
      py      :     0.032135
 79 H s       :     0.907402  s :     0.907402
      pz      :     0.022573  p :     0.087224
      px      :     0.021891
      py      :     0.042759
 80 H s       :     0.879033  s :     0.879033
      pz      :     0.038209  p :     0.083248
      px      :     0.029510
      py      :     0.015530
 81 H s       :     0.888639  s :     0.888639
      pz      :     0.037566  p :     0.083350
      px      :     0.016085
      py      :     0.029699
 82 H s       :     0.914155  s :     0.914155
      pz      :     0.022435  p :     0.087124
      px      :     0.030964
      py      :     0.033725
 83 H s       :     0.872268  s :     0.872268
      pz      :     0.039183  p :     0.083667
      px      :     0.015245
      py      :     0.029239
 84 H s       :     0.888590  s :     0.888590
      pz      :     0.035809  p :     0.084374
      px      :     0.031798
      py      :     0.016766
 85 H s       :     0.895841  s :     0.895841
      pz      :     0.022508  p :     0.079618
      px      :     0.014149
      py      :     0.042961
 86 H s       :     0.890768  s :     0.890768
      pz      :     0.024701  p :     0.078888
      px      :     0.032992
      py      :     0.021194
 87 H s       :     0.891244  s :     0.891244
      pz      :     0.047816  p :     0.078594
      px      :     0.015654
      py      :     0.015125
 88 H s       :     0.917804  s :     0.917804
      pz      :     0.022461  p :     0.086829
      px      :     0.042040
      py      :     0.022328
 89 H s       :     0.875202  s :     0.875202
      pz      :     0.037800  p :     0.084006
      px      :     0.030460
      py      :     0.015746


                      *****************************
                      * MAYER POPULATION ANALYSIS *
                      *****************************

  NA   - Mulliken gross atomic population
  ZA   - Total nuclear charge
  QA   - Mulliken gross atomic charge
  VA   - Mayer's total valence
  BVA  - Mayer's bonded valence
  FA   - Mayer's free valence

  ATOM       NA         ZA         QA         VA         BVA        FA
  0 C      5.7689     6.0000     0.2311     3.8059     3.8059    -0.0000
  1 N      7.4192     7.0000    -0.4192     3.4568     3.4568    -0.0000
  2 C      6.0665     6.0000    -0.0665     3.9198     3.9198    -0.0000
  3 N      7.3422     7.0000    -0.3422     3.4256     3.4256     0.0000
  4 C      6.0703     6.0000    -0.0703     3.9637     3.9637     0.0000
  5 N      7.5657     7.0000    -0.5657     3.0696     3.0696    -0.0000
  6 C      6.0310     6.0000    -0.0310     3.9666     3.9666    -0.0000
  7 N      7.3368     7.0000    -0.3368     3.4456     3.4456    -0.0000
  8 C      5.7705     6.0000     0.2295     3.8076     3.8076    -0.0000
  9 N      7.5660     7.0000    -0.5660     3.0908     3.0908    -0.0000
 10 C      5.8948     6.0000     0.1052     3.8659     3.8659     0.0000
 11 N      7.4391     7.0000    -0.4391     3.3766     3.3766     0.0000
 12 C      6.0601     6.0000    -0.0601     3.9101     3.9101     0.0000
 13 N      7.4497     7.0000    -0.4497     3.3252     3.3252    -0.0000
 14 C      5.7757     6.0000     0.2243     3.8068     3.8068    -0.0000
 15 N      7.4416     7.0000    -0.4416     3.3642     3.3642     0.0000
 16 C      5.7470     6.0000     0.2530     3.8049     3.8049    -0.0000
 17 C      6.0361     6.0000    -0.0361     3.9684     3.9684    -0.0000
 18 C      6.1853     6.0000    -0.1853     3.6900     3.6900     0.0000
 19 C      5.7657     6.0000     0.2343     3.8946     3.8946     0.0000
 20 C      5.8082     6.0000     0.1918     3.8214     3.8214    -0.0000
 21 C      6.0709     6.0000    -0.0709     3.8945     3.8945    -0.0000
 22 C      6.0893     6.0000    -0.0893     3.9854     3.9854    -0.0000
 23 C      6.0646     6.0000    -0.0646     3.9881     3.9881    -0.0000
 24 C      5.7834     6.0000     0.2166     3.8289     3.8289    -0.0000
 25 C      5.8854     6.0000     0.1146     3.8926     3.8926     0.0000
 26 C      6.0669     6.0000    -0.0669     3.9092     3.9092     0.0000
 27 C      5.7554     6.0000     0.2446     3.9017     3.9017    -0.0000
 28 C      6.0413     6.0000    -0.0413     3.9896     3.9896     0.0000
 29 C      6.1958     6.0000    -0.1958     3.7269     3.7269    -0.0000
 30 C      5.7774     6.0000     0.2226     3.7813     3.7813    -0.0000
 31 C      5.8097     6.0000     0.1903     3.8330     3.8330    -0.0000
 32 C      6.0657     6.0000    -0.0657     3.9129     3.9129     0.0000
 33 C      6.1003     6.0000    -0.1003     3.9852     3.9852     0.0000
 34 C      6.0507     6.0000    -0.0507     3.9987     3.9987     0.0000
 35 C      5.8183     6.0000     0.1817     3.8297     3.8297    -0.0000
 36 C      5.8798     6.0000     0.1202     3.9083     3.9083     0.0000
 37 C      6.0702     6.0000    -0.0702     3.9146     3.9146     0.0000
 38 C      5.7568     6.0000     0.2432     3.7949     3.7949     0.0000
 39 C      6.0646     6.0000    -0.0646     3.9981     3.9981     0.0000
 40 C      6.2027     6.0000    -0.2027     3.7514     3.7514     0.0000
 41 C      5.7826     6.0000     0.2174     3.8752     3.8752    -0.0000
 42 C      5.7890     6.0000     0.2110     3.8321     3.8321     0.0000
 43 C      6.0766     6.0000    -0.0766     3.9050     3.9050     0.0000
 44 C      6.0918     6.0000    -0.0918     3.9834     3.9834     0.0000
 45 C      6.0400     6.0000    -0.0400     3.9960     3.9960     0.0000
 46 C      5.8135     6.0000     0.1865     3.8208     3.8208     0.0000
 47 C      5.8834     6.0000     0.1166     3.8967     3.8967     0.0000
 48 C      6.0808     6.0000    -0.0808     3.8985     3.8985     0.0000
 49 C      5.7895     6.0000     0.2105     3.8658     3.8658    -0.0000
 50 C      6.0655     6.0000    -0.0655     3.9902     3.9902     0.0000
 51 C      6.1891     6.0000    -0.1891     3.7414     3.7414     0.0000
 52 H      0.9219     1.0000     0.0781     0.9826     0.9826    -0.0000
 53 H      1.0080     1.0000    -0.0080     1.0020     1.0020    -0.0000
 54 H      0.9368     1.0000     0.0632     1.0051     1.0051    -0.0000
 55 H      0.9242     1.0000     0.0758     0.9836     0.9836    -0.0000
 56 H      0.9194     1.0000     0.0806     0.9726     0.9726    -0.0000
 57 H      0.9269     1.0000     0.0731     0.9848     0.9848     0.0000
 58 H      0.9282     1.0000     0.0718     0.9865     0.9865    -0.0000
 59 H      1.0268     1.0000    -0.0268     0.9964     0.9964     0.0000
 60 H      0.9357     1.0000     0.0643     1.0062     1.0062     0.0000
 61 H      0.8234     1.0000     0.1766     1.0436     1.0436     0.0000
 62 H      0.8316     1.0000     0.1684     1.0433     1.0433     0.0000
 63 H      0.9463     1.0000     0.0537     0.9861     0.9861    -0.0000
 64 H      1.0319     1.0000    -0.0319     0.9929     0.9929     0.0000
 65 H      0.9577     1.0000     0.0423     1.0078     1.0078     0.0000
 66 H      0.9442     1.0000     0.0558     0.9847     0.9847    -0.0000
 67 H      0.9408     1.0000     0.0592     0.9717     0.9717     0.0000
 68 H      0.9434     1.0000     0.0566     0.9865     0.9865     0.0000
 69 H      0.9407     1.0000     0.0593     0.9830     0.9830     0.0000
 70 H      1.0154     1.0000    -0.0154     0.9976     0.9976     0.0000
 71 H      0.9528     1.0000     0.0472     1.0075     1.0075     0.0000
 72 H      0.9604     1.0000     0.0396     0.9860     0.9860     0.0000
 73 H      1.0193     1.0000    -0.0193     0.9964     0.9964     0.0000
 74 H      0.9686     1.0000     0.0314     1.0092     1.0092     0.0000
 75 H      0.9616     1.0000     0.0384     0.9866     0.9866    -0.0000
 76 H      0.9520     1.0000     0.0480     0.9704     0.9704     0.0000
 77 H      0.9526     1.0000     0.0474     0.9843     0.9843     0.0000
 78 H      0.9533     1.0000     0.0467     0.9837     0.9837     0.0000
 79 H      1.0121     1.0000    -0.0121     1.0016     1.0016    -0.0000
 80 H      0.9688     1.0000     0.0312     1.0064     1.0064    -0.0000
 81 H      0.9494     1.0000     0.0506     0.9853     0.9853     0.0000
 82 H      1.0228     1.0000    -0.0228     0.9951     0.9951     0.0000
 83 H      0.9572     1.0000     0.0428     1.0105     1.0105     0.0000
 84 H      0.9503     1.0000     0.0497     0.9863     0.9863     0.0000
 85 H      0.9452     1.0000     0.0548     0.9713     0.9713    -0.0000
 86 H      0.9437     1.0000     0.0563     0.9841     0.9841    -0.0000
 87 H      0.9454     1.0000     0.0546     0.9852     0.9852     0.0000
 88 H      1.0292     1.0000    -0.0292     0.9915     0.9915     0.0000
 89 H      0.9608     1.0000     0.0392     1.0061     1.0061     0.0000

  Mayer bond orders larger than 0.100000
B(  0-C ,  1-N ) :   1.1853 B(  0-C , 17-C ) :   1.5410 B(  0-C , 52-H ) :   0.9674 
B(  1-N ,  8-C ) :   1.1819 B(  1-N , 10-C ) :   0.9330 B(  2-C , 12-C ) :   1.5699 
B(  2-C , 16-C ) :   1.2849 B(  2-C , 53-H ) :   0.9790 B(  3-N , 14-C ) :   1.1792 
B(  3-N , 16-C ) :   1.2029 B(  3-N , 61-H ) :   0.8957 B(  4-C ,  6-C ) :   1.3367 
B(  4-C , 17-C ) :   1.3442 B(  4-C , 18-C ) :   1.0928 B(  5-N , 19-C ) :   1.3731 
B(  5-N , 27-C ) :   1.4418 B(  6-C ,  8-C ) :   1.5472 B(  6-C , 54-H ) :   0.9710 
B(  7-N , 30-C ) :   1.1863 B(  7-N , 38-C ) :   1.2131 B(  7-N , 62-H ) :   0.9009 
B(  8-C , 55-H ) :   0.9681 B(  9-N , 41-C ) :   1.4312 B(  9-N , 49-C ) :   1.3956 
B( 10-C , 56-H ) :   0.9765 B( 10-C , 57-H ) :   0.9809 B( 10-C , 58-H ) :   0.9820 
B( 11-N , 20-C ) :   1.1035 B( 11-N , 24-C ) :   1.1345 B( 11-N , 25-C ) :   0.9607 
B( 12-C , 14-C ) :   1.2849 B( 12-C , 59-H ) :   0.9769 B( 13-N , 31-C ) :   1.0881 
B( 13-N , 35-C ) :   1.0787 B( 13-N , 36-C ) :   0.9789 B( 14-C , 18-C ) :   1.2485 
B( 15-N , 42-C ) :   1.1246 B( 15-N , 46-C ) :   1.0933 B( 15-N , 47-C ) :   0.9657 
B( 16-C , 51-C ) :   1.2352 B( 17-C , 60-H ) :   0.9709 B( 18-C , 19-C ) :   1.2955 
B( 19-C , 21-C ) :   1.1700 B( 20-C , 28-C ) :   1.6262 B( 20-C , 63-H ) :   0.9708 
B( 21-C , 26-C ) :   1.6763 B( 21-C , 64-H ) :   0.9720 B( 22-C , 23-C ) :   1.2619 
B( 22-C , 28-C ) :   1.2803 B( 22-C , 29-C ) :   1.2512 B( 23-C , 24-C ) :   1.6301 
B( 23-C , 65-H ) :   0.9720 B( 24-C , 66-H ) :   0.9690 B( 25-C , 67-H ) :   0.9763 
B( 25-C , 68-H ) :   0.9833 B( 25-C , 69-H ) :   0.9819 B( 26-C , 27-C ) :   1.1780 
B( 26-C , 70-H ) :   0.9752 B( 27-C , 29-C ) :   1.2412 B( 28-C , 71-H ) :   0.9709 
B( 29-C , 30-C ) :   1.1793 B( 30-C , 32-C ) :   1.3465 B( 31-C , 39-C ) :   1.6762 
B( 31-C , 72-H ) :   0.9707 B( 32-C , 37-C ) :   1.5128 B( 32-C , 73-H ) :   0.9771 
B( 33-C , 34-C ) :   1.2390 B( 33-C , 39-C ) :   1.2317 B( 33-C , 40-C ) :   1.3402 
B( 34-C , 35-C ) :   1.6745 B( 34-C , 74-H ) :   0.9709 B( 35-C , 75-H ) :   0.9707 
B( 36-C , 76-H ) :   0.9756 B( 36-C , 77-H ) :   0.9825 B( 36-C , 78-H ) :   0.9837 
B( 37-C , 38-C ) :   1.3421 B( 37-C , 79-H ) :   0.9790 B( 38-C , 40-C ) :   1.1816 
B( 39-C , 80-H ) :   0.9720 B( 40-C , 41-C ) :   1.1774 B( 41-C , 43-C ) :   1.2478 
B( 42-C , 50-C ) :   1.6407 B( 42-C , 81-H ) :   0.9696 B( 43-C , 48-C ) :   1.6033 
B( 43-C , 82-H ) :   0.9754 B( 44-C , 45-C ) :   1.2795 B( 44-C , 50-C ) :   1.2519 
B( 44-C , 51-C ) :   1.2490 B( 45-C , 46-C ) :   1.6328 B( 45-C , 83-H ) :   0.9704 
B( 46-C , 84-H ) :   0.9708 B( 47-C , 85-H ) :   0.9760 B( 47-C , 86-H ) :   0.9826 
B( 47-C , 87-H ) :   0.9829 B( 48-C , 49-C ) :   1.2429 B( 48-C , 88-H ) :   0.9728 
B( 49-C , 51-C ) :   1.1975 B( 50-C , 89-H ) :   0.9721 

-------
TIMINGS
-------

Total SCF time: 0 days 0 hours 32 min 53 sec 

Total time                  ....    1973.501 sec
Sum of individual times     ....    1968.532 sec  ( 99.7%)

Fock matrix formation       ....    1938.280 sec  ( 98.2%)
Diagonalization             ....       8.758 sec  (  0.4%)
Density matrix formation    ....       0.616 sec  (  0.0%)
Population analysis         ....       0.586 sec  (  0.0%)
Initial guess               ....       2.521 sec  (  0.1%)
Orbital Transformation      ....       0.000 sec  (  0.0%)
Orbital Orthonormalization  ....       0.000 sec  (  0.0%)
DIIS solution               ....       3.963 sec  (  0.2%)
SOSCF solution              ....      12.509 sec  (  0.6%)

Maximum memory used throughout the entire SCF-calculation: 302.6 MB


           ************************************************************
           *        Program running with 16 parallel MPI-processes    *
           *              working on a common directory               *
           ************************************************************

------------------------------------------------------------------------------
                                ORCA  MP2 
------------------------------------------------------------------------------

Freezing NCore=104 chemical core electrons

----------
MP2 ENERGY (disk based algorithm)
----------

Dimension of the basis                    ...  918
Memory devoted to MP2                     ... 2000 MB   
Data format for buffers                   ... DOUBLE
Compression type for matrix containers    ... UNCOMPRESSED

-------------------------------
PARTIAL EXCHANGE TRANSFORMATION
-------------------------------

Transformation type                        ... one-operator
Generation of integrals (i,mue|j,nue)      ... ON
Generation of integrals (mue,kappa|nue,tau)... OFF
Generation of integrals (i,mue|a,nue)      ... OFF
Dimension of the basis                     ...  918
Number of internal MOs                     ...  127 (  52- 178)
Pair cutoff                                ... 2.500e-12 Eh
Number of AO pairs in the trafo            ... 421821
Total Number of distinct AO pairs          ... 421821
Memory devoted for trafo                   ... 2000.0 MB 
Max. Number of MO pairs treated together   ...  311      
Number Format for Storage                  ... Double (8 Byte)
Integral package used                      ... LIBINT

Starting integral evaluation:
    ... done with AO integral generation
Closing buffer AOK     (37.86 GB; CompressionRatio= 1.34)
Collecting buffer AOK 
Number of MO pairs included in the trafo   ... 8128
------------------------
SORTING OF (i,mue|j,nue)
------------------------

IBATCH = 1 of  2
IBATCH = 2 of  2
Closing buffer KAO     (51.03 GB; CompressionRatio= 1.00)
Collecting buffer KAO 
N(AO-Batches) Done                         ...  85633664 
N(AO-Batches) Skipped                      ...  81907035 
N(IJ)-pairs Skipped                        ...         0 
TOTAL TIME for half transformation         ...  2334.130 sec
AO-integral generation                     ...   209.285 sec
Half transformation                        ...   422.788 sec
K-integral sorting                         ...  1473.560 sec
Process 10:   Internal MO 132
Process 13:   Internal MO 156
Process  1:   Internal MO  60
Process  4:   Internal MO  84
Process  7:   Internal MO 108

Finished integral transformation - now doing MP2 part

OPERATOR COMBINATION   0   0: ij=( 52..178, 52..178)
Process  0:   Internal MO  54
Process  0:   Internal MO  57
Process  2:   Internal MO  69
Process  1:   Internal MO  63
Process  3:   Internal MO  78
Process  5:   Internal MO  93
Process  8:   Internal MO 117
Process  1:   Internal MO  66
Process  2:   Internal MO  72
Process 14:   Internal MO 165
Process  4:   Internal MO  87
Process 11:   Internal MO 141
Process  6:   Internal MO 102
Process  9:   Internal MO 126
Process  3:   Internal MO  81
Process  2:   Internal MO  75
Process  7:   Internal MO 111
Process  5:   Internal MO  96
Process  4:   Internal MO  90
Process 12:   Internal MO 150
Process 15:   Internal MO 174
Process 10:   Internal MO 135
Process  6:   Internal MO 105
Process  8:   Internal MO 120
Process  5:   Internal MO  99
Process  7:   Internal MO 114
Process  9:   Internal MO 129
Process 11:   Internal MO 144
Process 13:   Internal MO 159
Process 14:   Internal MO 168
Process 12:   Internal MO 153
Process  8:   Internal MO 123
Process 10:   Internal MO 138
Process 15:   Internal MO 177
Process 11:   Internal MO 147
Process 13:   Internal MO 162
Process 14:   Internal MO 171
-----------------------------------------------
 MP2 CORRELATION ENERGY   :     -7.271170262 Eh
-----------------------------------------------


-------
TIMINGS
-------
Total time                : 2617.952 sec
Integral trafo            : 2336.896 sec ( 89.3%)
K(i,j)                    :    5.969 sec (  0.2%)
T(i,j)                    :    0.080 sec (  0.0%)

---------------------------------------
MP2 TOTAL ENERGY:    -2130.883209790 Eh
---------------------------------------

Maximum memory used throughout the entire MP2-calculation: 2275.2 MB

-------------------------   --------------------
FINAL SINGLE POINT ENERGY     -2130.883209789965
-------------------------   --------------------


                            ***************************************
                            *     ORCA property calculations      *
                            ***************************************


  WARNING: The energy has been calculated at the MP2 level but the densities
           used in the property calculations are still SCF densities
           MP2 response densities have not been calculated 
           use %mp2 Density relaxed end
           or  %mp2 Density unrelaxed end

                                    ---------------------
                                    Active property flags
                                    ---------------------
   (+) Dipole Moment


------------------------------------------------------------------------------
                       ORCA ELECTRIC PROPERTIES CALCULATION
------------------------------------------------------------------------------

Dipole Moment Calculation                       ... on
Quadrupole Moment Calculation                   ... off
Polarizability Calculation                      ... off
GBWName                                         ... /scratch/allen/tmpyp4_amber_gaff2/conf1/conf1/Conf259.orca.gbw
Electron density                                ... /scratch/allen/tmpyp4_amber_gaff2/conf1/conf1/Conf259.orca.scfp
The origin for moment calculation is the CENTER OF MASS  = ( 0.000812, -0.003442 -0.001723)

-------------
DIPOLE MOMENT
-------------
                                X             Y             Z
Electronic contribution:     -3.92317       4.11436      -0.08095
Nuclear contribution   :      0.06440       0.23086       0.10285
                        -----------------------------------------
Total Dipole Moment    :     -3.85876       4.34522       0.02190
                        -----------------------------------------
Magnitude (a.u.)       :      5.81132
Magnitude (Debye)      :     14.77120



--------------------
Rotational spectrum 
--------------------
 
Rotational constants in cm-1:     0.001498     0.001473     0.000763 
Rotational constants in MHz :    44.910992    44.144502    22.863616 

 Dipole components along the rotational axes: 
x,y,z [a.u.] :    -5.212172     2.569866     0.022263 
x,y,z [Debye]:   -13.248287     6.532080     0.056589 

 

Timings for individual modules:

Sum of individual times         ...     4616.846 sec (=  76.947 min)
GTO integral calculation        ...        4.020 sec (=   0.067 min)   0.1 %
SCF iterations                  ...     1974.822 sec (=  32.914 min)  42.8 %
MP2 module                      ...     2638.005 sec (=  43.967 min)  57.1 %
                             ****ORCA TERMINATED NORMALLY****
TOTAL RUN TIME: 0 days 1 hours 17 minutes 0 seconds 400 msec
# of primitive gaussian functions

