
                                 *****************
                                 * O   R   C   A *
                                 *****************

                                            #,                                       
                                            ###                                      
                                            ####                                     
                                            #####                                    
                                            ######                                   
                                           ########,                                 
                                     ,,################,,,,,                         
                               ,,#################################,,                 
                          ,,##########################################,,             
                       ,#########################################, ''#####,          
                    ,#############################################,,   '####,        
                  ,##################################################,,,,####,       
                ,###########''''           ''''###############################       
              ,#####''   ,,,,##########,,,,          '''####'''          '####       
            ,##' ,,,,###########################,,,                        '##       
           ' ,,###''''                  '''############,,,                           
         ,,##''                                '''############,,,,        ,,,,,,###''
      ,#''                                            '''#######################'''  
     '                                                          ''''####''''         
             ,#######,   #######,   ,#######,      ##                                
            ,#'     '#,  ##    ##  ,#'     '#,    #''#        ######   ,####,        
            ##       ##  ##   ,#'  ##            #'  '#       #        #'  '#        
            ##       ##  #######   ##           ,######,      #####,   #    #        
            '#,     ,#'  ##    ##  '#,     ,#' ,#      #,         ##   #,  ,#        
             '#######'   ##     ##  '#######'  #'      '#     #####' # '####'        



                  #######################################################
                  #                        -***-                        #
                  #          Department of theory and spectroscopy      #
                  #    Directorship and core code : Frank Neese         #
                  #        Max Planck Institute fuer Kohlenforschung    #
                  #                Kaiser Wilhelm Platz 1               #
                  #                 D-45470 Muelheim/Ruhr               #
                  #                      Germany                        #
                  #                                                     #
                  #                  All rights reserved                #
                  #                        -***-                        #
                  #######################################################


                         Program Version 5.0.4 -  RELEASE  -


 With contributions from (in alphabetic order):
   Daniel Aravena         : Magnetic Suceptibility
   Michael Atanasov       : Ab Initio Ligand Field Theory (pilot matlab implementation)
   Alexander A. Auer      : GIAO ZORA, VPT2 properties, NMR spectrum
   Ute Becker             : Parallelization
   Giovanni Bistoni       : ED, misc. LED, open-shell LED, HFLD
   Martin Brehm           : Molecular dynamics
   Dmytro Bykov           : SCF Hessian
   Vijay G. Chilkuri      : MRCI spin determinant printing, contributions to CSF-ICE
   Dipayan Datta          : RHF DLPNO-CCSD density
   Achintya Kumar Dutta   : EOM-CC, STEOM-CC
   Dmitry Ganyushin       : Spin-Orbit,Spin-Spin,Magnetic field MRCI
   Miquel Garcia          : C-PCM and meta-GGA Hessian, CC/C-PCM, Gaussian charge scheme
   Yang Guo               : DLPNO-NEVPT2, F12-NEVPT2, CIM, IAO-localization
   Andreas Hansen         : Spin unrestricted coupled pair/coupled cluster methods
   Benjamin Helmich-Paris : MC-RPA, TRAH-SCF, COSX integrals
   Lee Huntington         : MR-EOM, pCC
   Robert Izsak           : Overlap fitted RIJCOSX, COSX-SCS-MP3, EOM
   Marcus Kettner         : VPT2
   Christian Kollmar      : KDIIS, OOCD, Brueckner-CCSD(T), CCSD density, CASPT2, CASPT2-K
   Simone Kossmann        : Meta GGA functionals, TD-DFT gradient, OOMP2, MP2 Hessian
   Martin Krupicka        : Initial AUTO-CI
   Lucas Lang             : DCDCAS
   Marvin Lechner         : AUTO-CI (C++ implementation), FIC-MRCC
   Dagmar Lenk            : GEPOL surface, SMD
   Dimitrios Liakos       : Extrapolation schemes; Compound Job, initial MDCI parallelization
   Dimitrios Manganas     : Further ROCIS development; embedding schemes
   Dimitrios Pantazis     : SARC Basis sets
   Anastasios Papadopoulos: AUTO-CI, single reference methods and gradients
   Taras Petrenko         : DFT Hessian,TD-DFT gradient, ASA, ECA, R-Raman, ABS, FL, XAS/XES, NRVS
   Peter Pinski           : DLPNO-MP2, DLPNO-MP2 Gradient
   Christoph Reimann      : Effective Core Potentials
   Marius Retegan         : Local ZFS, SOC
   Christoph Riplinger    : Optimizer, TS searches, QM/MM, DLPNO-CCSD(T), (RO)-DLPNO pert. Triples
   Tobias Risthaus        : Range-separated hybrids, TD-DFT gradient, RPA, STAB
   Michael Roemelt        : Original ROCIS implementation
   Masaaki Saitow         : Open-shell DLPNO-CCSD energy and density
   Barbara Sandhoefer     : DKH picture change effects
   Avijit Sen             : IP-ROCIS
   Kantharuban Sivalingam : CASSCF convergence, NEVPT2, FIC-MRCI
   Bernardo de Souza      : ESD, SOC TD-DFT
   Georgi Stoychev        : AutoAux, RI-MP2 NMR, DLPNO-MP2 response
   Willem Van den Heuvel  : Paramagnetic NMR
   Boris Wezisla          : Elementary symmetry handling
   Frank Wennmohs         : Technical directorship


 We gratefully acknowledge several colleagues who have allowed us to
 interface, adapt or use parts of their codes:
   Stefan Grimme, W. Hujo, H. Kruse, P. Pracht,  : VdW corrections, initial TS optimization,
                  C. Bannwarth, S. Ehlert          DFT functionals, gCP, sTDA/sTD-DF
   Ed Valeev, F. Pavosevic, A. Kumar             : LibInt (2-el integral package), F12 methods
   Garnet Chan, S. Sharma, J. Yang, R. Olivares  : DMRG
   Ulf Ekstrom                                   : XCFun DFT Library
   Mihaly Kallay                                 : mrcc  (arbitrary order and MRCC methods)
   Jiri Pittner, Ondrej Demel                    : Mk-CCSD
   Frank Weinhold                                : gennbo (NPA and NBO analysis)
   Christopher J. Cramer and Donald G. Truhlar   : smd solvation model
   Lars Goerigk                                  : TD-DFT with DH, B97 family of functionals
   V. Asgeirsson, H. Jonsson                     : NEB implementation
   FAccTs GmbH                                   : IRC, NEB, NEB-TS, DLPNO-Multilevel, CI-OPT
                                                   MM, QMMM, 2- and 3-layer-ONIOM, Crystal-QMMM,
                                                   LR-CPCM, SF, NACMEs, symmetry and pop. for TD-DFT,
                                                   nearIR, NL-DFT gradient (VV10), updates on ESD,
                                                   ML-optimized integration grids
   S Lehtola, MJT Oliveira, MAL Marques          : LibXC Library
   Liviu Ungur et al                             : ANISO software


 Your calculation uses the libint2 library for the computation of 2-el integrals
 For citations please refer to: http://libint.valeyev.net

 Your ORCA version has been built with support for libXC version: 5.1.0
 For citations please refer to: https://tddft.org/programs/libxc/

 This ORCA versions uses:
   CBLAS   interface :  Fast vector & matrix operations
   LAPACKE interface :  Fast linear algebra routines
   SCALAPACK package :  Parallel linear algebra routines
   Shared memory     :  Shared parallel matrices
   BLAS/LAPACK       :  OpenBLAS 0.3.15  USE64BITINT DYNAMIC_ARCH NO_AFFINITY Sandybridge SINGLE_THREADED
        Core in use  :  Sandybridge
   Copyright (c) 2011-2014, The OpenBLAS Project


================================================================================

----- Orbital basis set information -----
Your calculation utilizes the basis: cc-pVDZ 
       H, B-Ne : Obtained from the ccRepo (grant-hill.group.shef.ac.uk/ccrepo) Feb. 2017
                 T. H. Dunning, Jr., J. Chem. Phys. 90, 1007 (1989)
            He : Obtained from the ccRepo (grant-hill.group.shef.ac.uk/ccrepo) Feb. 2017
                 D. E. Woon, T. H. Dunning, Jr., J. Chem. Phys. 100, 2975 (1994)
  Li-Be, Na-Mg : Obtained from the ccRepo (grant-hill.group.shef.ac.uk/ccrepo) Feb. 2017
                 B. P. Prascher, D. E. Woon, K. A. Peterson, T. H. Dunning, Jr., A. K. Wilson, Theor. Chem. Acc. 128, 69 (2011)
         Al-Ar : Obtained from the ccRepo (grant-hill.group.shef.ac.uk/ccrepo) Feb. 2017
                 D. E. Woon, T. H. Dunning, Jr., J. Chem. Phys. 98, 1358 (1993)
            Ca : Obtained from the Peterson Research Group Website (tyr0.chem.wsu.edu/~kipeters) Feb. 2017
                 J. Koput, K. A. Peterson, J. Phys. Chem. 106, 9595 (2002)
         Sc-Zn : Obtained from the ccRepo (grant-hill.group.shef.ac.uk/ccrepo) Feb. 2017
                 N. B. Balabanov, K. A. Peterson, J. Chem. Phys. 123, 064107 (2005)
                 N. B. Balabanov, K. A. Peterson, J. Chem. Phys. 125, 074110 (2006)
         Ga-Kr : Obtained from the ccRepo (grant-hill.group.shef.ac.uk/ccrepo) Feb. 2017
                 A. K. Wilson, D. E. Woon, K. A. Peterson, T. H. Dunning, Jr., J. Chem. Phys. 110, 7667 (1999)

================================================================================
                                        WARNINGS
                       Please study these warnings very carefully!
================================================================================


WARNING: No MP2 level density has been requested!
         To caclulate MP2 level properties use
         %mp2 Density relaxed end
         or
         %mp2 Density unrelaxed end

WARNING: Post HF methods need fully converged wavefunctions
  ===> : Setting SCFConvForced true
         You can overwrite this default with %scf ConvForced false 


INFO   : the flag for use of the SHARK integral package has been found!

================================================================================
                                       INPUT FILE
================================================================================
NAME = /scratch/allen/tmpyp4_amber_gaff2/2.Mdgx/conf11/conf11/Conf74.orca
|  1> ! PAL2
|  2> ! mp2 cc-pvdz TightSCF  NoKeepInts
|  3> 
|  4> %scf
|  5>   MaxCore 2000
|  6> end
|  7> %mp2
|  8>   MaxCore 2000
|  9> end
| 10> * xyz 0 1
| 11>    C       -3.70400         6.05900        -1.02100
| 12>    C        1.47400         4.04100         0.05700
| 13>    C       -2.80200         4.09300         0.04900
| 14>    C       -3.49600         4.46900         1.21000
| 15>    C       -4.26600         5.61400         1.21700
| 16>    C       -5.22400         7.59400         0.14200
| 17>    C        0.13200         4.30700         0.06100
| 18>    C       -0.56900         3.05600         0.04700
| 19>    C        1.64900         2.61800         0.02300
| 20>    C       -2.92600         4.91900        -1.07900
| 21>    N       -4.36000         6.39300         0.11400
| 22>    N        0.38800         2.06700         0.02500
| 23>    N       -2.01000         0.39500        -0.07500
| 24>    N       -0.38800        -2.07400        -0.02700
| 25>    N        2.01000        -0.40100         0.06500
| 26>    C       -1.96000         2.86100         0.02400
| 27>    C       -2.62300         1.61500        -0.01800
| 28>    C       -5.57300        -4.32900         1.06600
| 29>    C       -4.07300         1.47100         0.05600
| 30>    C       -4.10600        -2.75600        -0.02600
| 31>    C       -4.99500        -2.75700        -1.11100
| 32>    C       -6.13200        -3.54200        -1.07600
| 33>    C       -7.65100        -5.11300         0.04000
| 34>    C       -4.32400         0.14100         0.03700
| 35>    C       -3.02500        -0.52000        -0.04800
| 36>    C       -4.42200        -3.56600         1.07500
| 37>    N       -6.40700        -4.31300         0.00100
| 38>    C       -2.86700        -1.92200        -0.04000
| 39>    C       -1.65000        -2.62400        -0.02700
| 40>    C        3.56800        -6.14200        -1.04000
| 41>    C       -1.47600        -4.04900        -0.03400
| 42>    C        2.80300        -4.09900        -0.00800
| 43>    C        3.65700        -4.38400         1.06900
| 44>    C        4.42700        -5.53000         1.05900
| 45>    C        5.24500        -7.58800         0.01400
| 46>    C       -0.13400        -4.31500        -0.02200
| 47>    C        0.56800        -3.06400        -0.02700
| 48>    C        2.77500        -5.01200        -1.07400
| 49>    N        4.37600        -6.39100         0.01700
| 50>    C        1.95900        -2.86900        -0.00900
| 51>    C        2.62100        -1.62200         0.00900
| 52>    C        5.54300         4.33900        -1.13000
| 53>    C        4.07000        -1.47900        -0.09400
| 54>    C        4.10400         2.75100        -0.02100
| 55>    C        5.02700         2.72900         1.03600
| 56>    C        6.16600         3.50900         0.97800
| 57>    C        7.61900         5.15300        -0.11500
| 58>    C        4.32100        -0.14800        -0.09200
| 59>    C        3.02500         0.51400         0.01500
| 60>    C        4.38700         3.58200        -1.11500
| 61>    C        2.86600         1.91600         0.01300
| 62>    N        6.41300         4.29600        -0.09500
| 63>    H       -3.81800         6.73200        -1.86200
| 64>    H        2.27400         4.76600         0.08100
| 65>    H       -3.44800         3.86700         2.10900
| 66>    H       -4.82600         5.93900         2.08400
| 67>    H       -6.24700         7.30200        -0.10500
| 68>    H       -5.18900         8.02800         1.14100
| 69>    H       -4.85200         8.31100        -0.59000
| 70>    H       -0.33200         5.28200         0.06900
| 71>    H       -2.40300         4.69100        -2.00000
| 72>    H        0.18200         1.07200         0.00500
| 73>    H       -0.18300        -1.08000        -0.02100
| 74>    H       -5.86400        -4.96200         1.89500
| 75>    H       -4.79400         2.27200         0.13900
| 76>    H       -4.80000        -2.16000        -1.99400
| 77>    H       -6.84100        -3.58200        -1.89300
| 78>    H       -8.42800        -4.53600         0.54600
| 79>    H       -7.95600        -5.33700        -0.98100
| 80>    H       -7.45600        -6.03700         0.58400
| 81>    H       -5.28700        -0.34400         0.10000
| 82>    H       -3.78000        -3.60100         1.94700
| 83>    H        3.58700        -6.86800        -1.84300
| 84>    H       -2.27600        -4.77400        -0.05000
| 85>    H        3.71400        -3.72400         1.92600
| 86>    H        5.09200        -5.79500         1.87100
| 87>    H        6.20500        -7.32900        -0.43900
| 88>    H        5.39300        -7.91700         1.04200
| 89>    H        4.75900        -8.37300        -0.56400
| 90>    H        0.32900        -5.29000        -0.00800
| 91>    H        2.14600        -4.84200        -1.94000
| 92>    H        5.80800         4.98600        -1.95600
| 93>    H        4.78800        -2.28100        -0.18500
| 94>    H        4.86000         2.11400         1.91200
| 95>    H        6.90100         3.53100         1.77200
| 96>    H        7.38300         6.10900         0.35600
| 97>    H        8.41400         4.65200         0.43500
| 98>    H        7.92100         5.31000        -1.15000
| 99>    H        5.28300         0.33600        -0.17900
|100>    H        3.72000         3.63200        -1.96700
|101> *
|102> 
|103>                          ****END OF INPUT****
================================================================================

                       ****************************
                       * Single Point Calculation *
                       ****************************

---------------------------------
CARTESIAN COORDINATES (ANGSTROEM)
---------------------------------
  C     -3.704000    6.059000   -1.021000
  C      1.474000    4.041000    0.057000
  C     -2.802000    4.093000    0.049000
  C     -3.496000    4.469000    1.210000
  C     -4.266000    5.614000    1.217000
  C     -5.224000    7.594000    0.142000
  C      0.132000    4.307000    0.061000
  C     -0.569000    3.056000    0.047000
  C      1.649000    2.618000    0.023000
  C     -2.926000    4.919000   -1.079000
  N     -4.360000    6.393000    0.114000
  N      0.388000    2.067000    0.025000
  N     -2.010000    0.395000   -0.075000
  N     -0.388000   -2.074000   -0.027000
  N      2.010000   -0.401000    0.065000
  C     -1.960000    2.861000    0.024000
  C     -2.623000    1.615000   -0.018000
  C     -5.573000   -4.329000    1.066000
  C     -4.073000    1.471000    0.056000
  C     -4.106000   -2.756000   -0.026000
  C     -4.995000   -2.757000   -1.111000
  C     -6.132000   -3.542000   -1.076000
  C     -7.651000   -5.113000    0.040000
  C     -4.324000    0.141000    0.037000
  C     -3.025000   -0.520000   -0.048000
  C     -4.422000   -3.566000    1.075000
  N     -6.407000   -4.313000    0.001000
  C     -2.867000   -1.922000   -0.040000
  C     -1.650000   -2.624000   -0.027000
  C      3.568000   -6.142000   -1.040000
  C     -1.476000   -4.049000   -0.034000
  C      2.803000   -4.099000   -0.008000
  C      3.657000   -4.384000    1.069000
  C      4.427000   -5.530000    1.059000
  C      5.245000   -7.588000    0.014000
  C     -0.134000   -4.315000   -0.022000
  C      0.568000   -3.064000   -0.027000
  C      2.775000   -5.012000   -1.074000
  N      4.376000   -6.391000    0.017000
  C      1.959000   -2.869000   -0.009000
  C      2.621000   -1.622000    0.009000
  C      5.543000    4.339000   -1.130000
  C      4.070000   -1.479000   -0.094000
  C      4.104000    2.751000   -0.021000
  C      5.027000    2.729000    1.036000
  C      6.166000    3.509000    0.978000
  C      7.619000    5.153000   -0.115000
  C      4.321000   -0.148000   -0.092000
  C      3.025000    0.514000    0.015000
  C      4.387000    3.582000   -1.115000
  C      2.866000    1.916000    0.013000
  N      6.413000    4.296000   -0.095000
  H     -3.818000    6.732000   -1.862000
  H      2.274000    4.766000    0.081000
  H     -3.448000    3.867000    2.109000
  H     -4.826000    5.939000    2.084000
  H     -6.247000    7.302000   -0.105000
  H     -5.189000    8.028000    1.141000
  H     -4.852000    8.311000   -0.590000
  H     -0.332000    5.282000    0.069000
  H     -2.403000    4.691000   -2.000000
  H      0.182000    1.072000    0.005000
  H     -0.183000   -1.080000   -0.021000
  H     -5.864000   -4.962000    1.895000
  H     -4.794000    2.272000    0.139000
  H     -4.800000   -2.160000   -1.994000
  H     -6.841000   -3.582000   -1.893000
  H     -8.428000   -4.536000    0.546000
  H     -7.956000   -5.337000   -0.981000
  H     -7.456000   -6.037000    0.584000
  H     -5.287000   -0.344000    0.100000
  H     -3.780000   -3.601000    1.947000
  H      3.587000   -6.868000   -1.843000
  H     -2.276000   -4.774000   -0.050000
  H      3.714000   -3.724000    1.926000
  H      5.092000   -5.795000    1.871000
  H      6.205000   -7.329000   -0.439000
  H      5.393000   -7.917000    1.042000
  H      4.759000   -8.373000   -0.564000
  H      0.329000   -5.290000   -0.008000
  H      2.146000   -4.842000   -1.940000
  H      5.808000    4.986000   -1.956000
  H      4.788000   -2.281000   -0.185000
  H      4.860000    2.114000    1.912000
  H      6.901000    3.531000    1.772000
  H      7.383000    6.109000    0.356000
  H      8.414000    4.652000    0.435000
  H      7.921000    5.310000   -1.150000
  H      5.283000    0.336000   -0.179000
  H      3.720000    3.632000   -1.967000

----------------------------
CARTESIAN COORDINATES (A.U.)
----------------------------
  NO LB      ZA    FRAG     MASS         X           Y           Z
   0 C     6.0000    0    12.011   -6.999546   11.449851   -1.929410
   1 C     6.0000    0    12.011    2.785456    7.636383    0.107714
   2 C     6.0000    0    12.011   -5.295013    7.734649    0.092597
   3 C     6.0000    0    12.011   -6.606483    8.445186    2.286569
   4 C     6.0000    0    12.011   -8.061572   10.608923    2.299797
   5 C     6.0000    0    12.011   -9.871929   14.350580    0.268341
   6 C     6.0000    0    12.011    0.249444    8.139050    0.115273
   7 C     6.0000    0    12.011   -1.075254    5.775003    0.088817
   8 C     6.0000    0    12.011    3.116158    4.947303    0.043464
   9 C     6.0000    0    12.011   -5.529339    9.295563   -2.039014
  10 N     7.0000    0    14.007   -8.239206   12.081019    0.215429
  11 N     7.0000    0    14.007    0.733214    3.906064    0.047243
  12 N     7.0000    0    14.007   -3.798350    0.746442   -0.141729
  13 N     7.0000    0    14.007   -0.733214   -3.919292   -0.051023
  14 N     7.0000    0    14.007    3.798350   -0.757780    0.122832
  15 C     6.0000    0    12.011   -3.703863    5.406506    0.045353
  16 C     6.0000    0    12.011   -4.956752    3.051908   -0.034015
  17 C     6.0000    0    12.011  -10.531444   -8.180624    2.014448
  18 C     6.0000    0    12.011   -7.696855    2.779787    0.105825
  19 C     6.0000    0    12.011   -7.759216   -5.208085   -0.049133
  20 C     6.0000    0    12.011   -9.439182   -5.209975   -2.099486
  21 C     6.0000    0    12.011  -11.587801   -6.693410   -2.033345
  22 C     6.0000    0    12.011  -14.458295   -9.662170    0.075589
  23 C     6.0000    0    12.011   -8.171176    0.266451    0.069920
  24 C     6.0000    0    12.011   -5.716422   -0.982658   -0.090707
  25 C     6.0000    0    12.011   -8.356369   -6.738763    2.031456
  26 N     7.0000    0    14.007  -12.107475   -8.150389    0.001890
  27 C     6.0000    0    12.011   -5.417845   -3.632054   -0.075589
  28 C     6.0000    0    12.011   -3.118048   -4.958641   -0.051023
  29 C     6.0000    0    12.011    6.742543  -11.606698   -1.965315
  30 C     6.0000    0    12.011   -2.789236   -7.651501   -0.064251
  31 C     6.0000    0    12.011    5.296902   -7.745987   -0.015118
  32 C     6.0000    0    12.011    6.910728   -8.284559    2.020117
  33 C     6.0000    0    12.011    8.365818  -10.450186    2.001220
  34 C     6.0000    0    12.011    9.911614  -14.339242    0.026456
  35 C     6.0000    0    12.011   -0.253223   -8.154168   -0.041574
  36 C     6.0000    0    12.011    1.073364   -5.790121   -0.051023
  37 C     6.0000    0    12.011    5.243990   -9.471307   -2.029566
  38 N     7.0000    0    14.007    8.269442  -12.077240    0.032125
  39 C     6.0000    0    12.011    3.701973   -5.421624   -0.017008
  40 C     6.0000    0    12.011    4.952972   -3.065136    0.017008
  41 C     6.0000    0    12.011   10.474752    8.199522   -2.135391
  42 C     6.0000    0    12.011    7.691185   -2.794905   -0.177634
  43 C     6.0000    0    12.011    7.755436    5.198637   -0.039684
  44 C     6.0000    0    12.011    9.499653    5.157063    1.957756
  45 C     6.0000    0    12.011   11.652051    6.631049    1.848152
  46 C     6.0000    0    12.011   14.397823    9.737759   -0.217319
  47 C     6.0000    0    12.011    8.165507   -0.279679   -0.173855
  48 C     6.0000    0    12.011    5.716422    0.971319    0.028346
  49 C     6.0000    0    12.011    8.290229    6.768999   -2.107045
  50 C     6.0000    0    12.011    5.415955    3.620715    0.024566
  51 N     7.0000    0    14.007   12.118814    8.118263   -0.179524
  52 H     1.0000    0     1.008   -7.214974   12.721636   -3.518670
  53 H     1.0000    0     1.008    4.297237    9.006435    0.153068
  54 H     1.0000    0     1.008   -6.515776    7.307571    3.985432
  55 H     1.0000    0     1.008   -9.119818   11.223084    3.938189
  56 H     1.0000    0     1.008  -11.805119   13.798780   -0.198421
  57 H     1.0000    0     1.008   -9.805789   15.170721    2.156178
  58 H     1.0000    0     1.008   -9.168951   15.705514   -1.114938
  59 H     1.0000    0     1.008   -0.627389    9.981533    0.130391
  60 H     1.0000    0     1.008   -4.541012    8.864705   -3.779452
  61 H     1.0000    0     1.008    0.343930    2.025786    0.009449
  62 H     1.0000    0     1.008   -0.345820   -2.040904   -0.039684
  63 H     1.0000    0     1.008  -11.081354   -9.376821    3.581031
  64 H     1.0000    0     1.008   -9.059347    4.293458    0.262672
  65 H     1.0000    0     1.008   -9.070685   -4.081808   -3.768114
  66 H     1.0000    0     1.008  -12.927616   -6.768999   -3.577252
  67 H     1.0000    0     1.008  -15.926612   -8.571798    1.031790
  68 H     1.0000    0     1.008  -15.034661  -10.085468   -1.853821
  69 H     1.0000    0     1.008  -14.089798  -11.408277    1.103600
  70 H     1.0000    0     1.008   -9.990982   -0.650066    0.188973
  71 H     1.0000    0     1.008   -7.143165   -6.804904    3.679297
  72 H     1.0000    0     1.008    6.778448  -12.978639   -3.482765
  73 H     1.0000    0     1.008   -4.301017   -9.021553   -0.094486
  74 H     1.0000    0     1.008    7.018443   -7.037340    3.639613
  75 H     1.0000    0     1.008    9.622485  -10.950963    3.535678
  76 H     1.0000    0     1.008   11.725751  -13.849803   -0.829590
  77 H     1.0000    0     1.008   10.191293  -14.960962    1.969095
  78 H     1.0000    0     1.008    8.993207  -15.822677   -1.065806
  79 H     1.0000    0     1.008    0.621720   -9.996651   -0.015118
  80 H     1.0000    0     1.008    4.055352   -9.150054   -3.666069
  81 H     1.0000    0     1.008   10.975529    9.422175   -3.696304
  82 H     1.0000    0     1.008    9.048009   -4.310465   -0.349599
  83 H     1.0000    0     1.008    9.184069    3.994881    3.613156
  84 H     1.0000    0     1.008   13.041000    6.672623    3.348595
  85 H     1.0000    0     1.008   13.951848   11.544337    0.672743
  86 H     1.0000    0     1.008   15.900156    8.791006    0.822031
  87 H     1.0000    0     1.008   14.968521   10.034446   -2.173185
  88 H     1.0000    0     1.008    9.983423    0.634948   -0.338261
  89 H     1.0000    0     1.008    7.029781    6.863485   -3.717091

--------------------------------
INTERNAL COORDINATES (ANGSTROEM)
--------------------------------
 C      0   0   0     0.000000000000     0.00000000     0.00000000
 C      1   0   0     5.660926779247     0.00000000     0.00000000
 C      1   2   0     2.413226056548    44.21431988     0.00000000
 C      3   1   2     1.403899212907    87.92051372   121.50295288
 C      4   3   1     1.379845643541   120.15192176     0.15362585
 C      5   4   3     2.448221599447   152.52805637     1.62181715
 C      2   1   3     1.368114030335    14.98695799   339.23385563
 C      7   2   3     1.434084376876   108.05010202     0.84668783
 C      2   1   3     1.434123425651   117.43971290    33.98506954
 C      1   2   3     1.381393499333    36.74141174   314.01451028
 N      1   2   3     1.352818169600   111.82610289    66.69697798
 N      9   2   1     1.376127174356   106.58526707   346.39133282
 N     12   9   2     2.925062050624   168.53581413   171.12065651
 N     13  12   9     2.954513327098    91.55032014    11.12112580
 N     14  13  12     2.925371258490    88.43092389   359.84326247
 C      8   7   2     1.404790019896   127.24786865   181.11170171
 C     13  12   9     1.366535034311    81.72106996   188.00453233
 C     14  13  12     5.758810554272    80.56209567   166.76250791
 C     17  13  12     1.459010623676   111.08861209   183.82872609
 C     18  14  13     2.412235892279    27.27532823    36.33507194
 C     20  18  14     1.402692767501    87.95206320   148.94598259
 C     21  20  18     1.382106725257   120.14573887   359.70382047
 C     18  14  13     2.446510985056   144.15733107    82.80075377
 C     19  17  13     1.353610726908   106.29293361   359.75308708
 C     13  12   9     1.366813447402   172.21332906    33.46711076
 C     18  14  13     1.380960173213    15.08449437   309.23336894
 N     22  21  20     1.352773077792   120.73759875     0.27865223
 C     25  13  17     1.410897586645   125.60330303   182.37774668
 C     14  13  12     1.376642291955    80.24689249   177.85461986
 C     14  13  12     5.764089607215   164.51507311   312.20821879
 C     29  14  13     1.435600919476   106.58649366   178.76395472
 C     30  14  13     2.413316804732    27.10625047    82.12560436
 C     32  30  14     1.403734305344    87.90059683   149.76154742
 C     33  32  30     1.380694028378   120.14881443   359.74174632
 C     34  33  32     2.448777858443   152.49203239     2.45173620
 C     31  29  14     1.368160809262   108.16950133     0.70383075
 C     14  13  12     1.376239804685   169.26375223   353.09862627
 C     30  14  13     1.380907310430    14.68948582   353.70041132
 N     34  33  32     1.352658863128   120.85575621     0.19603406
 C     37  14  29     1.404717053360   126.01551127   180.90772073
 C     15  14  13     1.366491126938    81.61824056   183.09049352
 C      2   1   3     4.249062720177   142.91398503   159.87290904
 C     41  15  14     1.459677704153   111.05201287   175.08990246
 C     42   2   1     2.412953791518    41.78584867   202.41560895
 C     44  42   2     1.403446472082    87.95153797   233.97558675
 C     45  44  42     1.381696421071   120.11137308     0.19721020
 C     42   2   1     2.450019795838   135.97209175   112.73045805
 C     43  41  15     1.354461516618   106.26758155     0.30894352
 C     15  14  13     1.367461151185   171.87382904   332.35056460
 C     42   2   1     1.381886391857    32.59078432   251.27088814
 C      9   2   1     1.404988612053   126.98745415   167.39567035
 N     42   2   1     1.352765315936   113.57249190   140.46704724
 H      1   2   3     1.083146342836   117.75038387   205.70454775
 H      2   1   3     1.079907866440   116.26450219   202.59375257
 H      4   3   1     1.083009233571   121.04365078   179.50963668
 H      5   4   3     1.082087796808   122.82565157   179.39557862
 H      6   5   4     1.092154750940   104.45404980   100.08677324
 H      6   5   4     1.089762359416    84.66350353   209.51294371
 H      6   5   4     1.090090363227   133.88942804   322.32400839
 H      7   2  54     1.079807853278   126.66122480     1.30600390
 H     10   1   2     1.083399280044   118.76676336   266.61654739
 H     12   9   2     1.016297692608   125.29023241   180.00180175
 H     14  13  12     1.014936943854    44.97226959   359.42596618
 H     18  14  13     1.082871645210   128.03556573   234.20482432
 H     19  17  13     1.080893611786   126.41830519   178.11313280
 H     21  20  18     1.083569563987   121.05669627   180.67006309
 H     22  21  20     1.082483256222   122.73097286   180.59748951
 H     23  18  14     1.092105306278   103.92715769   234.93429879
 H     23  18  14     1.088871893291   134.19244188    12.25587044
 H     23  18  14     1.089833473518    84.85857450   125.45241208
 H     24  19  17     1.080075460327   127.28078426   178.44613241
 H     26  18  14     1.083408048706   118.76995697   244.94906660
 H     30  14  13     1.082703098730   127.99711412   279.66882698
 H     31  29  14     1.079759695488   125.22293469   180.92530585
 H     33  32  30     1.083188810873   121.01964473   180.74284758
 H     34  33  32     1.082494341787   122.70821597   180.59516895
 H     35  34  33     1.092652735319   105.73575241    97.19771933
 H     35  34  33     1.089462711615    84.05943581   206.43036958
 H     35  34  33     1.089268102902   133.08365142   318.50306270
 H     36  31  29     1.079439669458   126.61599965   178.98859863
 H     38  30  73     1.083742127999   118.77264435   359.90091293
 H     42   2   1     1.082178358682   119.31790784   357.09857770
 H     43  41  15     1.080281907652   126.36969097   182.06329380
 H     45  44  42     1.083277434455   121.10105945   179.58025624
 H     46  45  44     1.082194529648   122.72144639   179.46906377
 H     47  42   2     1.091546151109   106.65128841   315.16475048
 H     47  42   2     1.088818625851   132.46019523    94.52397119
 H     47  42   2     1.089531091801    83.63838232   206.04504406
 H     48  43  41     1.080402239909   127.23657387   181.62955349
 H     50  42   2     1.083186502870   118.77001737    94.71359229

---------------------------
INTERNAL COORDINATES (A.U.)
---------------------------
 C      0   0   0     0.000000000000     0.00000000     0.00000000
 C      1   0   0    10.697601276958     0.00000000     0.00000000
 C      1   2   0     4.560336346118    44.21431988     0.00000000
 C      3   1   2     2.652985032021    87.92051372   121.50295288
 C      4   3   1     2.607530373377   120.15192176     0.15362585
 C      5   4   3     4.626468338106   152.52805637     1.62181715
 C      2   1   3     2.585360837309    14.98695799   339.23385563
 C      7   2   3     2.710026725231   108.05010202     0.84668783
 C      2   1   3     2.710100516721   117.43971290    33.98506954
 C      1   2   3     2.610455396919    36.74141174   314.01451028
 N      1   2   3     2.556455849537   111.82610289    66.69697798
 N      9   2   1     2.600503484979   106.58526707   346.39133282
 N     12   9   2     5.527566200405   168.53581413   171.12065651
 N     13  12   9     5.583221047236    91.55032014    11.12112580
 N     14  13  12     5.528150518591    88.43092389   359.84326247
 C      8   7   2     2.654668413270   127.24786865   181.11170171
 C     13  12   9     2.582376967257    81.72106996   188.00453233
 C     14  13  12    10.882574804710    80.56209567   166.76250791
 C     17  13  12     2.757130505230   111.08861209   183.82872609
 C     18  14  13     4.558465206823    27.27532823    36.33507194
 C     20  18  14     2.650705180609    87.95206320   148.94598259
 C     21  20  18     2.611803198586   120.14573887   359.70382047
 C     18  14  13     4.623235745386   144.15733107    82.80075377
 C     19  17  13     2.557953565794   106.29293361   359.75308708
 C     13  12   9     2.582903091751   172.21332906    33.46711076
 C     18  14  13     2.609636529225    15.08449437   309.23336894
 N     22  21  20     2.556370638369   120.73759875     0.27865223
 C     25  13  17     2.666210041769   125.60330303   182.37774668
 C     14  13  12     2.601476916169    80.24689249   177.85461986
 C     14  13  12    10.892550769017   164.51507311   312.20821879
 C     29  14  13     2.712892575415   106.58649366   178.76395472
 C     30  14  13     4.560507835333    27.10625047    82.12560436
 C     32  30  14     2.652673401891    87.90059683   149.76154742
 C     33  32  30     2.609133588376   120.14881443   359.74174632
 C     34  33  32     4.627519515267   152.49203239     2.45173620
 C     31  29  14     2.585449236669   108.16950133     0.70383075
 C     14  13  12     2.600716325456   169.26375223   353.09862627
 C     30  14  13     2.609536633043    14.68948582   353.70041132
 N     34  33  32     2.556154803934   120.85575621     0.19603406
 C     37  14  29     2.654530526499   126.01551127   180.90772073
 C     15  14  13     2.582293994346    81.61824056   183.09049352
 C      2   1   3     8.029564866989   142.91398503   159.87290904
 C     41  15  14     2.758391104639   111.05201287   175.08990246
 C     42   2   1     4.559821839776    41.78584867   202.41560895
 C     44  42   2     2.652129475853    87.95153797   233.97558675
 C     45  44  42     2.611027836043   120.11137308     0.19721020
 C     42   2   1     4.629866436820   135.97209175   112.73045805
 C     43  41  15     2.559561325344   106.26758155     0.30894352
 C     15  14  13     2.584127074516   171.87382904   332.35056460
 C     42   2   1     2.611386828803    32.59078432   251.27088814
 C      9   2   1     2.655043698059   126.98745415   167.39567035
 N     42   2   1     2.556355970587   113.57249190   140.46704724
 H      1   2   3     2.046849950919   117.75038387   205.70454775
 H      2   1   3     2.040730117440   116.26450219   202.59375257
 H      4   3   1     2.046590851957   121.04365078   179.50963668
 H      5   4   3     2.044849588825   122.82565157   179.39557862
 H      6   5   4     2.063873375137   104.45404980   100.08677324
 H      6   5   4     2.059352410352    84.66350353   209.51294371
 H      6   5   4     2.059972247725   133.88942804   322.32400839
 H      7   2  54     2.040541119952   126.66122480     1.30600390
 H     10   1   2     2.047327932971   118.76676336   266.61654739
 H     12   9   2     1.920524309565   125.29023241   180.00180175
 H     14  13  12     1.917952867083    44.97226959   359.42596618
 H     18  14  13     2.046330847636   128.03556573   234.20482432
 H     19  17  13     2.042592906181   126.41830519   178.11313280
 H     21  20  18     2.047649722989   121.05669627   180.67006309
 H     22  21  20     2.045596898814   122.73097286   180.59748951
 H     23  18  14     2.063779938267   103.92715769   234.93429879
 H     23  18  14     2.057669673245   134.19244188    12.25587044
 H     23  18  14     2.059486796529    84.85857450   125.45241208
 H     24  19  17     2.041046823986   127.28078426   178.44613241
 H     26  18  14     2.047344503340   118.76995697   244.94906660
 H     30  14  13     2.046012340948   127.99711412   279.66882698
 H     31  29  14     2.040450114918   125.22293469   180.92530585
 H     33  32  30     2.046930203877   121.01964473   180.74284758
 H     34  33  32     2.045617847496   122.70821597   180.59516895
 H     35  34  33     2.064814429233   105.73575241    97.19771933
 H     35  34  33     2.058786158072    84.05943581   206.43036958
 H     35  34  33     2.058418400901   133.08365142   318.50306270
 H     36  31  29     2.039845353366   126.61599965   178.98859863
 H     38  30  73     2.047975821711   118.77264435   359.90091293
 H     42   2   1     2.045020725966   119.31790784   357.09857770
 H     43  41  15     2.041436952892   126.36969097   182.06329380
 H     45  44  42     2.047097678177   121.10105945   179.58025624
 H     46  45  44     2.045051284662   122.72144639   179.46906377
 H     47  42   2     2.062723288131   106.65128841   315.16475048
 H     47  42   2     2.057569012371   132.46019523    94.52397119
 H     47  42   2     2.058915377895    83.63838232   206.04504406
 H     48  43  41     2.041664347903   127.23657387   181.62955349
 H     50  42   2     2.046925842384   118.77001737    94.71359229

---------------------
BASIS SET INFORMATION
---------------------
There are 3 groups of distinct atoms

 Group   1 Type C   : 17s4p1d contracted to 3s2p1d pattern {881/31/1}
 Group   2 Type N   : 17s4p1d contracted to 3s2p1d pattern {881/31/1}
 Group   3 Type H   : 4s1p contracted to 2s1p pattern {31/1}

Atom   0C    basis set group =>   1
Atom   1N    basis set group =>   2
Atom   2C    basis set group =>   1
Atom   3N    basis set group =>   2
Atom   4C    basis set group =>   1
Atom   5N    basis set group =>   2
Atom   6C    basis set group =>   1
Atom   7N    basis set group =>   2
Atom   8C    basis set group =>   1
Atom   9N    basis set group =>   2
Atom  10C    basis set group =>   1
Atom  11N    basis set group =>   2
Atom  12C    basis set group =>   1
Atom  13N    basis set group =>   2
Atom  14C    basis set group =>   1
Atom  15N    basis set group =>   2
Atom  16C    basis set group =>   1
Atom  17C    basis set group =>   1
Atom  18C    basis set group =>   1
Atom  19C    basis set group =>   1
Atom  20C    basis set group =>   1
Atom  21C    basis set group =>   1
Atom  22C    basis set group =>   1
Atom  23C    basis set group =>   1
Atom  24C    basis set group =>   1
Atom  25C    basis set group =>   1
Atom  26C    basis set group =>   1
Atom  27C    basis set group =>   1
Atom  28C    basis set group =>   1
Atom  29C    basis set group =>   1
Atom  30C    basis set group =>   1
Atom  31C    basis set group =>   1
Atom  32C    basis set group =>   1
Atom  33C    basis set group =>   1
Atom  34C    basis set group =>   1
Atom  35C    basis set group =>   1
Atom  36C    basis set group =>   1
Atom  37C    basis set group =>   1
Atom  38C    basis set group =>   1
Atom  39C    basis set group =>   1
Atom  40C    basis set group =>   1
Atom  41C    basis set group =>   1
Atom  42C    basis set group =>   1
Atom  43C    basis set group =>   1
Atom  44C    basis set group =>   1
Atom  45C    basis set group =>   1
Atom  46C    basis set group =>   1
Atom  47C    basis set group =>   1
Atom  48C    basis set group =>   1
Atom  49C    basis set group =>   1
Atom  50C    basis set group =>   1
Atom  51C    basis set group =>   1
Atom  52H    basis set group =>   3
Atom  53H    basis set group =>   3
Atom  54H    basis set group =>   3
Atom  55H    basis set group =>   3
Atom  56H    basis set group =>   3
Atom  57H    basis set group =>   3
Atom  58H    basis set group =>   3
Atom  59H    basis set group =>   3
Atom  60H    basis set group =>   3
Atom  61H    basis set group =>   3
Atom  62H    basis set group =>   3
Atom  63H    basis set group =>   3
Atom  64H    basis set group =>   3
Atom  65H    basis set group =>   3
Atom  66H    basis set group =>   3
Atom  67H    basis set group =>   3
Atom  68H    basis set group =>   3
Atom  69H    basis set group =>   3
Atom  70H    basis set group =>   3
Atom  71H    basis set group =>   3
Atom  72H    basis set group =>   3
Atom  73H    basis set group =>   3
Atom  74H    basis set group =>   3
Atom  75H    basis set group =>   3
Atom  76H    basis set group =>   3
Atom  77H    basis set group =>   3
Atom  78H    basis set group =>   3
Atom  79H    basis set group =>   3
Atom  80H    basis set group =>   3
Atom  81H    basis set group =>   3
Atom  82H    basis set group =>   3
Atom  83H    basis set group =>   3
Atom  84H    basis set group =>   3
Atom  85H    basis set group =>   3
Atom  86H    basis set group =>   3
Atom  87H    basis set group =>   3
Atom  88H    basis set group =>   3
Atom  89H    basis set group =>   3


           ************************************************************
           *        Program running with 16 parallel MPI-processes    *
           *              working on a common directory               *
           ************************************************************
------------------------------------------------------------------------------
                           ORCA GTO INTEGRAL CALCULATION
------------------------------------------------------------------------------
------------------------------------------------------------------------------
                   ___                                                        
                  /   \      - P O W E R E D   B Y -                         
                 /     \                                                     
                 |  |  |   _    _      __       _____    __    __             
                 |  |  |  | |  | |    /  \     |  _  \  |  |  /  |          
                  \  \/   | |  | |   /    \    | | | |  |  | /  /          
                 / \  \   | |__| |  /  /\  \   | |_| |  |  |/  /          
                |  |  |   |  __  | /  /__\  \  |    /   |      \           
                |  |  |   | |  | | |   __   |  |    \   |  |\   \          
                \     /   | |  | | |  |  |  |  | |\  \  |  | \   \       
                 \___/    |_|  |_| |__|  |__|  |_| \__\ |__|  \__/        
                                                                              
                      - O R C A' S   B I G   F R I E N D -                    
                                      &                                       
                       - I N T E G R A L  F E E D E R -                       
                                                                              
 v1 FN, 2020, v2 2021                                                         
------------------------------------------------------------------------------


Reading SHARK input file /scratch/allen/tmpyp4_amber_gaff2/conf1/conf1/Conf74.orca.SHARKINP.tmp ... ok
----------------------
SHARK INTEGRAL PACKAGE
----------------------

Number of atoms                             ...     90
Number of basis functions                   ...   1230
Number of shells                            ...    738
Maximum angular momentum                    ...      2
Integral batch strategy                     ... SHARK/LIBINT Hybrid
RI-J (if used) integral strategy            ... SPLIT-RIJ (Revised 2003 algorithm where possible)
Printlevel                                  ...      1
Contraction scheme used                     ... PARTIAL GENERAL contraction
Coulomb Range Separation                    ... NOT USED
Exchange Range Separation                   ... NOT USED
Finite Nucleus Model                        ... NOT USED
Auxiliary Coulomb fitting basis             ... NOT available
Auxiliary J/K fitting basis                 ... NOT available
Auxiliary Correlation fitting basis         ... NOT available
Auxiliary 'external' fitting basis          ... NOT available
Integral threshold                          ...     2.500000e-11
Primitive cut-off                           ...     2.500000e-12
Primitive pair pre-selection threshold      ...     2.500000e-12

Calculating pre-screening integrals         ... done (  0.1 sec) Dimension = 738
Calculating pre-screening integrals (ORCA)  ... done (  0.3 sec) Dimension = 426
Organizing shell pair data                  ... done (  0.5 sec)
Shell pair information
Total number of shell pairs                 ...    272691
Shell pairs after pre-screening             ...     71579
Total number of primitive shell pairs       ...    422091
Primitive shell pairs kept                  ...     92338
          la=0 lb=0:  29403 shell pairs
          la=1 lb=0:  25957 shell pairs
          la=1 lb=1:   4685 shell pairs
          la=2 lb=0:   7877 shell pairs
          la=2 lb=1:   3126 shell pairs
          la=2 lb=2:    531 shell pairs

Calculating one electron integrals          ... done (  0.2 sec)
Calculating Nuclear repulsion               ... done (  0.0 sec) ENN=   6222.859937530590 Eh

SHARK setup successfully completed in   1.7 seconds

Maximum memory used throughout the entire GTOINT-calculation: 99.0 MB


           ************************************************************
           *        Program running with 16 parallel MPI-processes    *
           *              working on a common directory               *
           ************************************************************
-------------------------------------------------------------------------------
                                 ORCA SCF
-------------------------------------------------------------------------------

------------
SCF SETTINGS
------------
Hamiltonian:
 Ab initio Hamiltonian  Method          .... Hartree-Fock(GTOs)


General Settings:
 Integral files         IntName         .... /scratch/allen/tmpyp4_amber_gaff2/conf1/conf1/Conf74.orca
 Hartree-Fock type      HFTyp           .... RHF
 Total Charge           Charge          ....    0
 Multiplicity           Mult            ....    1
 Number of Electrons    NEL             ....  358
 Basis Dimension        Dim             ....  918
 Nuclear Repulsion      ENuc            ....   6222.8599375306 Eh

Convergence Acceleration:
 DIIS                   CNVDIIS         .... on
   Start iteration      DIISMaxIt       ....    12
   Startup error        DIISStart       ....  0.200000
   # of expansion vecs  DIISMaxEq       ....     5
   Bias factor          DIISBfac        ....   1.050
   Max. coefficient     DIISMaxC        ....  10.000
 Trust-Rad. Augm. Hess. CNVTRAH         .... auto
   Auto Start mean grad. ratio tolernc. ....  1.125000
   Auto Start start iteration           ....    20
   Auto Start num. interpolation iter.  ....    10
   Max. Number of Micro iterations      ....    16
   Max. Number of Macro iterations      .... Maxiter - #DIIS iter
   Number of Davidson start vectors     ....     2
   Converg. threshold I  (grad. norm)   ....   1.000e-05
   Converg. threshold II (energy diff.) ....   1.000e-08
   Grad. Scal. Fac. for Micro threshold ....   0.100
   Minimum threshold for Micro iter.    ....   0.010
   NR start threshold (gradient norm)   ....   0.001
   Initial trust radius                 ....   0.400
   Minimum AH scaling param. (alpha)    ....   1.000
   Maximum AH scaling param. (alpha)    .... 1000.000
   Orbital update algorithm             .... Taylor
   White noise on init. David. guess    .... on
   Maximum white noise                  ....   0.010
   Quad. conv. algorithm                .... NR
 SOSCF                  CNVSOSCF        .... on
   Start iteration      SOSCFMaxIt      ....   150
   Startup grad/error   SOSCFStart      ....  0.003300
 Level Shifting         CNVShift        .... on
   Level shift para.    LevelShift      ....    0.2500
   Turn off err/grad.   ShiftErr        ....    0.0010
 Zerner damping         CNVZerner       .... off
 Static damping         CNVDamp         .... on
   Fraction old density DampFac         ....    0.7000
   Max. Damping (<1)    DampMax         ....    0.9800
   Min. Damping (>=0)   DampMin         ....    0.0000
   Turn off err/grad.   DampErr         ....    0.1000
 Fernandez-Rico         CNVRico         .... off

SCF Procedure:
 Maximum # iterations   MaxIter         ....   125
 SCF integral mode      SCFMode         .... Direct
   Integral package                     .... SHARK and LIBINT hybrid scheme
 Reset frequency        DirectResetFreq ....    20
 Integral Threshold     Thresh          ....  2.500e-11 Eh
 Primitive CutOff       TCut            ....  2.500e-12 Eh

Convergence Tolerance:
 Convergence Check Mode ConvCheckMode   .... Total+1el-Energy
 Convergence forced     ConvForced      .... 1
 Energy Change          TolE            ....  1.000e-08 Eh
 1-El. energy change                    ....  1.000e-05 Eh
 Orbital Gradient       TolG            ....  1.000e-05
 Orbital Rotation angle TolX            ....  1.000e-05
 DIIS Error             TolErr          ....  5.000e-07


Diagonalization of the overlap matrix:
Smallest eigenvalue                        ... 2.259e-04
Time for diagonalization                   ...    0.413 sec
Threshold for overlap eigenvalues          ... 1.000e-08
Number of eigenvalues below threshold      ... 0
Time for construction of square roots      ...    0.192 sec
Total time needed                          ...    0.610 sec

Time for model grid setup =    1.006 sec

------------------------------
INITIAL GUESS: MODEL POTENTIAL
------------------------------
Loading Hartree-Fock densities                     ... done
Calculating cut-offs                               ... done
Initializing the effective Hamiltonian             ... done
Setting up the integral package (SHARK)            ... done
Starting the Coulomb interaction                   ... done (   1.1 sec)
Reading the grid                                   ... done
Mapping shells                                     ... done
Starting the XC term evaluation                    ... done (   0.2 sec)
Transforming the Hamiltonian                       ... done (   0.2 sec)
Diagonalizing the Hamiltonian                      ... done (   0.3 sec)
Back transforming the eigenvectors                 ... done (   0.1 sec)
Now organizing SCF variables                       ... done
                      ------------------
                      INITIAL GUESS DONE (   2.9 sec)
                      ------------------
--------------
SCF ITERATIONS
--------------
ITER       Energy         Delta-E        Max-DP      RMS-DP      [F,P]     Damp
               ***  Starting incremental Fock matrix formation  ***
  0  -2121.6494180878   0.000000000000 0.06927520  0.00121282  0.2344550 0.7000
  1  -2122.3181177530  -0.668699665208 0.05262994  0.00098358  0.1449663 0.7000
                               ***Turning on DIIS***
  2  -2122.7339109092  -0.415793156155 0.11706368  0.00222502  0.0804601 0.0000
  3  -2117.7051893585   5.028721550672 0.03404354  0.00068889  0.0444037 0.0000
  4  -2123.4018421917  -5.696652833249 0.00896083  0.00023057  0.0071467 0.0000
  5  -2123.5810838686  -0.179241676882 0.00520154  0.00013838  0.0050548 0.0000
  6  -2123.5628723999   0.018211468665 0.00382238  0.00009282  0.0022077 0.0000
  7  -2123.6697430991  -0.106870699146 0.00333778  0.00007644  0.0016921 0.0000
  8  -2123.6975980946  -0.027854995542 0.00313061  0.00007571  0.0015780 0.0000
  9  -2123.6569111493   0.040686945376 0.00272245  0.00005405  0.0012449 0.0000
 10  -2123.6795149802  -0.022603830934 0.00703028  0.00012169  0.0009384 0.0000
                      *** Initiating the SOSCF procedure ***
                           *** Shutting down DIIS ***
                      *** Re-Reading the Fockian *** 
                      *** Removing any level shift *** 
ITER      Energy       Delta-E        Grad      Rot      Max-DP    RMS-DP
 11  -2123.51656258   0.1629523958  0.000234  0.000234  0.000258  0.000006
               *** Restarting incremental Fock matrix formation ***
 12  -2123.61365211  -0.0970895270  0.001004  0.008571  0.001811  0.000042
 13  -2123.61380884  -0.0001567269  0.001241  0.034855  0.009679  0.000160
 14  -2123.61408796  -0.0002791181  0.000414  0.004453  0.001307  0.000022
 15  -2123.61412321  -0.0000352495  0.000363  0.011907  0.003182  0.000054
 16  -2123.61416469  -0.0000414847  0.000241  0.005933  0.001126  0.000026
 17  -2123.61418013  -0.0000154381  0.000322  0.007458  0.001350  0.000028
 18  -2123.61419504  -0.0000149153  0.000221  0.005443  0.001196  0.000021
 19  -2123.61420199  -0.0000069466  0.000131  0.002240  0.000493  0.000008
 20  -2123.61420389  -0.0000019036  0.000086  0.001804  0.000392  0.000007
 21  -2123.61420541  -0.0000015194  0.000062  0.001898  0.000314  0.000007
 22  -2123.61420641  -0.0000010004  0.000043  0.001272  0.000216  0.000005
 23  -2123.61420686  -0.0000004470  0.000032  0.000921  0.000178  0.000003
 24  -2123.61420709  -0.0000002302  0.000015  0.000385  0.000080  0.000002
 25  -2123.61420717  -0.0000000805  0.000014  0.000280  0.000068  0.000001
 26  -2123.61420721  -0.0000000392  0.000012  0.000397  0.000093  0.000002
 27  -2123.61420724  -0.0000000312  0.000010  0.000321  0.000074  0.000001
 28  -2123.61420726  -0.0000000185  0.000008  0.000272  0.000055  0.000001
 29  -2123.61420727  -0.0000000116  0.000005  0.000101  0.000020  0.000000
                  ***Gradient check signals convergence***
              ***Rediagonalizing the Fockian in SOSCF/NRSCF***

               *****************************************************
               *                     SUCCESS                       *
               *           SCF CONVERGED AFTER  30 CYCLES          *
               *****************************************************


----------------
TOTAL SCF ENERGY
----------------

Total Energy       :        -2123.61420727 Eh          -57786.48039 eV

Components:
Nuclear Repulsion  :         6222.85993753 Eh          169332.62760 eV
Electronic Energy  :        -8346.47414480 Eh         -227119.10799 eV
One Electron Energy:       -15287.11539015 Eh         -415983.55796 eV
Two Electron Energy:         6940.64124535 Eh          188864.44997 eV

Virial components:
Potential Energy   :        -4245.60250607 Eh         -115528.71756 eV
Kinetic Energy     :         2121.98829879 Eh           57742.23717 eV
Virial Ratio       :            2.00076622


---------------
SCF CONVERGENCE
---------------

  Last Energy change         ...   -7.6034e-10  Tolerance :   1.0000e-08
  Last MAX-Density change    ...    1.0314e-05  Tolerance :   1.0000e-07
  Last RMS-Density change    ...    2.0956e-07  Tolerance :   5.0000e-09
  Last Orbital Gradient      ...    2.2259e-06  Tolerance :   1.0000e-05
  Last Orbital Rotation      ...    3.9064e-05  Tolerance :   1.0000e-05

             **** THE GBW FILE WAS UPDATED (/scratch/allen/tmpyp4_amber_gaff2/conf1/conf1/Conf74.orca.gbw) ****
             **** DENSITY /scratch/allen/tmpyp4_amber_gaff2/conf1/conf1/Conf74.orca.scfp WAS UPDATED ****
             **** ENERGY FILE WAS UPDATED (/scratch/allen/tmpyp4_amber_gaff2/conf1/conf1/Conf74.orca.en.tmp) ****
             **** THE GBW FILE WAS UPDATED (/scratch/allen/tmpyp4_amber_gaff2/conf1/conf1/Conf74.orca.gbw) ****
             **** DENSITY /scratch/allen/tmpyp4_amber_gaff2/conf1/conf1/Conf74.orca.scfp WAS UPDATED ****
----------------
ORBITAL ENERGIES
----------------

  NO   OCC          E(Eh)            E(eV) 
   0   2.0000     -15.678532      -426.6345 
   1   2.0000     -15.635176      -425.4548 
   2   2.0000     -15.624673      -425.1690 
   3   2.0000     -15.599415      -424.4817 
   4   2.0000     -15.518934      -422.2917 
   5   2.0000     -15.509690      -422.0401 
   6   2.0000     -15.447879      -420.3582 
   7   2.0000     -15.433638      -419.9706 
   8   2.0000     -11.326711      -308.2155 
   9   2.0000     -11.326225      -308.2023 
  10   2.0000     -11.324934      -308.1671 
  11   2.0000     -11.300209      -307.4943 
  12   2.0000     -11.293846      -307.3212 
  13   2.0000     -11.293354      -307.3078 
  14   2.0000     -11.288130      -307.1656 
  15   2.0000     -11.284841      -307.0761 
  16   2.0000     -11.278723      -306.9097 
  17   2.0000     -11.277722      -306.8824 
  18   2.0000     -11.277710      -306.8821 
  19   2.0000     -11.262277      -306.4621 
  20   2.0000     -11.261122      -306.4307 
  21   2.0000     -11.260611      -306.4168 
  22   2.0000     -11.259386      -306.3835 
  23   2.0000     -11.238550      -305.8165 
  24   2.0000     -11.231199      -305.6165 
  25   2.0000     -11.230324      -305.5926 
  26   2.0000     -11.228865      -305.5529 
  27   2.0000     -11.223448      -305.4056 
  28   2.0000     -11.223188      -305.3985 
  29   2.0000     -11.205966      -304.9298 
  30   2.0000     -11.204940      -304.9019 
  31   2.0000     -11.204120      -304.8796 
  32   2.0000     -11.203803      -304.8710 
  33   2.0000     -11.203330      -304.8581 
  34   2.0000     -11.187274      -304.4212 
  35   2.0000     -11.186886      -304.4106 
  36   2.0000     -11.184540      -304.3468 
  37   2.0000     -11.183847      -304.3279 
  38   2.0000     -11.183076      -304.3070 
  39   2.0000     -11.167137      -303.8733 
  40   2.0000     -11.166905      -303.8669 
  41   2.0000     -11.163813      -303.7828 
  42   2.0000     -11.159969      -303.6782 
  43   2.0000     -11.158082      -303.6268 
  44   2.0000     -11.155537      -303.5576 
  45   2.0000     -11.155323      -303.5518 
  46   2.0000     -11.153644      -303.5061 
  47   2.0000     -11.150224      -303.4130 
  48   2.0000     -11.147102      -303.3281 
  49   2.0000     -11.140977      -303.1614 
  50   2.0000     -11.127317      -302.7897 
  51   2.0000     -11.123814      -302.6944 
  52   2.0000      -1.358093       -36.9556 
  53   2.0000      -1.322278       -35.9810 
  54   2.0000      -1.312886       -35.7255 
  55   2.0000      -1.291560       -35.1451 
  56   2.0000      -1.219669       -33.1889 
  57   2.0000      -1.206182       -32.8219 
  58   2.0000      -1.169096       -31.8127 
  59   2.0000      -1.145887       -31.1812 
  60   2.0000      -1.140190       -31.0262 
  61   2.0000      -1.110372       -30.2147 
  62   2.0000      -1.102262       -29.9941 
  63   2.0000      -1.083308       -29.4783 
  64   2.0000      -1.079631       -29.3783 
  65   2.0000      -1.046231       -28.4694 
  66   2.0000      -1.037623       -28.2352 
  67   2.0000      -1.037124       -28.2216 
  68   2.0000      -1.017702       -27.6931 
  69   2.0000      -1.013257       -27.5721 
  70   2.0000      -1.005987       -27.3743 
  71   2.0000      -0.989295       -26.9201 
  72   2.0000      -0.984899       -26.8005 
  73   2.0000      -0.977244       -26.5922 
  74   2.0000      -0.968838       -26.3634 
  75   2.0000      -0.959441       -26.1077 
  76   2.0000      -0.950993       -25.8778 
  77   2.0000      -0.945744       -25.7350 
  78   2.0000      -0.928172       -25.2568 
  79   2.0000      -0.919164       -25.0117 
  80   2.0000      -0.906533       -24.6680 
  81   2.0000      -0.888844       -24.1867 
  82   2.0000      -0.874398       -23.7936 
  83   2.0000      -0.869353       -23.6563 
  84   2.0000      -0.864638       -23.5280 
  85   2.0000      -0.852036       -23.1851 
  86   2.0000      -0.844162       -22.9708 
  87   2.0000      -0.832466       -22.6525 
  88   2.0000      -0.822344       -22.3771 
  89   2.0000      -0.796310       -21.6687 
  90   2.0000      -0.792699       -21.5704 
  91   2.0000      -0.750604       -20.4250 
  92   2.0000      -0.734157       -19.9774 
  93   2.0000      -0.727172       -19.7874 
  94   2.0000      -0.721385       -19.6299 
  95   2.0000      -0.716831       -19.5060 
  96   2.0000      -0.712350       -19.3840 
  97   2.0000      -0.707471       -19.2513 
  98   2.0000      -0.699843       -19.0437 
  99   2.0000      -0.694886       -18.9088 
 100   2.0000      -0.694072       -18.8867 
 101   2.0000      -0.682949       -18.5840 
 102   2.0000      -0.681911       -18.5557 
 103   2.0000      -0.677133       -18.4257 
 104   2.0000      -0.672436       -18.2979 
 105   2.0000      -0.668789       -18.1987 
 106   2.0000      -0.666507       -18.1366 
 107   2.0000      -0.656324       -17.8595 
 108   2.0000      -0.654149       -17.8003 
 109   2.0000      -0.651575       -17.7303 
 110   2.0000      -0.647574       -17.6214 
 111   2.0000      -0.646599       -17.5949 
 112   2.0000      -0.643827       -17.5194 
 113   2.0000      -0.639828       -17.4106 
 114   2.0000      -0.634328       -17.2609 
 115   2.0000      -0.629074       -17.1180 
 116   2.0000      -0.622397       -16.9363 
 117   2.0000      -0.615893       -16.7593 
 118   2.0000      -0.613017       -16.6810 
 119   2.0000      -0.610906       -16.6236 
 120   2.0000      -0.608332       -16.5535 
 121   2.0000      -0.605320       -16.4716 
 122   2.0000      -0.595634       -16.2080 
 123   2.0000      -0.589308       -16.0359 
 124   2.0000      -0.586792       -15.9674 
 125   2.0000      -0.582086       -15.8394 
 126   2.0000      -0.576044       -15.6750 
 127   2.0000      -0.573911       -15.6169 
 128   2.0000      -0.568652       -15.4738 
 129   2.0000      -0.559817       -15.2334 
 130   2.0000      -0.556611       -15.1461 
 131   2.0000      -0.547176       -14.8894 
 132   2.0000      -0.543839       -14.7986 
 133   2.0000      -0.538641       -14.6572 
 134   2.0000      -0.534888       -14.5550 
 135   2.0000      -0.532004       -14.4766 
 136   2.0000      -0.521240       -14.1837 
 137   2.0000      -0.518604       -14.1119 
 138   2.0000      -0.514198       -13.9920 
 139   2.0000      -0.512180       -13.9371 
 140   2.0000      -0.511112       -13.9081 
 141   2.0000      -0.507977       -13.8227 
 142   2.0000      -0.503197       -13.6927 
 143   2.0000      -0.499918       -13.6035 
 144   2.0000      -0.496449       -13.5091 
 145   2.0000      -0.494602       -13.4588 
 146   2.0000      -0.493429       -13.4269 
 147   2.0000      -0.484844       -13.1933 
 148   2.0000      -0.481998       -13.1158 
 149   2.0000      -0.464868       -12.6497 
 150   2.0000      -0.462831       -12.5943 
 151   2.0000      -0.455695       -12.4001 
 152   2.0000      -0.449398       -12.2287 
 153   2.0000      -0.442163       -12.0319 
 154   2.0000      -0.439675       -11.9642 
 155   2.0000      -0.438301       -11.9268 
 156   2.0000      -0.427523       -11.6335 
 157   2.0000      -0.421157       -11.4603 
 158   2.0000      -0.401353       -10.9214 
 159   2.0000      -0.385187       -10.4815 
 160   2.0000      -0.382581       -10.4106 
 161   2.0000      -0.373363       -10.1597 
 162   2.0000      -0.361033        -9.8242 
 163   2.0000      -0.357150        -9.7185 
 164   2.0000      -0.349760        -9.5175 
 165   2.0000      -0.339055        -9.2262 
 166   2.0000      -0.336837        -9.1658 
 167   2.0000      -0.332814        -9.0563 
 168   2.0000      -0.319470        -8.6932 
 169   2.0000      -0.299375        -8.1464 
 170   2.0000      -0.298266        -8.1162 
 171   2.0000      -0.285585        -7.7712 
 172   2.0000      -0.281933        -7.6718 
 173   2.0000      -0.261532        -7.1167 
 174   2.0000      -0.238095        -6.4789 
 175   2.0000      -0.185273        -5.0415 
 176   2.0000      -0.175173        -4.7667 
 177   2.0000      -0.062816        -1.7093 
 178   2.0000      -0.051517        -1.4018 
 179   0.0000       0.033747         0.9183 
 180   0.0000       0.063030         1.7151 
 181   0.0000       0.091810         2.4983 
 182   0.0000       0.096441         2.6243 
 183   0.0000       0.109197         2.9714 
 184   0.0000       0.137167         3.7325 
 185   0.0000       0.142812         3.8861 
 186   0.0000       0.144839         3.9413 
 187   0.0000       0.161387         4.3916 
 188   0.0000       0.164199         4.4681 
 189   0.0000       0.164336         4.4718 
 190   0.0000       0.170108         4.6289 
 191   0.0000       0.182086         4.9548 
 192   0.0000       0.183443         4.9917 
 193   0.0000       0.185616         5.0509 
 194   0.0000       0.203509         5.5378 
 195   0.0000       0.208575         5.6756 
 196   0.0000       0.209696         5.7061 
 197   0.0000       0.214165         5.8277 
 198   0.0000       0.218484         5.9453 
 199   0.0000       0.224077         6.0975 
 200   0.0000       0.227203         6.1825 
 201   0.0000       0.235570         6.4102 
 202   0.0000       0.238730         6.4962 
 203   0.0000       0.243834         6.6351 
 204   0.0000       0.247369         6.7313 
 205   0.0000       0.255447         6.9511 
 206   0.0000       0.256113         6.9692 
 207   0.0000       0.256856         6.9894 
 208   0.0000       0.261159         7.1065 
 209   0.0000       0.262535         7.1440 
 210   0.0000       0.266076         7.2403 
 211   0.0000       0.267175         7.2702 
 212   0.0000       0.269382         7.3303 
 213   0.0000       0.272204         7.4070 
 214   0.0000       0.275151         7.4872 
 215   0.0000       0.277438         7.5495 
 216   0.0000       0.279716         7.6115 
 217   0.0000       0.284431         7.7398 
 218   0.0000       0.286829         7.8050 
 219   0.0000       0.288429         7.8486 
 220   0.0000       0.291963         7.9447 
 221   0.0000       0.294675         8.0185 
 222   0.0000       0.295999         8.0546 
 223   0.0000       0.296595         8.0708 
 224   0.0000       0.297522         8.0960 
 225   0.0000       0.302585         8.2338 
 226   0.0000       0.304024         8.2729 
 227   0.0000       0.305705         8.3187 
 228   0.0000       0.310166         8.4401 
 229   0.0000       0.314079         8.5465 
 230   0.0000       0.318422         8.6647 
 231   0.0000       0.322168         8.7666 
 232   0.0000       0.325471         8.8565 
 233   0.0000       0.329927         8.9778 
 234   0.0000       0.334778         9.1098 
 235   0.0000       0.347692         9.4612 
 236   0.0000       0.358324         9.7505 
 237   0.0000       0.372584        10.1385 
 238   0.0000       0.394095        10.7239 
 239   0.0000       0.397673        10.8212 
 240   0.0000       0.401844        10.9347 
 241   0.0000       0.410322        11.1654 
 242   0.0000       0.412335        11.2202 
 243   0.0000       0.416984        11.3467 
 244   0.0000       0.424016        11.5381 
 245   0.0000       0.431231        11.7344 
 246   0.0000       0.434733        11.8297 
 247   0.0000       0.440001        11.9730 
 248   0.0000       0.441922        12.0253 
 249   0.0000       0.446621        12.1532 
 250   0.0000       0.447659        12.1814 
 251   0.0000       0.455402        12.3921 
 252   0.0000       0.458311        12.4713 
 253   0.0000       0.464112        12.6291 
 254   0.0000       0.470234        12.7957 
 255   0.0000       0.476850        12.9758 
 256   0.0000       0.480288        13.0693 
 257   0.0000       0.485978        13.2241 
 258   0.0000       0.487310        13.2604 
 259   0.0000       0.495414        13.4809 
 260   0.0000       0.500695        13.6246 
 261   0.0000       0.503852        13.7105 
 262   0.0000       0.506136        13.7727 
 263   0.0000       0.507472        13.8090 
 264   0.0000       0.512814        13.9544 
 265   0.0000       0.517286        14.0761 
 266   0.0000       0.522917        14.2293 
 267   0.0000       0.527319        14.3491 
 268   0.0000       0.529701        14.4139 
 269   0.0000       0.536864        14.6088 
 270   0.0000       0.542598        14.7648 
 271   0.0000       0.545126        14.8336 
 272   0.0000       0.546527        14.8718 
 273   0.0000       0.555485        15.1155 
 274   0.0000       0.561702        15.2847 
 275   0.0000       0.564685        15.3659 
 276   0.0000       0.567562        15.4442 
 277   0.0000       0.570111        15.5135 
 278   0.0000       0.579053        15.7568 
 279   0.0000       0.580598        15.7989 
 280   0.0000       0.588444        16.0124 
 281   0.0000       0.592117        16.1123 
 282   0.0000       0.594243        16.1702 
 283   0.0000       0.597092        16.2477 
 284   0.0000       0.600879        16.3508 
 285   0.0000       0.601629        16.3712 
 286   0.0000       0.607688        16.5360 
 287   0.0000       0.613471        16.6934 
 288   0.0000       0.615628        16.7521 
 289   0.0000       0.617610        16.8060 
 290   0.0000       0.624159        16.9842 
 291   0.0000       0.624850        17.0030 
 292   0.0000       0.629387        17.1265 
 293   0.0000       0.633640        17.2422 
 294   0.0000       0.645267        17.5586 
 295   0.0000       0.648776        17.6541 
 296   0.0000       0.654114        17.7994 
 297   0.0000       0.659041        17.9334 
 298   0.0000       0.663117        18.0443 
 299   0.0000       0.665999        18.1227 
 300   0.0000       0.671347        18.2683 
 301   0.0000       0.671364        18.2687 
 302   0.0000       0.676473        18.4078 
 303   0.0000       0.677534        18.4366 
 304   0.0000       0.683062        18.5871 
 305   0.0000       0.684446        18.6247 
 306   0.0000       0.686940        18.6926 
 307   0.0000       0.687877        18.7181 
 308   0.0000       0.690933        18.8012 
 309   0.0000       0.695701        18.9310 
 310   0.0000       0.700479        19.0610 
 311   0.0000       0.703221        19.1356 
 312   0.0000       0.708767        19.2865 
 313   0.0000       0.710225        19.3262 
 314   0.0000       0.711884        19.3713 
 315   0.0000       0.714458        19.4414 
 316   0.0000       0.715614        19.4728 
 317   0.0000       0.719833        19.5876 
 318   0.0000       0.721005        19.6195 
 319   0.0000       0.724695        19.7199 
 320   0.0000       0.726542        19.7702 
 321   0.0000       0.728724        19.8296 
 322   0.0000       0.732295        19.9268 
 323   0.0000       0.733120        19.9492 
 324   0.0000       0.737038        20.0558 
 325   0.0000       0.739584        20.1251 
 326   0.0000       0.741560        20.1789 
 327   0.0000       0.742526        20.2051 
 328   0.0000       0.751146        20.4397 
 329   0.0000       0.751896        20.4601 
 330   0.0000       0.755832        20.5672 
 331   0.0000       0.756014        20.5722 
 332   0.0000       0.759602        20.6698 
 333   0.0000       0.763204        20.7678 
 334   0.0000       0.764554        20.8046 
 335   0.0000       0.770200        20.9582 
 336   0.0000       0.774111        21.0646 
 337   0.0000       0.778505        21.1842 
 338   0.0000       0.784153        21.3379 
 339   0.0000       0.786693        21.4070 
 340   0.0000       0.790148        21.5010 
 341   0.0000       0.790259        21.5040 
 342   0.0000       0.791952        21.5501 
 343   0.0000       0.797284        21.6952 
 344   0.0000       0.799831        21.7645 
 345   0.0000       0.807337        21.9688 
 346   0.0000       0.809783        22.0353 
 347   0.0000       0.812512        22.1096 
 348   0.0000       0.813246        22.1296 
 349   0.0000       0.815149        22.1813 
 350   0.0000       0.818754        22.2794 
 351   0.0000       0.819253        22.2930 
 352   0.0000       0.823167        22.3995 
 353   0.0000       0.824832        22.4448 
 354   0.0000       0.826934        22.5020 
 355   0.0000       0.831487        22.6259 
 356   0.0000       0.833802        22.6889 
 357   0.0000       0.834871        22.7180 
 358   0.0000       0.837560        22.7912 
 359   0.0000       0.839947        22.8561 
 360   0.0000       0.842380        22.9223 
 361   0.0000       0.845813        23.0157 
 362   0.0000       0.846484        23.0340 
 363   0.0000       0.847995        23.0751 
 364   0.0000       0.849780        23.1237 
 365   0.0000       0.852184        23.1891 
 366   0.0000       0.853399        23.2222 
 367   0.0000       0.857496        23.3337 
 368   0.0000       0.859709        23.3939 
 369   0.0000       0.863622        23.5003 
 370   0.0000       0.864259        23.5177 
 371   0.0000       0.868423        23.6310 
 372   0.0000       0.871699        23.7201 
 373   0.0000       0.872428        23.7400 
 374   0.0000       0.878679        23.9101 
 375   0.0000       0.879297        23.9269 
 376   0.0000       0.883013        24.0280 
 377   0.0000       0.885959        24.1082 
 378   0.0000       0.890565        24.2335 
 379   0.0000       0.891751        24.2658 
 380   0.0000       0.893462        24.3123 
 381   0.0000       0.893958        24.3258 
 382   0.0000       0.901492        24.5308 
 383   0.0000       0.903941        24.5975 
 384   0.0000       0.904664        24.6172 
 385   0.0000       0.906508        24.6673 
 386   0.0000       0.908353        24.7175 
 387   0.0000       0.912248        24.8235 
 388   0.0000       0.914559        24.8864 
 389   0.0000       0.917699        24.9719 
 390   0.0000       0.921543        25.0764 
 391   0.0000       0.922502        25.1026 
 392   0.0000       0.924617        25.1601 
 393   0.0000       0.927294        25.2330 
 394   0.0000       0.928296        25.2602 
 395   0.0000       0.931640        25.3512 
 396   0.0000       0.932874        25.3848 
 397   0.0000       0.934930        25.4407 
 398   0.0000       0.939114        25.5546 
 399   0.0000       0.942496        25.6466 
 400   0.0000       0.945988        25.7417 
 401   0.0000       0.949020        25.8241 
 402   0.0000       0.952284        25.9130 
 403   0.0000       0.954969        25.9860 
 404   0.0000       0.956770        26.0350 
 405   0.0000       0.958196        26.0738 
 406   0.0000       0.960177        26.1277 
 407   0.0000       0.964789        26.2532 
 408   0.0000       0.967251        26.3202 
 409   0.0000       0.969593        26.3840 
 410   0.0000       0.975062        26.5328 
 411   0.0000       0.978545        26.6276 
 412   0.0000       0.985017        26.8037 
 413   0.0000       0.992394        27.0044 
 414   0.0000       0.994230        27.0544 
 415   0.0000       0.994552        27.0631 
 416   0.0000       0.999312        27.1927 
 417   0.0000       1.001718        27.2581 
 418   0.0000       1.008115        27.4322 
 419   0.0000       1.016168        27.6513 
 420   0.0000       1.022248        27.8168 
 421   0.0000       1.028840        27.9962 
 422   0.0000       1.033009        28.1096 
 423   0.0000       1.036198        28.1964 
 424   0.0000       1.039898        28.2971 
 425   0.0000       1.050324        28.5808 
 426   0.0000       1.053385        28.6641 
 427   0.0000       1.059960        28.8430 
 428   0.0000       1.070113        29.1193 
 429   0.0000       1.075656        29.2701 
 430   0.0000       1.077248        29.3134 
 431   0.0000       1.083259        29.4770 
 432   0.0000       1.084933        29.5225 
 433   0.0000       1.091023        29.6883 
 434   0.0000       1.094243        29.7759 
 435   0.0000       1.099789        29.9268 
 436   0.0000       1.105519        30.0827 
 437   0.0000       1.111665        30.2499 
 438   0.0000       1.115189        30.3458 
 439   0.0000       1.117237        30.4016 
 440   0.0000       1.119142        30.4534 
 441   0.0000       1.120954        30.5027 
 442   0.0000       1.128185        30.6995 
 443   0.0000       1.131015        30.7765 
 444   0.0000       1.133348        30.8400 
 445   0.0000       1.138016        30.9670 
 446   0.0000       1.138774        30.9876 
 447   0.0000       1.142045        31.0766 
 448   0.0000       1.144882        31.1538 
 449   0.0000       1.147911        31.2363 
 450   0.0000       1.152669        31.3657 
 451   0.0000       1.156408        31.4675 
 452   0.0000       1.158946        31.5365 
 453   0.0000       1.160464        31.5778 
 454   0.0000       1.162378        31.6299 
 455   0.0000       1.166539        31.7431 
 456   0.0000       1.169985        31.8369 
 457   0.0000       1.176433        32.0124 
 458   0.0000       1.181626        32.1537 
 459   0.0000       1.187117        32.3031 
 460   0.0000       1.189521        32.3685 
 461   0.0000       1.191468        32.4215 
 462   0.0000       1.201816        32.7031 
 463   0.0000       1.203641        32.7527 
 464   0.0000       1.209552        32.9136 
 465   0.0000       1.211203        32.9585 
 466   0.0000       1.212324        32.9890 
 467   0.0000       1.215911        33.0866 
 468   0.0000       1.225638        33.3513 
 469   0.0000       1.226991        33.3881 
 470   0.0000       1.227781        33.4096 
 471   0.0000       1.232343        33.5338 
 472   0.0000       1.234159        33.5832 
 473   0.0000       1.240037        33.7431 
 474   0.0000       1.242245        33.8032 
 475   0.0000       1.246073        33.9074 
 476   0.0000       1.249643        34.0045 
 477   0.0000       1.250326        34.0231 
 478   0.0000       1.253631        34.1130 
 479   0.0000       1.256005        34.1776 
 480   0.0000       1.260200        34.2918 
 481   0.0000       1.263440        34.3800 
 482   0.0000       1.268991        34.5310 
 483   0.0000       1.270941        34.5841 
 484   0.0000       1.273933        34.6655 
 485   0.0000       1.274355        34.6770 
 486   0.0000       1.277839        34.7718 
 487   0.0000       1.284216        34.9453 
 488   0.0000       1.287065        35.0228 
 489   0.0000       1.292678        35.1755 
 490   0.0000       1.295290        35.2466 
 491   0.0000       1.296802        35.2878 
 492   0.0000       1.307393        35.5760 
 493   0.0000       1.309031        35.6205 
 494   0.0000       1.309533        35.6342 
 495   0.0000       1.315782        35.8043 
 496   0.0000       1.317635        35.8547 
 497   0.0000       1.322781        35.9947 
 498   0.0000       1.325205        36.0606 
 499   0.0000       1.331794        36.2399 
 500   0.0000       1.334745        36.3203 
 501   0.0000       1.338908        36.4335 
 502   0.0000       1.341748        36.5108 
 503   0.0000       1.343072        36.5468 
 504   0.0000       1.343893        36.5692 
 505   0.0000       1.349945        36.7339 
 506   0.0000       1.351635        36.7799 
[...]
      pz      :     0.021825  p :     0.079350
      px      :     0.042974
      py      :     0.014552
 77 H s       :     0.893747  s :     0.893747
      pz      :     0.047261  p :     0.078491
      px      :     0.015005
      py      :     0.016225
 78 H s       :     0.894120  s :     0.894120
      pz      :     0.025519  p :     0.078414
      px      :     0.020665
      py      :     0.032230
 79 H s       :     0.907850  s :     0.907850
      pz      :     0.022466  p :     0.087096
      px      :     0.021866
      py      :     0.042763
 80 H s       :     0.877159  s :     0.877159
      pz      :     0.038354  p :     0.083426
      px      :     0.029590
      py      :     0.015482
 81 H s       :     0.887984  s :     0.887984
      pz      :     0.037631  p :     0.083471
      px      :     0.016081
      py      :     0.029759
 82 H s       :     0.914176  s :     0.914176
      pz      :     0.022331  p :     0.087065
      px      :     0.031064
      py      :     0.033670
 83 H s       :     0.872002  s :     0.872002
      pz      :     0.039230  p :     0.083778
      px      :     0.015237
      py      :     0.029311
 84 H s       :     0.887885  s :     0.887885
      pz      :     0.035826  p :     0.084211
      px      :     0.031794
      py      :     0.016590
 85 H s       :     0.894976  s :     0.894976
      pz      :     0.022513  p :     0.079659
      px      :     0.014121
      py      :     0.043024
 86 H s       :     0.890527  s :     0.890527
      pz      :     0.024716  p :     0.078902
      px      :     0.033010
      py      :     0.021176
 87 H s       :     0.890761  s :     0.890761
      pz      :     0.047870  p :     0.078641
      px      :     0.015643
      py      :     0.015128
 88 H s       :     0.916933  s :     0.916933
      pz      :     0.022346  p :     0.086840
      px      :     0.042161
      py      :     0.022332
 89 H s       :     0.874193  s :     0.874193
      pz      :     0.037845  p :     0.084008
      px      :     0.030493
      py      :     0.015670


                      *****************************
                      * MAYER POPULATION ANALYSIS *
                      *****************************

  NA   - Mulliken gross atomic population
  ZA   - Total nuclear charge
  QA   - Mulliken gross atomic charge
  VA   - Mayer's total valence
  BVA  - Mayer's bonded valence
  FA   - Mayer's free valence

  ATOM       NA         ZA         QA         VA         BVA        FA
  0 C      5.7757     6.0000     0.2243     3.8132     3.8132     0.0000
  1 N      7.4265     7.0000    -0.4265     3.4316     3.4316    -0.0000
  2 C      6.0662     6.0000    -0.0662     3.9190     3.9190     0.0000
  3 N      7.3408     7.0000    -0.3408     3.4308     3.4308     0.0000
  4 C      6.0737     6.0000    -0.0737     3.9721     3.9721     0.0000
  5 N      7.5653     7.0000    -0.5653     3.0735     3.0735    -0.0000
  6 C      6.0365     6.0000    -0.0365     3.9738     3.9738    -0.0000
  7 N      7.3369     7.0000    -0.3369     3.4451     3.4451    -0.0000
  8 C      5.7783     6.0000     0.2217     3.8131     3.8131    -0.0000
  9 N      7.5652     7.0000    -0.5652     3.0889     3.0889     0.0000
 10 C      5.8918     6.0000     0.1082     3.8740     3.8740    -0.0000
 11 N      7.4385     7.0000    -0.4385     3.3797     3.3797    -0.0000
 12 C      6.0621     6.0000    -0.0621     3.9119     3.9119     0.0000
 13 N      7.4474     7.0000    -0.4474     3.3385     3.3385     0.0000
 14 C      5.7704     6.0000     0.2296     3.8027     3.8027     0.0000
 15 N      7.4409     7.0000    -0.4409     3.3684     3.3684    -0.0000
 16 C      5.7524     6.0000     0.2476     3.8023     3.8023    -0.0000
 17 C      6.0419     6.0000    -0.0419     3.9765     3.9765    -0.0000
 18 C      6.1930     6.0000    -0.1930     3.7073     3.7073     0.0000
 19 C      5.7640     6.0000     0.2360     3.8885     3.8885     0.0000
 20 C      5.8034     6.0000     0.1966     3.8223     3.8223    -0.0000
 21 C      6.0734     6.0000    -0.0734     3.8985     3.8985     0.0000
 22 C      6.0876     6.0000    -0.0876     3.9854     3.9854     0.0000
 23 C      6.0604     6.0000    -0.0604     3.9883     3.9883     0.0000
 24 C      5.7856     6.0000     0.2144     3.8273     3.8273     0.0000
 25 C      5.8858     6.0000     0.1142     3.8916     3.8916     0.0000
 26 C      6.0690     6.0000    -0.0690     3.9076     3.9076    -0.0000
 27 C      5.7607     6.0000     0.2393     3.8984     3.8984     0.0000
 28 C      6.0440     6.0000    -0.0440     3.9887     3.9887     0.0000
 29 C      6.1940     6.0000    -0.1940     3.7273     3.7273    -0.0000
 30 C      5.7738     6.0000     0.2262     3.7851     3.7851    -0.0000
 31 C      5.8052     6.0000     0.1948     3.8317     3.8317    -0.0000
 32 C      6.0665     6.0000    -0.0665     3.9134     3.9134    -0.0000
 33 C      6.0958     6.0000    -0.0958     3.9860     3.9860    -0.0000
 34 C      6.0511     6.0000    -0.0511     3.9971     3.9971    -0.0000
 35 C      5.8125     6.0000     0.1875     3.8291     3.8291    -0.0000
 36 C      5.8813     6.0000     0.1187     3.9043     3.9043    -0.0000
 37 C      6.0692     6.0000    -0.0692     3.9157     3.9157    -0.0000
 38 C      5.7589     6.0000     0.2411     3.7957     3.7957    -0.0000
 39 C      6.0634     6.0000    -0.0634     3.9965     3.9965    -0.0000
 40 C      6.1995     6.0000    -0.1995     3.7490     3.7490    -0.0000
 41 C      5.7811     6.0000     0.2189     3.8773     3.8773    -0.0000
 42 C      5.7901     6.0000     0.2099     3.8306     3.8306     0.0000
 43 C      6.0755     6.0000    -0.0755     3.9049     3.9049    -0.0000
 44 C      6.0900     6.0000    -0.0900     3.9840     3.9840    -0.0000
 45 C      6.0431     6.0000    -0.0431     3.9950     3.9950     0.0000
 46 C      5.8082     6.0000     0.1918     3.8219     3.8219    -0.0000
 47 C      5.8839     6.0000     0.1161     3.8953     3.8953     0.0000
 48 C      6.0791     6.0000    -0.0791     3.8998     3.8998    -0.0000
 49 C      5.7853     6.0000     0.2147     3.8709     3.8709    -0.0000
 50 C      6.0620     6.0000    -0.0620     3.9899     3.9899    -0.0000
 51 C      6.1886     6.0000    -0.1886     3.7397     3.7397    -0.0000
 52 H      0.9287     1.0000     0.0713     0.9833     0.9833     0.0000
 53 H      1.0099     1.0000    -0.0099     1.0011     1.0011     0.0000
 54 H      0.9411     1.0000     0.0589     1.0070     1.0070    -0.0000
 55 H      0.9303     1.0000     0.0697     0.9844     0.9844    -0.0000
 56 H      0.9256     1.0000     0.0744     0.9725     0.9725     0.0000
 57 H      0.9314     1.0000     0.0686     0.9847     0.9847     0.0000
 58 H      0.9330     1.0000     0.0670     0.9862     0.9862    -0.0000
 59 H      1.0229     1.0000    -0.0229     0.9968     0.9968     0.0000
 60 H      0.9428     1.0000     0.0572     1.0060     1.0060    -0.0000
 61 H      0.8243     1.0000     0.1757     1.0433     1.0433     0.0000
 62 H      0.8305     1.0000     0.1695     1.0433     1.0433     0.0000
 63 H      0.9453     1.0000     0.0547     0.9859     0.9859     0.0000
 64 H      1.0289     1.0000    -0.0289     0.9936     0.9936     0.0000
 65 H      0.9560     1.0000     0.0440     1.0081     1.0081    -0.0000
 66 H      0.9434     1.0000     0.0566     0.9847     0.9847     0.0000
 67 H      0.9396     1.0000     0.0604     0.9717     0.9717    -0.0000
 68 H      0.9428     1.0000     0.0572     0.9865     0.9865    -0.0000
 69 H      0.9406     1.0000     0.0594     0.9830     0.9830     0.0000
 70 H      1.0182     1.0000    -0.0182     0.9967     0.9967     0.0000
 71 H      0.9523     1.0000     0.0477     1.0073     1.0073    -0.0000
 72 H      0.9563     1.0000     0.0437     0.9858     0.9858     0.0000
 73 H      1.0185     1.0000    -0.0185     0.9969     0.9969    -0.0000
 74 H      0.9649     1.0000     0.0351     1.0093     1.0093    -0.0000
 75 H      0.9574     1.0000     0.0426     0.9864     0.9864    -0.0000
 76 H      0.9486     1.0000     0.0514     0.9707     0.9707     0.0000
 77 H      0.9500     1.0000     0.0500     0.9845     0.9845     0.0000
 78 H      0.9507     1.0000     0.0493     0.9839     0.9839     0.0000
 79 H      1.0127     1.0000    -0.0127     1.0010     1.0010    -0.0000
 80 H      0.9648     1.0000     0.0352     1.0066     1.0066    -0.0000
 81 H      0.9480     1.0000     0.0520     0.9853     0.9853    -0.0000
 82 H      1.0226     1.0000    -0.0226     0.9950     0.9950    -0.0000
 83 H      0.9565     1.0000     0.0435     1.0102     1.0102     0.0000
 84 H      0.9487     1.0000     0.0513     0.9861     0.9861     0.0000
 85 H      0.9435     1.0000     0.0565     0.9714     0.9714    -0.0000
 86 H      0.9433     1.0000     0.0567     0.9841     0.9841     0.0000
 87 H      0.9445     1.0000     0.0555     0.9853     0.9853    -0.0000
 88 H      1.0274     1.0000    -0.0274     0.9922     0.9922    -0.0000
 89 H      0.9588     1.0000     0.0412     1.0064     1.0064    -0.0000

  Mayer bond orders larger than 0.100000
B(  0-C ,  1-N ) :   1.1644 B(  0-C , 17-C ) :   1.5712 B(  0-C , 52-H ) :   0.9682 
B(  1-N ,  8-C ) :   1.1584 B(  1-N , 10-C ) :   0.9415 B(  2-C , 12-C ) :   1.5600 
B(  2-C , 16-C ) :   1.2963 B(  2-C , 53-H ) :   0.9787 B(  3-N , 14-C ) :   1.1855 
B(  3-N , 16-C ) :   1.2013 B(  3-N , 61-H ) :   0.8964 B(  4-C ,  6-C ) :   1.3194 
B(  4-C , 17-C ) :   1.3199 B(  4-C , 18-C ) :   1.1379 B(  5-N , 19-C ) :   1.3831 
B(  5-N , 27-C ) :   1.4341 B(  6-C ,  8-C ) :   1.5716 B(  6-C , 54-H ) :   0.9710 
B(  7-N , 30-C ) :   1.1891 B(  7-N , 38-C ) :   1.2098 B(  7-N , 62-H ) :   0.9003 
B(  8-C , 55-H ) :   0.9687 B(  9-N , 41-C ) :   1.4266 B(  9-N , 49-C ) :   1.3994 
B( 10-C , 56-H ) :   0.9764 B( 10-C , 57-H ) :   0.9811 B( 10-C , 58-H ) :   0.9826 
B( 11-N , 20-C ) :   1.1100 B( 11-N , 24-C ) :   1.1324 B( 11-N , 25-C ) :   0.9597 
B( 12-C , 14-C ) :   1.2961 B( 12-C , 59-H ) :   0.9773 B( 13-N , 31-C ) :   1.0960 
B( 13-N , 35-C ) :   1.0882 B( 13-N , 36-C ) :   0.9742 B( 14-C , 18-C ) :   1.2341 
B( 15-N , 42-C ) :   1.1239 B( 15-N , 46-C ) :   1.1003 B( 15-N , 47-C ) :   0.9640 
B( 16-C , 51-C ) :   1.2243 B( 17-C , 60-H ) :   0.9715 B( 18-C , 19-C ) :   1.2756 
B( 19-C , 21-C ) :   1.1810 B( 20-C , 28-C ) :   1.6248 B( 20-C , 63-H ) :   0.9706 
B( 21-C , 26-C ) :   1.6666 B( 21-C , 64-H ) :   0.9722 B( 22-C , 23-C ) :   1.2681 
B( 22-C , 28-C ) :   1.2793 B( 22-C , 29-C ) :   1.2467 B( 23-C , 24-C ) :   1.6264 
B( 23-C , 65-H ) :   0.9717 B( 24-C , 66-H ) :   0.9690 B( 25-C , 67-H ) :   0.9763 
B( 25-C , 68-H ) :   0.9832 B( 25-C , 69-H ) :   0.9820 B( 26-C , 27-C ) :   1.1868 
B( 26-C , 70-H ) :   0.9747 B( 27-C , 29-C ) :   1.2373 B( 28-C , 71-H ) :   0.9711 
B( 29-C , 30-C ) :   1.1859 B( 30-C , 32-C ) :   1.3396 B( 31-C , 39-C ) :   1.6649 
B( 31-C , 72-H ) :   0.9705 B( 32-C , 37-C ) :   1.5190 B( 32-C , 73-H ) :   0.9773 
B( 33-C , 34-C ) :   1.2474 B( 33-C , 39-C ) :   1.2408 B( 33-C , 40-C ) :   1.3175 
B( 34-C , 35-C ) :   1.6630 B( 34-C , 74-H ) :   0.9709 B( 35-C , 75-H ) :   0.9705 
B( 36-C , 76-H ) :   0.9758 B( 36-C , 77-H ) :   0.9824 B( 36-C , 78-H ) :   0.9836 
B( 37-C , 38-C ) :   1.3373 B( 37-C , 79-H ) :   0.9787 B( 38-C , 40-C ) :   1.1868 
B( 39-C , 80-H ) :   0.9719 B( 40-C , 41-C ) :   1.1884 B( 41-C , 43-C ) :   1.2378 
B( 42-C , 50-C ) :   1.6370 B( 42-C , 81-H ) :   0.9696 B( 43-C , 48-C ) :   1.6136 
B( 43-C , 82-H ) :   0.9750 B( 44-C , 45-C ) :   1.2788 B( 44-C , 50-C ) :   1.2573 
B( 44-C , 51-C ) :   1.2481 B( 45-C , 46-C ) :   1.6309 B( 45-C , 83-H ) :   0.9706 
B( 46-C , 84-H ) :   0.9706 B( 47-C , 85-H ) :   0.9760 B( 47-C , 86-H ) :   0.9826 
B( 47-C , 87-H ) :   0.9828 B( 48-C , 49-C ) :   1.2337 B( 48-C , 88-H ) :   0.9730 
B( 49-C , 51-C ) :   1.2059 B( 50-C , 89-H ) :   0.9719 

-------
TIMINGS
-------

Total SCF time: 0 days 0 hours 24 min 9 sec 

Total time                  ....    1449.115 sec
Sum of individual times     ....    1445.099 sec  ( 99.7%)

Fock matrix formation       ....    1423.448 sec  ( 98.2%)
Diagonalization             ....       6.774 sec  (  0.5%)
Density matrix formation    ....       0.394 sec  (  0.0%)
Population analysis         ....       0.438 sec  (  0.0%)
Initial guess               ....       1.916 sec  (  0.1%)
Orbital Transformation      ....       0.000 sec  (  0.0%)
Orbital Orthonormalization  ....       0.000 sec  (  0.0%)
DIIS solution               ....       2.925 sec  (  0.2%)
SOSCF solution              ....       8.198 sec  (  0.6%)

Maximum memory used throughout the entire SCF-calculation: 302.5 MB


           ************************************************************
           *        Program running with 16 parallel MPI-processes    *
           *              working on a common directory               *
           ************************************************************

------------------------------------------------------------------------------
                                ORCA  MP2 
------------------------------------------------------------------------------

Freezing NCore=104 chemical core electrons

----------
MP2 ENERGY (disk based algorithm)
----------

Dimension of the basis                    ...  918
Memory devoted to MP2                     ... 2000 MB   
Data format for buffers                   ... DOUBLE
Compression type for matrix containers    ... UNCOMPRESSED

-------------------------------
PARTIAL EXCHANGE TRANSFORMATION
-------------------------------

Transformation type                        ... one-operator
Generation of integrals (i,mue|j,nue)      ... ON
Generation of integrals (mue,kappa|nue,tau)... OFF
Generation of integrals (i,mue|a,nue)      ... OFF
Dimension of the basis                     ...  918
Number of internal MOs                     ...  127 (  52- 178)
Pair cutoff                                ... 2.500e-12 Eh
Number of AO pairs in the trafo            ... 421821
Total Number of distinct AO pairs          ... 421821
Memory devoted for trafo                   ... 2000.0 MB 
Max. Number of MO pairs treated together   ...  311      
Number Format for Storage                  ... Double (8 Byte)
Integral package used                      ... LIBINT

Starting integral evaluation:
    ... done with AO integral generation
Closing buffer AOK     (37.98 GB; CompressionRatio= 1.33)
Collecting buffer AOK 
Number of MO pairs included in the trafo   ... 8128
------------------------
SORTING OF (i,mue|j,nue)
------------------------

IBATCH = 1 of  2
IBATCH = 2 of  2
Closing buffer KAO     (51.03 GB; CompressionRatio= 1.00)
Collecting buffer KAO 
N(AO-Batches) Done                         ...  85653652 
N(AO-Batches) Skipped                      ...  82005045 
N(IJ)-pairs Skipped                        ...         0 
TOTAL TIME for half transformation         ...  2733.740 sec
AO-integral generation                     ...   177.199 sec
Half transformation                        ...   317.649 sec
K-integral sorting                         ...  2099.287 sec
Process 10:   Internal MO 132
Process 13:   Internal MO 156
Process  1:   Internal MO  60
Process  4:   Internal MO  84
Process  7:   Internal MO 108

Finished integral transformation - now doing MP2 part

OPERATOR COMBINATION   0   0: ij=( 52..178, 52..178)
Process  0:   Internal MO  54
Process  0:   Internal MO  57
Process  2:   Internal MO  69
Process  1:   Internal MO  63
Process  5:   Internal MO  93
Process  3:   Internal MO  78
Process  8:   Internal MO 117
Process  1:   Internal MO  66
Process  2:   Internal MO  72
Process  6:   Internal MO 102
Process  4:   Internal MO  87
Process 11:   Internal MO 141
Process 14:   Internal MO 165
Process  2:   Internal MO  75
Process  3:   Internal MO  81
Process  9:   Internal MO 126
Process  7:   Internal MO 111
Process 12:   Internal MO 150
Process  5:   Internal MO  96
Process  4:   Internal MO  90
Process 10:   Internal MO 135
Process  6:   Internal MO 105
Process 15:   Internal MO 174
Process  8:   Internal MO 120
Process  5:   Internal MO  99
Process  9:   Internal MO 129
Process 13:   Internal MO 159
Process  7:   Internal MO 114
Process 11:   Internal MO 144
Process 10:   Internal MO 138
Process 14:   Internal MO 168
Process 12:   Internal MO 153
Process  8:   Internal MO 123
Process 15:   Internal MO 177
Process 11:   Internal MO 147
Process 13:   Internal MO 162
Process 14:   Internal MO 171
-----------------------------------------------
 MP2 CORRELATION ENERGY   :     -7.280690718 Eh
-----------------------------------------------


-------
TIMINGS
-------
Total time                : 3215.723 sec
Integral trafo            : 2735.753 sec ( 85.1%)
K(i,j)                    :    6.957 sec (  0.2%)
T(i,j)                    :    0.090 sec (  0.0%)

---------------------------------------
MP2 TOTAL ENERGY:    -2130.894897991 Eh
---------------------------------------

Maximum memory used throughout the entire MP2-calculation: 2275.2 MB

-------------------------   --------------------
FINAL SINGLE POINT ENERGY     -2130.894897990724
-------------------------   --------------------


                            ***************************************
                            *     ORCA property calculations      *
                            ***************************************


  WARNING: The energy has been calculated at the MP2 level but the densities
           used in the property calculations are still SCF densities
           MP2 response densities have not been calculated 
           use %mp2 Density relaxed end
           or  %mp2 Density unrelaxed end

                                    ---------------------
                                    Active property flags
                                    ---------------------
   (+) Dipole Moment


------------------------------------------------------------------------------
                       ORCA ELECTRIC PROPERTIES CALCULATION
------------------------------------------------------------------------------

Dipole Moment Calculation                       ... on
Quadrupole Moment Calculation                   ... off
Polarizability Calculation                      ... off
GBWName                                         ... /scratch/allen/tmpyp4_amber_gaff2/conf1/conf1/Conf74.orca.gbw
Electron density                                ... /scratch/allen/tmpyp4_amber_gaff2/conf1/conf1/Conf74.orca.scfp
The origin for moment calculation is the CENTER OF MASS  = ( 0.001066, -0.003453  0.004121)

-------------
DIPOLE MOMENT
-------------
                                X             Y             Z
Electronic contribution:     -2.79895       2.91004      -0.14917
Nuclear contribution   :     -0.03972       0.15888       0.19156
                        -----------------------------------------
Total Dipole Moment    :     -2.83867       3.06892       0.04240
                        -----------------------------------------
Magnitude (a.u.)       :      4.18068
Magnitude (Debye)      :     10.62646



--------------------
Rotational spectrum 
--------------------
 
Rotational constants in cm-1:     0.001498     0.001473     0.000763 
Rotational constants in MHz :    44.917319    44.152359    22.860711 

 Dipole components along the rotational axes: 
x,y,z [a.u.] :    -3.765213    -1.816587     0.036152 
x,y,z [Debye]:    -9.570412    -4.617397     0.091891 

 

Timings for individual modules:

Sum of individual times         ...     4688.209 sec (=  78.137 min)
GTO integral calculation        ...        2.639 sec (=   0.044 min)   0.1 %
SCF iterations                  ...     1450.044 sec (=  24.167 min)  30.9 %
MP2 module                      ...     3235.526 sec (=  53.925 min)  69.0 %
                             ****ORCA TERMINATED NORMALLY****
TOTAL RUN TIME: 0 days 1 hours 18 minutes 11 seconds 466 msec
# of primitive gaussian functions

