
                                 *****************
                                 * O   R   C   A *
                                 *****************

                                            #,                                       
                                            ###                                      
                                            ####                                     
                                            #####                                    
                                            ######                                   
                                           ########,                                 
                                     ,,################,,,,,                         
                               ,,#################################,,                 
                          ,,##########################################,,             
                       ,#########################################, ''#####,          
                    ,#############################################,,   '####,        
                  ,##################################################,,,,####,       
                ,###########''''           ''''###############################       
              ,#####''   ,,,,##########,,,,          '''####'''          '####       
            ,##' ,,,,###########################,,,                        '##       
           ' ,,###''''                  '''############,,,                           
         ,,##''                                '''############,,,,        ,,,,,,###''
      ,#''                                            '''#######################'''  
     '                                                          ''''####''''         
             ,#######,   #######,   ,#######,      ##                                
            ,#'     '#,  ##    ##  ,#'     '#,    #''#        ######   ,####,        
            ##       ##  ##   ,#'  ##            #'  '#       #        #'  '#        
            ##       ##  #######   ##           ,######,      #####,   #    #        
            '#,     ,#'  ##    ##  '#,     ,#' ,#      #,         ##   #,  ,#        
             '#######'   ##     ##  '#######'  #'      '#     #####' # '####'        



                  #######################################################
                  #                        -***-                        #
                  #          Department of theory and spectroscopy      #
                  #    Directorship and core code : Frank Neese         #
                  #        Max Planck Institute fuer Kohlenforschung    #
                  #                Kaiser Wilhelm Platz 1               #
                  #                 D-45470 Muelheim/Ruhr               #
                  #                      Germany                        #
                  #                                                     #
                  #                  All rights reserved                #
                  #                        -***-                        #
                  #######################################################


                         Program Version 5.0.4 -  RELEASE  -


 With contributions from (in alphabetic order):
   Daniel Aravena         : Magnetic Suceptibility
   Michael Atanasov       : Ab Initio Ligand Field Theory (pilot matlab implementation)
   Alexander A. Auer      : GIAO ZORA, VPT2 properties, NMR spectrum
   Ute Becker             : Parallelization
   Giovanni Bistoni       : ED, misc. LED, open-shell LED, HFLD
   Martin Brehm           : Molecular dynamics
   Dmytro Bykov           : SCF Hessian
   Vijay G. Chilkuri      : MRCI spin determinant printing, contributions to CSF-ICE
   Dipayan Datta          : RHF DLPNO-CCSD density
   Achintya Kumar Dutta   : EOM-CC, STEOM-CC
   Dmitry Ganyushin       : Spin-Orbit,Spin-Spin,Magnetic field MRCI
   Miquel Garcia          : C-PCM and meta-GGA Hessian, CC/C-PCM, Gaussian charge scheme
   Yang Guo               : DLPNO-NEVPT2, F12-NEVPT2, CIM, IAO-localization
   Andreas Hansen         : Spin unrestricted coupled pair/coupled cluster methods
   Benjamin Helmich-Paris : MC-RPA, TRAH-SCF, COSX integrals
   Lee Huntington         : MR-EOM, pCC
   Robert Izsak           : Overlap fitted RIJCOSX, COSX-SCS-MP3, EOM
   Marcus Kettner         : VPT2
   Christian Kollmar      : KDIIS, OOCD, Brueckner-CCSD(T), CCSD density, CASPT2, CASPT2-K
   Simone Kossmann        : Meta GGA functionals, TD-DFT gradient, OOMP2, MP2 Hessian
   Martin Krupicka        : Initial AUTO-CI
   Lucas Lang             : DCDCAS
   Marvin Lechner         : AUTO-CI (C++ implementation), FIC-MRCC
   Dagmar Lenk            : GEPOL surface, SMD
   Dimitrios Liakos       : Extrapolation schemes; Compound Job, initial MDCI parallelization
   Dimitrios Manganas     : Further ROCIS development; embedding schemes
   Dimitrios Pantazis     : SARC Basis sets
   Anastasios Papadopoulos: AUTO-CI, single reference methods and gradients
   Taras Petrenko         : DFT Hessian,TD-DFT gradient, ASA, ECA, R-Raman, ABS, FL, XAS/XES, NRVS
   Peter Pinski           : DLPNO-MP2, DLPNO-MP2 Gradient
   Christoph Reimann      : Effective Core Potentials
   Marius Retegan         : Local ZFS, SOC
   Christoph Riplinger    : Optimizer, TS searches, QM/MM, DLPNO-CCSD(T), (RO)-DLPNO pert. Triples
   Tobias Risthaus        : Range-separated hybrids, TD-DFT gradient, RPA, STAB
   Michael Roemelt        : Original ROCIS implementation
   Masaaki Saitow         : Open-shell DLPNO-CCSD energy and density
   Barbara Sandhoefer     : DKH picture change effects
   Avijit Sen             : IP-ROCIS
   Kantharuban Sivalingam : CASSCF convergence, NEVPT2, FIC-MRCI
   Bernardo de Souza      : ESD, SOC TD-DFT
   Georgi Stoychev        : AutoAux, RI-MP2 NMR, DLPNO-MP2 response
   Willem Van den Heuvel  : Paramagnetic NMR
   Boris Wezisla          : Elementary symmetry handling
   Frank Wennmohs         : Technical directorship


 We gratefully acknowledge several colleagues who have allowed us to
 interface, adapt or use parts of their codes:
   Stefan Grimme, W. Hujo, H. Kruse, P. Pracht,  : VdW corrections, initial TS optimization,
                  C. Bannwarth, S. Ehlert          DFT functionals, gCP, sTDA/sTD-DF
   Ed Valeev, F. Pavosevic, A. Kumar             : LibInt (2-el integral package), F12 methods
   Garnet Chan, S. Sharma, J. Yang, R. Olivares  : DMRG
   Ulf Ekstrom                                   : XCFun DFT Library
   Mihaly Kallay                                 : mrcc  (arbitrary order and MRCC methods)
   Jiri Pittner, Ondrej Demel                    : Mk-CCSD
   Frank Weinhold                                : gennbo (NPA and NBO analysis)
   Christopher J. Cramer and Donald G. Truhlar   : smd solvation model
   Lars Goerigk                                  : TD-DFT with DH, B97 family of functionals
   V. Asgeirsson, H. Jonsson                     : NEB implementation
   FAccTs GmbH                                   : IRC, NEB, NEB-TS, DLPNO-Multilevel, CI-OPT
                                                   MM, QMMM, 2- and 3-layer-ONIOM, Crystal-QMMM,
                                                   LR-CPCM, SF, NACMEs, symmetry and pop. for TD-DFT,
                                                   nearIR, NL-DFT gradient (VV10), updates on ESD,
                                                   ML-optimized integration grids
   S Lehtola, MJT Oliveira, MAL Marques          : LibXC Library
   Liviu Ungur et al                             : ANISO software


 Your calculation uses the libint2 library for the computation of 2-el integrals
 For citations please refer to: http://libint.valeyev.net

 Your ORCA version has been built with support for libXC version: 5.1.0
 For citations please refer to: https://tddft.org/programs/libxc/

 This ORCA versions uses:
   CBLAS   interface :  Fast vector & matrix operations
   LAPACKE interface :  Fast linear algebra routines
   SCALAPACK package :  Parallel linear algebra routines
   Shared memory     :  Shared parallel matrices
   BLAS/LAPACK       :  OpenBLAS 0.3.15  USE64BITINT DYNAMIC_ARCH NO_AFFINITY Sandybridge SINGLE_THREADED
        Core in use  :  Sandybridge
   Copyright (c) 2011-2014, The OpenBLAS Project


================================================================================

----- Orbital basis set information -----
Your calculation utilizes the basis: cc-pVDZ 
       H, B-Ne : Obtained from the ccRepo (grant-hill.group.shef.ac.uk/ccrepo) Feb. 2017
                 T. H. Dunning, Jr., J. Chem. Phys. 90, 1007 (1989)
            He : Obtained from the ccRepo (grant-hill.group.shef.ac.uk/ccrepo) Feb. 2017
                 D. E. Woon, T. H. Dunning, Jr., J. Chem. Phys. 100, 2975 (1994)
  Li-Be, Na-Mg : Obtained from the ccRepo (grant-hill.group.shef.ac.uk/ccrepo) Feb. 2017
                 B. P. Prascher, D. E. Woon, K. A. Peterson, T. H. Dunning, Jr., A. K. Wilson, Theor. Chem. Acc. 128, 69 (2011)
         Al-Ar : Obtained from the ccRepo (grant-hill.group.shef.ac.uk/ccrepo) Feb. 2017
                 D. E. Woon, T. H. Dunning, Jr., J. Chem. Phys. 98, 1358 (1993)
            Ca : Obtained from the Peterson Research Group Website (tyr0.chem.wsu.edu/~kipeters) Feb. 2017
                 J. Koput, K. A. Peterson, J. Phys. Chem. 106, 9595 (2002)
         Sc-Zn : Obtained from the ccRepo (grant-hill.group.shef.ac.uk/ccrepo) Feb. 2017
                 N. B. Balabanov, K. A. Peterson, J. Chem. Phys. 123, 064107 (2005)
                 N. B. Balabanov, K. A. Peterson, J. Chem. Phys. 125, 074110 (2006)
         Ga-Kr : Obtained from the ccRepo (grant-hill.group.shef.ac.uk/ccrepo) Feb. 2017
                 A. K. Wilson, D. E. Woon, K. A. Peterson, T. H. Dunning, Jr., J. Chem. Phys. 110, 7667 (1999)

================================================================================
                                        WARNINGS
                       Please study these warnings very carefully!
================================================================================


WARNING: No MP2 level density has been requested!
         To caclulate MP2 level properties use
         %mp2 Density relaxed end
         or
         %mp2 Density unrelaxed end

WARNING: Post HF methods need fully converged wavefunctions
  ===> : Setting SCFConvForced true
         You can overwrite this default with %scf ConvForced false 


INFO   : the flag for use of the SHARK integral package has been found!

================================================================================
                                       INPUT FILE
================================================================================
NAME = /scratch/allen/tmpyp4_amber_gaff2/2.Mdgx/conf11/conf11/Conf323.orca
|  1> ! PAL2
|  2> ! mp2 cc-pvdz TightSCF  NoKeepInts
|  3> 
|  4> %scf
|  5>   MaxCore 2000
|  6> end
|  7> %mp2
|  8>   MaxCore 2000
|  9> end
| 10> * xyz 0 1
| 11>    C       -3.25200         6.33100         0.83300
| 12>    C        1.47400         4.04100         0.05700
| 13>    C       -2.80200         4.09300         0.04900
| 14>    C       -3.98600         4.17200        -0.70000
| 15>    C       -4.75600         5.31800        -0.66100
| 16>    C       -5.21400         7.60200         0.09000
| 17>    C        0.13200         4.30700         0.06100
| 18>    C       -0.56900         3.05600         0.04700
| 19>    C        1.64900         2.61800         0.02300
| 20>    C       -2.44600         5.20900         0.82200
| 21>    N       -4.38700         6.37500         0.10000
| 22>    N        0.38800         2.06700         0.02500
| 23>    N       -2.01000         0.39500        -0.07500
| 24>    N       -0.38800        -2.07400        -0.02700
| 25>    N        2.01000        -0.40100         0.06500
| 26>    C       -1.96000         2.86100         0.02400
| 27>    C       -2.62300         1.61500        -0.01800
| 28>    C       -5.57300        -4.32900         1.06600
| 29>    C       -4.07300         1.47100         0.05600
| 30>    C       -4.10600        -2.75600        -0.02600
| 31>    C       -4.99500        -2.75700        -1.11100
| 32>    C       -6.13200        -3.54200        -1.07600
| 33>    C       -7.65100        -5.11300         0.04000
| 34>    C       -4.32400         0.14100         0.03700
| 35>    C       -3.02500        -0.52000        -0.04800
| 36>    C       -4.42200        -3.56600         1.07500
| 37>    N       -6.40700        -4.31300         0.00100
| 38>    C       -2.86700        -1.92200        -0.04000
| 39>    C       -1.65000        -2.62400        -0.02700
| 40>    C        3.56800        -6.14200        -1.04000
| 41>    C       -1.47600        -4.04900        -0.03400
| 42>    C        2.80300        -4.09900        -0.00800
| 43>    C        3.65700        -4.38400         1.06900
| 44>    C        4.42700        -5.53000         1.05900
| 45>    C        5.24500        -7.58800         0.01400
| 46>    C       -0.13400        -4.31500        -0.02200
| 47>    C        0.56800        -3.06400        -0.02700
| 48>    C        2.77500        -5.01200        -1.07400
| 49>    N        4.37600        -6.39100         0.01700
| 50>    C        1.95900        -2.86900        -0.00900
| 51>    C        2.62100        -1.62200         0.00900
| 52>    C        5.54300         4.33900        -1.13000
| 53>    C        4.07000        -1.47900        -0.09400
| 54>    C        4.10400         2.75100        -0.02100
| 55>    C        5.02700         2.72900         1.03600
| 56>    C        6.16600         3.50900         0.97800
| 57>    C        7.61900         5.15300        -0.11500
| 58>    C        4.32100        -0.14800        -0.09200
| 59>    C        3.02500         0.51400         0.01500
| 60>    C        4.38700         3.58200        -1.11500
| 61>    C        2.86600         1.91600         0.01300
| 62>    N        6.41300         4.29600        -0.09500
| 63>    H       -3.02200         7.20900         1.42300
| 64>    H        2.27400         4.76600         0.08100
| 65>    H       -4.30900         3.34800        -1.32400
| 66>    H       -5.67100         5.42900        -1.22800
| 67>    H       -4.90600         8.23100        -0.74800
| 68>    H       -6.26100         7.31900        -0.01800
| 69>    H       -5.06500         8.13200         1.03000
| 70>    H       -0.33200         5.28200         0.06900
| 71>    H       -1.55100         5.20400         1.43300
| 72>    H        0.18200         1.07200         0.00500
| 73>    H       -0.18300        -1.08000        -0.02100
| 74>    H       -5.86400        -4.96200         1.89500
| 75>    H       -4.79400         2.27200         0.13900
| 76>    H       -4.80000        -2.16000        -1.99400
| 77>    H       -6.84100        -3.58200        -1.89300
| 78>    H       -8.42800        -4.53600         0.54600
| 79>    H       -7.95600        -5.33700        -0.98100
| 80>    H       -7.45600        -6.03700         0.58400
| 81>    H       -5.28700        -0.34400         0.10000
| 82>    H       -3.78000        -3.60100         1.94700
| 83>    H        3.58700        -6.86800        -1.84300
| 84>    H       -2.27600        -4.77400        -0.05000
| 85>    H        3.71400        -3.72400         1.92600
| 86>    H        5.09200        -5.79500         1.87100
| 87>    H        6.20500        -7.32900        -0.43900
| 88>    H        5.39300        -7.91700         1.04200
| 89>    H        4.75900        -8.37300        -0.56400
| 90>    H        0.32900        -5.29000        -0.00800
| 91>    H        2.14600        -4.84200        -1.94000
| 92>    H        5.80800         4.98600        -1.95600
| 93>    H        4.78800        -2.28100        -0.18500
| 94>    H        4.86000         2.11400         1.91200
| 95>    H        6.90100         3.53100         1.77200
| 96>    H        7.38300         6.10900         0.35600
| 97>    H        8.41400         4.65200         0.43500
| 98>    H        7.92100         5.31000        -1.15000
| 99>    H        5.28300         0.33600        -0.17900
|100>    H        3.72000         3.63200        -1.96700
|101> *
|102> 
|103>                          ****END OF INPUT****
================================================================================

                       ****************************
                       * Single Point Calculation *
                       ****************************

---------------------------------
CARTESIAN COORDINATES (ANGSTROEM)
---------------------------------
  C     -3.252000    6.331000    0.833000
  C      1.474000    4.041000    0.057000
  C     -2.802000    4.093000    0.049000
  C     -3.986000    4.172000   -0.700000
  C     -4.756000    5.318000   -0.661000
  C     -5.214000    7.602000    0.090000
  C      0.132000    4.307000    0.061000
  C     -0.569000    3.056000    0.047000
  C      1.649000    2.618000    0.023000
  C     -2.446000    5.209000    0.822000
  N     -4.387000    6.375000    0.100000
  N      0.388000    2.067000    0.025000
  N     -2.010000    0.395000   -0.075000
  N     -0.388000   -2.074000   -0.027000
  N      2.010000   -0.401000    0.065000
  C     -1.960000    2.861000    0.024000
  C     -2.623000    1.615000   -0.018000
  C     -5.573000   -4.329000    1.066000
  C     -4.073000    1.471000    0.056000
  C     -4.106000   -2.756000   -0.026000
  C     -4.995000   -2.757000   -1.111000
  C     -6.132000   -3.542000   -1.076000
  C     -7.651000   -5.113000    0.040000
  C     -4.324000    0.141000    0.037000
  C     -3.025000   -0.520000   -0.048000
  C     -4.422000   -3.566000    1.075000
  N     -6.407000   -4.313000    0.001000
  C     -2.867000   -1.922000   -0.040000
  C     -1.650000   -2.624000   -0.027000
  C      3.568000   -6.142000   -1.040000
  C     -1.476000   -4.049000   -0.034000
  C      2.803000   -4.099000   -0.008000
  C      3.657000   -4.384000    1.069000
  C      4.427000   -5.530000    1.059000
  C      5.245000   -7.588000    0.014000
  C     -0.134000   -4.315000   -0.022000
  C      0.568000   -3.064000   -0.027000
  C      2.775000   -5.012000   -1.074000
  N      4.376000   -6.391000    0.017000
  C      1.959000   -2.869000   -0.009000
  C      2.621000   -1.622000    0.009000
  C      5.543000    4.339000   -1.130000
  C      4.070000   -1.479000   -0.094000
  C      4.104000    2.751000   -0.021000
  C      5.027000    2.729000    1.036000
  C      6.166000    3.509000    0.978000
  C      7.619000    5.153000   -0.115000
  C      4.321000   -0.148000   -0.092000
  C      3.025000    0.514000    0.015000
  C      4.387000    3.582000   -1.115000
  C      2.866000    1.916000    0.013000
  N      6.413000    4.296000   -0.095000
  H     -3.022000    7.209000    1.423000
  H      2.274000    4.766000    0.081000
  H     -4.309000    3.348000   -1.324000
  H     -5.671000    5.429000   -1.228000
  H     -4.906000    8.231000   -0.748000
  H     -6.261000    7.319000   -0.018000
  H     -5.065000    8.132000    1.030000
  H     -0.332000    5.282000    0.069000
  H     -1.551000    5.204000    1.433000
  H      0.182000    1.072000    0.005000
  H     -0.183000   -1.080000   -0.021000
  H     -5.864000   -4.962000    1.895000
  H     -4.794000    2.272000    0.139000
  H     -4.800000   -2.160000   -1.994000
  H     -6.841000   -3.582000   -1.893000
  H     -8.428000   -4.536000    0.546000
  H     -7.956000   -5.337000   -0.981000
  H     -7.456000   -6.037000    0.584000
  H     -5.287000   -0.344000    0.100000
  H     -3.780000   -3.601000    1.947000
  H      3.587000   -6.868000   -1.843000
  H     -2.276000   -4.774000   -0.050000
  H      3.714000   -3.724000    1.926000
  H      5.092000   -5.795000    1.871000
  H      6.205000   -7.329000   -0.439000
  H      5.393000   -7.917000    1.042000
  H      4.759000   -8.373000   -0.564000
  H      0.329000   -5.290000   -0.008000
  H      2.146000   -4.842000   -1.940000
  H      5.808000    4.986000   -1.956000
  H      4.788000   -2.281000   -0.185000
  H      4.860000    2.114000    1.912000
  H      6.901000    3.531000    1.772000
  H      7.383000    6.109000    0.356000
  H      8.414000    4.652000    0.435000
  H      7.921000    5.310000   -1.150000
  H      5.283000    0.336000   -0.179000
  H      3.720000    3.632000   -1.967000

----------------------------
CARTESIAN COORDINATES (A.U.)
----------------------------
  NO LB      ZA    FRAG     MASS         X           Y           Z
   0 C     6.0000    0    12.011   -6.145389   11.963856    1.574142
   1 C     6.0000    0    12.011    2.785456    7.636383    0.107714
   2 C     6.0000    0    12.011   -5.295013    7.734649    0.092597
   3 C     6.0000    0    12.011   -7.532448    7.883937   -1.322808
   4 C     6.0000    0    12.011   -8.987537   10.049564   -1.249109
   5 C     6.0000    0    12.011   -9.853032   14.365698    0.170075
   6 C     6.0000    0    12.011    0.249444    8.139050    0.115273
   7 C     6.0000    0    12.011   -1.075254    5.775003    0.088817
   8 C     6.0000    0    12.011    3.116158    4.947303    0.043464
   9 C     6.0000    0    12.011   -4.622270    9.843583    1.553355
  10 N     7.0000    0    14.007   -8.290229   12.047004    0.188973
  11 N     7.0000    0    14.007    0.733214    3.906064    0.047243
  12 N     7.0000    0    14.007   -3.798350    0.746442   -0.141729
  13 N     7.0000    0    14.007   -0.733214   -3.919292   -0.051023
  14 N     7.0000    0    14.007    3.798350   -0.757780    0.122832
  15 C     6.0000    0    12.011   -3.703863    5.406506    0.045353
  16 C     6.0000    0    12.011   -4.956752    3.051908   -0.034015
  17 C     6.0000    0    12.011  -10.531444   -8.180624    2.014448
  18 C     6.0000    0    12.011   -7.696855    2.779787    0.105825
  19 C     6.0000    0    12.011   -7.759216   -5.208085   -0.049133
  20 C     6.0000    0    12.011   -9.439182   -5.209975   -2.099486
  21 C     6.0000    0    12.011  -11.587801   -6.693410   -2.033345
  22 C     6.0000    0    12.011  -14.458295   -9.662170    0.075589
  23 C     6.0000    0    12.011   -8.171176    0.266451    0.069920
  24 C     6.0000    0    12.011   -5.716422   -0.982658   -0.090707
  25 C     6.0000    0    12.011   -8.356369   -6.738763    2.031456
  26 N     7.0000    0    14.007  -12.107475   -8.150389    0.001890
  27 C     6.0000    0    12.011   -5.417845   -3.632054   -0.075589
  28 C     6.0000    0    12.011   -3.118048   -4.958641   -0.051023
  29 C     6.0000    0    12.011    6.742543  -11.606698   -1.965315
  30 C     6.0000    0    12.011   -2.789236   -7.651501   -0.064251
  31 C     6.0000    0    12.011    5.296902   -7.745987   -0.015118
  32 C     6.0000    0    12.011    6.910728   -8.284559    2.020117
  33 C     6.0000    0    12.011    8.365818  -10.450186    2.001220
  34 C     6.0000    0    12.011    9.911614  -14.339242    0.026456
  35 C     6.0000    0    12.011   -0.253223   -8.154168   -0.041574
  36 C     6.0000    0    12.011    1.073364   -5.790121   -0.051023
  37 C     6.0000    0    12.011    5.243990   -9.471307   -2.029566
  38 N     7.0000    0    14.007    8.269442  -12.077240    0.032125
  39 C     6.0000    0    12.011    3.701973   -5.421624   -0.017008
  40 C     6.0000    0    12.011    4.952972   -3.065136    0.017008
  41 C     6.0000    0    12.011   10.474752    8.199522   -2.135391
  42 C     6.0000    0    12.011    7.691185   -2.794905   -0.177634
  43 C     6.0000    0    12.011    7.755436    5.198637   -0.039684
  44 C     6.0000    0    12.011    9.499653    5.157063    1.957756
  45 C     6.0000    0    12.011   11.652051    6.631049    1.848152
  46 C     6.0000    0    12.011   14.397823    9.737759   -0.217319
  47 C     6.0000    0    12.011    8.165507   -0.279679   -0.173855
  48 C     6.0000    0    12.011    5.716422    0.971319    0.028346
  49 C     6.0000    0    12.011    8.290229    6.768999   -2.107045
  50 C     6.0000    0    12.011    5.415955    3.620715    0.024566
  51 N     7.0000    0    14.007   12.118814    8.118263   -0.179524
  52 H     1.0000    0     1.008   -5.710752   13.623036    2.689080
  53 H     1.0000    0     1.008    4.297237    9.006435    0.153068
  54 H     1.0000    0     1.008   -8.142830    6.326803   -2.501997
  55 H     1.0000    0     1.008  -10.716637   10.259323   -2.320584
  56 H     1.0000    0     1.008   -9.270996   15.554336   -1.413515
  57 H     1.0000    0     1.008  -11.831575   13.830906   -0.034015
  58 H     1.0000    0     1.008   -9.571463   15.367253    1.946418
  59 H     1.0000    0     1.008   -0.627389    9.981533    0.130391
  60 H     1.0000    0     1.008   -2.930965    9.834135    2.707978
  61 H     1.0000    0     1.008    0.343930    2.025786    0.009449
  62 H     1.0000    0     1.008   -0.345820   -2.040904   -0.039684
  63 H     1.0000    0     1.008  -11.081354   -9.376821    3.581031
  64 H     1.0000    0     1.008   -9.059347    4.293458    0.262672
  65 H     1.0000    0     1.008   -9.070685   -4.081808   -3.768114
  66 H     1.0000    0     1.008  -12.927616   -6.768999   -3.577252
  67 H     1.0000    0     1.008  -15.926612   -8.571798    1.031790
  68 H     1.0000    0     1.008  -15.034661  -10.085468   -1.853821
  69 H     1.0000    0     1.008  -14.089798  -11.408277    1.103600
  70 H     1.0000    0     1.008   -9.990982   -0.650066    0.188973
  71 H     1.0000    0     1.008   -7.143165   -6.804904    3.679297
  72 H     1.0000    0     1.008    6.778448  -12.978639   -3.482765
  73 H     1.0000    0     1.008   -4.301017   -9.021553   -0.094486
  74 H     1.0000    0     1.008    7.018443   -7.037340    3.639613
  75 H     1.0000    0     1.008    9.622485  -10.950963    3.535678
  76 H     1.0000    0     1.008   11.725751  -13.849803   -0.829590
  77 H     1.0000    0     1.008   10.191293  -14.960962    1.969095
  78 H     1.0000    0     1.008    8.993207  -15.822677   -1.065806
  79 H     1.0000    0     1.008    0.621720   -9.996651   -0.015118
  80 H     1.0000    0     1.008    4.055352   -9.150054   -3.666069
  81 H     1.0000    0     1.008   10.975529    9.422175   -3.696304
  82 H     1.0000    0     1.008    9.048009   -4.310465   -0.349599
  83 H     1.0000    0     1.008    9.184069    3.994881    3.613156
  84 H     1.0000    0     1.008   13.041000    6.672623    3.348595
  85 H     1.0000    0     1.008   13.951848   11.544337    0.672743
  86 H     1.0000    0     1.008   15.900156    8.791006    0.822031
  87 H     1.0000    0     1.008   14.968521   10.034446   -2.173185
  88 H     1.0000    0     1.008    9.983423    0.634948   -0.338261
  89 H     1.0000    0     1.008    7.029781    6.863485   -3.717091

--------------------------------
INTERNAL COORDINATES (ANGSTROEM)
--------------------------------
 C      0   0   0     0.000000000000     0.00000000     0.00000000
 C      1   0   0     5.308611117797     0.00000000     0.00000000
 C      1   2   0     2.413669405697    52.16160069     0.00000000
 C      3   1   2     1.403245523777    87.92920324   211.17549402
 C      4   3   1     1.381208528789   120.13375096     0.13707036
 C      5   4   3     2.447533656561   152.53028478     1.66110872
 C      2   1   3     1.368114030335    16.75271668    11.20998645
 C      7   2   1     1.434084376876   108.05010202   209.18687340
 C      2   1   3     1.434123425651   122.69234909   338.67847919
 C      1   2   3     1.381535739675    29.43883013    31.72503025
 N      1   2   3     1.351832090165   133.01858828   314.94818977
 N      9   2   1     1.376127174356   106.58526707     8.62955163
 N     12   9   2     2.925062050624   168.53581413   171.12065651
 N     13  12   9     2.954513327098    91.55032014    11.12112580
 N     14  13  12     2.925371258490    88.43092389   359.84326247
 C      8   7   2     1.404790019896   127.24786865   181.11170171
 C     13  12   9     1.366535034311    81.72106996   188.00453233
 C     14  13  12     5.758810554272    80.56209567   166.76250791
 C     17  13  12     1.459010623676   111.08861209   183.82872609
 C     18  14  13     2.412235892279    27.27532823    36.33507194
 C     20  18  14     1.402692767501    87.95206320   148.94598259
 C     21  20  18     1.382106725257   120.14573887   359.70382047
 C     18  14  13     2.446510985056   144.15733107    82.80075377
 C     19  17  13     1.353610726908   106.29293361   359.75308708
 C     13  12   9     1.366813447402   172.21332906    33.46711076
 C     18  14  13     1.380960173213    15.08449437   309.23336894
 N     22  21  20     1.352773077792   120.73759875     0.27865223
 C     25  13  17     1.410897586645   125.60330303   182.37774668
 C     14  13  12     1.376642291955    80.24689249   177.85461986
 C     14  13  12     5.764089607215   164.51507311   312.20821879
 C     29  14  13     1.435600919476   106.58649366   178.76395472
 C     30  14  13     2.413316804732    27.10625047    82.12560436
 C     32  30  14     1.403734305344    87.90059683   149.76154742
 C     33  32  30     1.380694028378   120.14881443   359.74174632
 C     34  33  32     2.448777858443   152.49203239     2.45173620
 C     31  29  14     1.368160809262   108.16950133     0.70383075
 C     14  13  12     1.376239804685   169.26375223   353.09862627
 C     30  14  13     1.380907310430    14.68948582   353.70041132
 N     34  33  32     1.352658863128   120.85575621     0.19603406
 C     37  14  29     1.404717053360   126.01551127   180.90772073
 C     15  14  13     1.366491126938    81.61824056   183.09049352
 C      2   1   3     4.249062720177   149.66728754   144.62738589
 C     41  15  14     1.459677704153   111.05201287   175.08990246
 C     42   2   1     2.412953791518    41.78584867   168.16312963
 C     44  42   2     1.403446472082    87.95153797   233.97558675
 C     45  44  42     1.381696421071   120.11137308     0.19721020
 C     42   2   1     2.450019795838   135.97209175    78.47797873
 C     43  41  15     1.354461516618   106.26758155     0.30894352
 C     15  14  13     1.367461151185   171.87382904   332.35056460
 C     42   2   1     1.381886391857    32.59078432   217.01840882
 C      9   2   1     1.404988612053   126.98745415   189.63388916
 N     42   2   1     1.352765315936   113.57249190   106.21456793
 H      1   2   3     1.082535911645   103.90972232   165.44469395
 H      2   1   3     1.079907866440   111.50906390   167.20875828
 H      4   3   1     1.082903966195   121.09111477   179.50281460
 H      5   4   3     1.082143705799   122.79863614   179.40699337
 H      6   5   4     1.092130486709   104.43274238   100.03390047
 H      6   5   4     1.089936695409    84.66675993   209.49472820
 H      6   5   4     1.089358067855   133.88335898   322.35474872
 H      7   2   1     1.079807853278   126.66122480    29.42528718
 H     10   1   2     1.083683994530   118.75644069    56.81331620
 H     12   9   2     1.016297692608   125.29023241   180.00180175
 H     14  13  12     1.014936943854    44.97226959   359.42596618
 H     18  14  13     1.082871645210   128.03556573   234.20482432
 H     19  17  13     1.080893611786   126.41830519   178.11313280
 H     21  20  18     1.083569563987   121.05669627   180.67006309
 H     22  21  20     1.082483256222   122.73097286   180.59748951
 H     23  18  14     1.092105306278   103.92715769   234.93429879
 H     23  18  14     1.088871893291   134.19244188    12.25587044
 H     23  18  14     1.089833473518    84.85857450   125.45241208
 H     24  19  17     1.080075460327   127.28078426   178.44613241
 H     26  18  14     1.083408048706   118.76995697   244.94906660
 H     30  14  13     1.082703098730   127.99711412   279.66882698
 H     31  29  14     1.079759695488   125.22293469   180.92530585
 H     33  32  30     1.083188810873   121.01964473   180.74284758
 H     34  33  32     1.082494341787   122.70821597   180.59516895
 H     35  34  33     1.092652735319   105.73575241    97.19771933
 H     35  34  33     1.089462711615    84.05943581   206.43036958
 H     35  34  33     1.089268102902   133.08365142   318.50306270
 H     36  31  29     1.079439669458   126.61599965   178.98859863
 H     38  30  73     1.083742127999   118.77264435   359.90091293
 H     42   2   1     1.082178358682   119.31790784   322.84609838
 H     43  41  15     1.080281907652   126.36969097   182.06329380
 H     45  44  42     1.083277434455   121.10105945   179.58025624
 H     46  45  44     1.082194529648   122.72144639   179.46906377
 H     47  42   2     1.091546151109   106.65128841   315.16475048
 H     47  42   2     1.088818625851   132.46019523    94.52397119
 H     47  42   2     1.089531091801    83.63838232   206.04504406
 H     48  43  41     1.080402239909   127.23657387   181.62955349
 H     50  42   2     1.083186502870   118.77001737    94.71359229

---------------------------
INTERNAL COORDINATES (A.U.)
---------------------------
 C      0   0   0     0.000000000000     0.00000000     0.00000000
 C      1   0   0    10.031821164126     0.00000000     0.00000000
 C      1   2   0     4.561174154593    52.16160069     0.00000000
 C      3   1   2     2.651749738589    87.92920324   211.17549402
 C      4   3   1     2.610105853248   120.13375096     0.13707036
 C      5   4   3     4.625168314456   152.53028478     1.66110872
 C      2   1   3     2.585360837309    16.75271668    11.20998645
 C      7   2   1     2.710026725231   108.05010202   209.18687340
 C      2   1   3     2.710100516721   122.69234909   338.67847919
 C      1   2   3     2.610724192211    29.43883013    31.72503025
 N      1   2   3     2.554592429458   133.01858828   314.94818977
 N      9   2   1     2.600503484979   106.58526707     8.62955163
 N     12   9   2     5.527566200405   168.53581413   171.12065651
 N     13  12   9     5.583221047236    91.55032014    11.12112580
 N     14  13  12     5.528150518591    88.43092389   359.84326247
 C      8   7   2     2.654668413270   127.24786865   181.11170171
 C     13  12   9     2.582376967257    81.72106996   188.00453233
 C     14  13  12    10.882574804710    80.56209567   166.76250791
 C     17  13  12     2.757130505230   111.08861209   183.82872609
 C     18  14  13     4.558465206823    27.27532823    36.33507194
 C     20  18  14     2.650705180609    87.95206320   148.94598259
 C     21  20  18     2.611803198586   120.14573887   359.70382047
 C     18  14  13     4.623235745386   144.15733107    82.80075377
 C     19  17  13     2.557953565794   106.29293361   359.75308708
 C     13  12   9     2.582903091751   172.21332906    33.46711076
 C     18  14  13     2.609636529225    15.08449437   309.23336894
 N     22  21  20     2.556370638369   120.73759875     0.27865223
 C     25  13  17     2.666210041769   125.60330303   182.37774668
 C     14  13  12     2.601476916169    80.24689249   177.85461986
 C     14  13  12    10.892550769017   164.51507311   312.20821879
 C     29  14  13     2.712892575415   106.58649366   178.76395472
 C     30  14  13     4.560507835333    27.10625047    82.12560436
 C     32  30  14     2.652673401891    87.90059683   149.76154742
 C     33  32  30     2.609133588376   120.14881443   359.74174632
 C     34  33  32     4.627519515267   152.49203239     2.45173620
 C     31  29  14     2.585449236669   108.16950133     0.70383075
 C     14  13  12     2.600716325456   169.26375223   353.09862627
 C     30  14  13     2.609536633043    14.68948582   353.70041132
 N     34  33  32     2.556154803934   120.85575621     0.19603406
 C     37  14  29     2.654530526499   126.01551127   180.90772073
 C     15  14  13     2.582293994346    81.61824056   183.09049352
 C      2   1   3     8.029564866989   149.66728754   144.62738589
 C     41  15  14     2.758391104639   111.05201287   175.08990246
 C     42   2   1     4.559821839776    41.78584867   168.16312963
 C     44  42   2     2.652129475853    87.95153797   233.97558675
 C     45  44  42     2.611027836043   120.11137308     0.19721020
 C     42   2   1     4.629866436820   135.97209175    78.47797873
 C     43  41  15     2.559561325344   106.26758155     0.30894352
 C     15  14  13     2.584127074516   171.87382904   332.35056460
 C     42   2   1     2.611386828803    32.59078432   217.01840882
 C      9   2   1     2.655043698059   126.98745415   189.63388916
 N     42   2   1     2.556355970587   113.57249190   106.21456793
 H      1   2   3     2.045696403143   103.90972232   165.44469395
 H      2   1   3     2.040730117440   111.50906390   167.20875828
 H      4   3   1     2.046391925445   121.09111477   179.50281460
 H      5   4   3     2.044955241506   122.79863614   179.40699337
 H      6   5   4     2.063827522387   104.43274238   100.03390047
 H      6   5   4     2.059681857635    84.66675993   209.49472820
 H      6   5   4     2.058588410023   133.88335898   322.35474872
 H      7   2   1     2.040541119952   126.66122480    29.42528718
 H     10   1   2     2.047865965375   118.75644069    56.81331620
 H     12   9   2     1.920524309565   125.29023241   180.00180175
 H     14  13  12     1.917952867083    44.97226959   359.42596618
 H     18  14  13     2.046330847636   128.03556573   234.20482432
 H     19  17  13     2.042592906181   126.41830519   178.11313280
 H     21  20  18     2.047649722989   121.05669627   180.67006309
 H     22  21  20     2.045596898814   122.73097286   180.59748951
 H     23  18  14     2.063779938267   103.92715769   234.93429879
 H     23  18  14     2.057669673245   134.19244188    12.25587044
 H     23  18  14     2.059486796529    84.85857450   125.45241208
 H     24  19  17     2.041046823986   127.28078426   178.44613241
 H     26  18  14     2.047344503340   118.76995697   244.94906660
 H     30  14  13     2.046012340948   127.99711412   279.66882698
 H     31  29  14     2.040450114918   125.22293469   180.92530585
 H     33  32  30     2.046930203877   121.01964473   180.74284758
 H     34  33  32     2.045617847496   122.70821597   180.59516895
 H     35  34  33     2.064814429233   105.73575241    97.19771933
 H     35  34  33     2.058786158072    84.05943581   206.43036958
 H     35  34  33     2.058418400901   133.08365142   318.50306270
 H     36  31  29     2.039845353366   126.61599965   178.98859863
 H     38  30  73     2.047975821711   118.77264435   359.90091293
 H     42   2   1     2.045020725966   119.31790784   322.84609838
 H     43  41  15     2.041436952892   126.36969097   182.06329380
 H     45  44  42     2.047097678177   121.10105945   179.58025624
 H     46  45  44     2.045051284662   122.72144639   179.46906377
 H     47  42   2     2.062723288131   106.65128841   315.16475048
 H     47  42   2     2.057569012371   132.46019523    94.52397119
 H     47  42   2     2.058915377895    83.63838232   206.04504406
 H     48  43  41     2.041664347903   127.23657387   181.62955349
 H     50  42   2     2.046925842384   118.77001737    94.71359229

---------------------
BASIS SET INFORMATION
---------------------
There are 3 groups of distinct atoms

 Group   1 Type C   : 17s4p1d contracted to 3s2p1d pattern {881/31/1}
 Group   2 Type N   : 17s4p1d contracted to 3s2p1d pattern {881/31/1}
 Group   3 Type H   : 4s1p contracted to 2s1p pattern {31/1}

Atom   0C    basis set group =>   1
Atom   1N    basis set group =>   2
Atom   2C    basis set group =>   1
Atom   3N    basis set group =>   2
Atom   4C    basis set group =>   1
Atom   5N    basis set group =>   2
Atom   6C    basis set group =>   1
Atom   7N    basis set group =>   2
Atom   8C    basis set group =>   1
Atom   9N    basis set group =>   2
Atom  10C    basis set group =>   1
Atom  11N    basis set group =>   2
Atom  12C    basis set group =>   1
Atom  13N    basis set group =>   2
Atom  14C    basis set group =>   1
Atom  15N    basis set group =>   2
Atom  16C    basis set group =>   1
Atom  17C    basis set group =>   1
Atom  18C    basis set group =>   1
Atom  19C    basis set group =>   1
Atom  20C    basis set group =>   1
Atom  21C    basis set group =>   1
Atom  22C    basis set group =>   1
Atom  23C    basis set group =>   1
Atom  24C    basis set group =>   1
Atom  25C    basis set group =>   1
Atom  26C    basis set group =>   1
Atom  27C    basis set group =>   1
Atom  28C    basis set group =>   1
Atom  29C    basis set group =>   1
Atom  30C    basis set group =>   1
Atom  31C    basis set group =>   1
Atom  32C    basis set group =>   1
Atom  33C    basis set group =>   1
Atom  34C    basis set group =>   1
Atom  35C    basis set group =>   1
Atom  36C    basis set group =>   1
Atom  37C    basis set group =>   1
Atom  38C    basis set group =>   1
Atom  39C    basis set group =>   1
Atom  40C    basis set group =>   1
Atom  41C    basis set group =>   1
Atom  42C    basis set group =>   1
Atom  43C    basis set group =>   1
Atom  44C    basis set group =>   1
Atom  45C    basis set group =>   1
Atom  46C    basis set group =>   1
Atom  47C    basis set group =>   1
Atom  48C    basis set group =>   1
Atom  49C    basis set group =>   1
Atom  50C    basis set group =>   1
Atom  51C    basis set group =>   1
Atom  52H    basis set group =>   3
Atom  53H    basis set group =>   3
Atom  54H    basis set group =>   3
Atom  55H    basis set group =>   3
Atom  56H    basis set group =>   3
Atom  57H    basis set group =>   3
Atom  58H    basis set group =>   3
Atom  59H    basis set group =>   3
Atom  60H    basis set group =>   3
Atom  61H    basis set group =>   3
Atom  62H    basis set group =>   3
Atom  63H    basis set group =>   3
Atom  64H    basis set group =>   3
Atom  65H    basis set group =>   3
Atom  66H    basis set group =>   3
Atom  67H    basis set group =>   3
Atom  68H    basis set group =>   3
Atom  69H    basis set group =>   3
Atom  70H    basis set group =>   3
Atom  71H    basis set group =>   3
Atom  72H    basis set group =>   3
Atom  73H    basis set group =>   3
Atom  74H    basis set group =>   3
Atom  75H    basis set group =>   3
Atom  76H    basis set group =>   3
Atom  77H    basis set group =>   3
Atom  78H    basis set group =>   3
Atom  79H    basis set group =>   3
Atom  80H    basis set group =>   3
Atom  81H    basis set group =>   3
Atom  82H    basis set group =>   3
Atom  83H    basis set group =>   3
Atom  84H    basis set group =>   3
Atom  85H    basis set group =>   3
Atom  86H    basis set group =>   3
Atom  87H    basis set group =>   3
Atom  88H    basis set group =>   3
Atom  89H    basis set group =>   3


           ************************************************************
           *        Program running with 8 parallel MPI-processes     *
           *              working on a common directory               *
           ************************************************************
------------------------------------------------------------------------------
                           ORCA GTO INTEGRAL CALCULATION
------------------------------------------------------------------------------
------------------------------------------------------------------------------
                   ___                                                        
                  /   \      - P O W E R E D   B Y -                         
                 /     \                                                     
                 |  |  |   _    _      __       _____    __    __             
                 |  |  |  | |  | |    /  \     |  _  \  |  |  /  |          
                  \  \/   | |  | |   /    \    | | | |  |  | /  /          
                 / \  \   | |__| |  /  /\  \   | |_| |  |  |/  /          
                |  |  |   |  __  | /  /__\  \  |    /   |      \           
                |  |  |   | |  | | |   __   |  |    \   |  |\   \          
                \     /   | |  | | |  |  |  |  | |\  \  |  | \   \       
                 \___/    |_|  |_| |__|  |__|  |_| \__\ |__|  \__/        
                                                                              
                      - O R C A' S   B I G   F R I E N D -                    
                                      &                                       
                       - I N T E G R A L  F E E D E R -                       
                                                                              
 v1 FN, 2020, v2 2021                                                         
------------------------------------------------------------------------------


Reading SHARK input file /scratch/chu_02/allen/tmpyp4_amber_gaff2/conf1/conf1/Conf323.orca.SHARKINP.tmp ... ok
----------------------
SHARK INTEGRAL PACKAGE
----------------------

Number of atoms                             ...     90
Number of basis functions                   ...   1230
Number of shells                            ...    738
Maximum angular momentum                    ...      2
Integral batch strategy                     ... SHARK/LIBINT Hybrid
RI-J (if used) integral strategy            ... SPLIT-RIJ (Revised 2003 algorithm where possible)
Printlevel                                  ...      1
Contraction scheme used                     ... PARTIAL GENERAL contraction
Coulomb Range Separation                    ... NOT USED
Exchange Range Separation                   ... NOT USED
Finite Nucleus Model                        ... NOT USED
Auxiliary Coulomb fitting basis             ... NOT available
Auxiliary J/K fitting basis                 ... NOT available
Auxiliary Correlation fitting basis         ... NOT available
Auxiliary 'external' fitting basis          ... NOT available
Integral threshold                          ...     2.500000e-11
Primitive cut-off                           ...     2.500000e-12
Primitive pair pre-selection threshold      ...     2.500000e-12

Calculating pre-screening integrals         ... done (  0.1 sec) Dimension = 738
Calculating pre-screening integrals (ORCA)  ... done (  0.3 sec) Dimension = 426
Organizing shell pair data                  ... done (  0.5 sec)
Shell pair information
Total number of shell pairs                 ...    272691
Shell pairs after pre-screening             ...     71627
Total number of primitive shell pairs       ...    422091
Primitive shell pairs kept                  ...     92432
          la=0 lb=0:  29407 shell pairs
          la=1 lb=0:  25983 shell pairs
          la=1 lb=1:   4705 shell pairs
          la=2 lb=0:   7880 shell pairs
          la=2 lb=1:   3122 shell pairs
          la=2 lb=2:    530 shell pairs

Calculating one electron integrals          ... done (  0.2 sec)
Calculating Nuclear repulsion               ... done (  0.0 sec) ENN=   6229.253814494859 Eh

SHARK setup successfully completed in   1.6 seconds

Maximum memory used throughout the entire GTOINT-calculation: 99.0 MB


           ************************************************************
           *        Program running with 8 parallel MPI-processes     *
           *              working on a common directory               *
           ************************************************************
-------------------------------------------------------------------------------
                                 ORCA SCF
-------------------------------------------------------------------------------

------------
SCF SETTINGS
------------
Hamiltonian:
 Ab initio Hamiltonian  Method          .... Hartree-Fock(GTOs)


General Settings:
 Integral files         IntName         .... /scratch/chu_02/allen/tmpyp4_amber_gaff2/conf1/conf1/Conf323.orca
 Hartree-Fock type      HFTyp           .... RHF
 Total Charge           Charge          ....    0
 Multiplicity           Mult            ....    1
 Number of Electrons    NEL             ....  358
 Basis Dimension        Dim             ....  918
 Nuclear Repulsion      ENuc            ....   6229.2538144949 Eh

Convergence Acceleration:
 DIIS                   CNVDIIS         .... on
   Start iteration      DIISMaxIt       ....    12
   Startup error        DIISStart       ....  0.200000
   # of expansion vecs  DIISMaxEq       ....     5
   Bias factor          DIISBfac        ....   1.050
   Max. coefficient     DIISMaxC        ....  10.000
 Trust-Rad. Augm. Hess. CNVTRAH         .... auto
   Auto Start mean grad. ratio tolernc. ....  1.125000
   Auto Start start iteration           ....    20
   Auto Start num. interpolation iter.  ....    10
   Max. Number of Micro iterations      ....    16
   Max. Number of Macro iterations      .... Maxiter - #DIIS iter
   Number of Davidson start vectors     ....     2
   Converg. threshold I  (grad. norm)   ....   1.000e-05
   Converg. threshold II (energy diff.) ....   1.000e-08
   Grad. Scal. Fac. for Micro threshold ....   0.100
   Minimum threshold for Micro iter.    ....   0.010
   NR start threshold (gradient norm)   ....   0.001
   Initial trust radius                 ....   0.400
   Minimum AH scaling param. (alpha)    ....   1.000
   Maximum AH scaling param. (alpha)    .... 1000.000
   Orbital update algorithm             .... Taylor
   White noise on init. David. guess    .... on
   Maximum white noise                  ....   0.010
   Quad. conv. algorithm                .... NR
 SOSCF                  CNVSOSCF        .... on
   Start iteration      SOSCFMaxIt      ....   150
   Startup grad/error   SOSCFStart      ....  0.003300
 Level Shifting         CNVShift        .... on
   Level shift para.    LevelShift      ....    0.2500
   Turn off err/grad.   ShiftErr        ....    0.0010
 Zerner damping         CNVZerner       .... off
 Static damping         CNVDamp         .... on
   Fraction old density DampFac         ....    0.7000
   Max. Damping (<1)    DampMax         ....    0.9800
   Min. Damping (>=0)   DampMin         ....    0.0000
   Turn off err/grad.   DampErr         ....    0.1000
 Fernandez-Rico         CNVRico         .... off

SCF Procedure:
 Maximum # iterations   MaxIter         ....   125
 SCF integral mode      SCFMode         .... Direct
   Integral package                     .... SHARK and LIBINT hybrid scheme
 Reset frequency        DirectResetFreq ....    20
 Integral Threshold     Thresh          ....  2.500e-11 Eh
 Primitive CutOff       TCut            ....  2.500e-12 Eh

Convergence Tolerance:
 Convergence Check Mode ConvCheckMode   .... Total+1el-Energy
 Convergence forced     ConvForced      .... 1
 Energy Change          TolE            ....  1.000e-08 Eh
 1-El. energy change                    ....  1.000e-05 Eh
 Orbital Gradient       TolG            ....  1.000e-05
 Orbital Rotation angle TolX            ....  1.000e-05
 DIIS Error             TolErr          ....  5.000e-07


Diagonalization of the overlap matrix:
Smallest eigenvalue                        ... 2.227e-04
Time for diagonalization                   ...    0.210 sec
Threshold for overlap eigenvalues          ... 1.000e-08
Number of eigenvalues below threshold      ... 0
Time for construction of square roots      ...    0.136 sec
Total time needed                          ...    0.350 sec

Time for model grid setup =    1.341 sec

------------------------------
INITIAL GUESS: MODEL POTENTIAL
------------------------------
Loading Hartree-Fock densities                     ... done
Calculating cut-offs                               ... done
Initializing the effective Hamiltonian             ... done
Setting up the integral package (SHARK)            ... done
Starting the Coulomb interaction                   ... done (   1.6 sec)
Reading the grid                                   ... done
Mapping shells                                     ... done
Starting the XC term evaluation                    ... done (   0.3 sec)
Transforming the Hamiltonian                       ... done (   0.1 sec)
Diagonalizing the Hamiltonian                      ... done (   0.2 sec)
Back transforming the eigenvectors                 ... done (   0.0 sec)
Now organizing SCF variables                       ... done
                      ------------------
                      INITIAL GUESS DONE (   3.7 sec)
                      ------------------
--------------
SCF ITERATIONS
--------------
ITER       Energy         Delta-E        Max-DP      RMS-DP      [F,P]     Damp
               ***  Starting incremental Fock matrix formation  ***
  0  -2121.6961594688   0.000000000000 0.07126864  0.00120907  0.2323046 0.7000
  1  -2122.3529988814  -0.656839412653 0.05363823  0.00098253  0.1438770 0.7000
                               ***Turning on DIIS***
  2  -2122.7612591448  -0.408260263341 0.12495393  0.00223085  0.0802438 0.0000
  3  -2117.9006055488   4.860653595944 0.03020432  0.00066905  0.0439776 0.0000
  4  -2123.4347095265  -5.534103977741 0.00936515  0.00022500  0.0073716 0.0000
  5  -2123.5965765718  -0.161867045214 0.00519186  0.00013240  0.0049974 0.0000
  6  -2123.5797464761   0.016830095676 0.00355259  0.00008519  0.0019637 0.0000
  7  -2123.6790104248  -0.099263948738 0.00302262  0.00006691  0.0015601 0.0000
  8  -2123.6910565674  -0.012046142552 0.00318509  0.00006283  0.0014496 0.0000
  9  -2123.6596146573   0.031441910054 0.00254601  0.00004362  0.0011554 0.0000
 10  -2123.6696994673  -0.010084809950 0.00514941  0.00008961  0.0008902 0.0000
                      *** Initiating the SOSCF procedure ***
                           *** Shutting down DIIS ***
                      *** Re-Reading the Fockian *** 
                      *** Removing any level shift *** 
ITER      Energy       Delta-E        Grad      Rot      Max-DP    RMS-DP
 11  -2123.55972694   0.1099725268  0.000204  0.000204  0.000246  0.000005
               *** Restarting incremental Fock matrix formation ***
 12  -2123.62533243  -0.0656054925  0.000845  0.005675  0.001314  0.000033
 13  -2123.62542547  -0.0000930387  0.001022  0.028199  0.006292  0.000128
 14  -2123.62558508  -0.0001596073  0.000354  0.002019  0.000570  0.000012
 15  -2123.62560092  -0.0000158376  0.000168  0.003567  0.000860  0.000019
 16  -2123.62561103  -0.0000101096  0.000167  0.003422  0.000544  0.000011
 17  -2123.62561445  -0.0000034204  0.000138  0.002227  0.000343  0.000008
 18  -2123.62561629  -0.0000018415  0.000075  0.000921  0.000313  0.000004
 19  -2123.62561711  -0.0000008261  0.000045  0.000556  0.000142  0.000003
 20  -2123.62561737  -0.0000002573  0.000023  0.000438  0.000096  0.000002
 21  -2123.62561750  -0.0000001334  0.000024  0.000324  0.000097  0.000002
 22  -2123.62561759  -0.0000000815  0.000015  0.000322  0.000087  0.000001
 23  -2123.62561763  -0.0000000486  0.000007  0.000204  0.000046  0.000001
 24  -2123.62561766  -0.0000000259  0.000004  0.000150  0.000032  0.000001
 25  -2123.62561767  -0.0000000112  0.000005  0.000113  0.000018  0.000000
 26  -2123.62561768  -0.0000000068  0.000003  0.000137  0.000020  0.000000
 27  -2123.62561768  -0.0000000059  0.000003  0.000140  0.000020  0.000000
                  ***Gradient check signals convergence***
              ***Rediagonalizing the Fockian in SOSCF/NRSCF***

               *****************************************************
               *                     SUCCESS                       *
               *           SCF CONVERGED AFTER  28 CYCLES          *
               *****************************************************


----------------
TOTAL SCF ENERGY
----------------

Total Energy       :        -2123.62561769 Eh          -57786.79088 eV

Components:
Nuclear Repulsion  :         6229.25381449 Eh          169506.61384 eV
Electronic Energy  :        -8352.87943218 Eh         -227293.40472 eV
One Electron Energy:       -15299.38505378 Eh         -416317.43248 eV
Two Electron Energy:         6946.50562159 Eh          189024.02776 eV

Virial components:
Potential Energy   :        -4245.71211594 Eh         -115531.70019 eV
Kinetic Energy     :         2122.08649825 Eh           57744.90931 eV
Virial Ratio       :            2.00072529


---------------
SCF CONVERGENCE
---------------

  Last Energy change         ...   -2.2264e-09  Tolerance :   1.0000e-08
  Last MAX-Density change    ...    1.3578e-05  Tolerance :   1.0000e-07
  Last RMS-Density change    ...    3.5728e-07  Tolerance :   5.0000e-09
  Last Orbital Gradient      ...    2.2985e-06  Tolerance :   1.0000e-05
  Last Orbital Rotation      ...    1.1646e-04  Tolerance :   1.0000e-05

             **** THE GBW FILE WAS UPDATED (/scratch/chu_02/allen/tmpyp4_amber_gaff2/conf1/conf1/Conf323.orca.gbw) ****
             **** DENSITY /scratch/chu_02/allen/tmpyp4_amber_gaff2/conf1/conf1/Conf323.orca.scfp WAS UPDATED ****
             **** ENERGY FILE WAS UPDATED (/scratch/chu_02/allen/tmpyp4_amber_gaff2/conf1/conf1/Conf323.orca.en.tmp) ****
             **** THE GBW FILE WAS UPDATED (/scratch/chu_02/allen/tmpyp4_amber_gaff2/conf1/conf1/Conf323.orca.gbw) ****
             **** DENSITY /scratch/chu_02/allen/tmpyp4_amber_gaff2/conf1/conf1/Conf323.orca.scfp WAS UPDATED ****
----------------
ORBITAL ENERGIES
----------------

  NO   OCC          E(Eh)            E(eV) 
   0   2.0000     -15.667031      -426.3216 
   1   2.0000     -15.638000      -425.5316 
   2   2.0000     -15.628600      -425.2758 
   3   2.0000     -15.594878      -424.3582 
   4   2.0000     -15.524307      -422.4379 
   5   2.0000     -15.515815      -422.2068 
   6   2.0000     -15.450483      -420.4290 
   7   2.0000     -15.443362      -420.2352 
   8   2.0000     -11.320045      -308.0341 
   9   2.0000     -11.319308      -308.0140 
  10   2.0000     -11.317057      -307.9528 
  11   2.0000     -11.301826      -307.5383 
  12   2.0000     -11.296219      -307.3857 
  13   2.0000     -11.295641      -307.3700 
  14   2.0000     -11.290915      -307.2414 
  15   2.0000     -11.287689      -307.1536 
  16   2.0000     -11.284281      -307.0609 
  17   2.0000     -11.275941      -306.8340 
  18   2.0000     -11.270062      -306.6740 
  19   2.0000     -11.260510      -306.4141 
  20   2.0000     -11.258074      -306.3478 
  21   2.0000     -11.254412      -306.2481 
  22   2.0000     -11.253483      -306.2228 
  23   2.0000     -11.241602      -305.8995 
  24   2.0000     -11.234140      -305.6965 
  25   2.0000     -11.233579      -305.6812 
  26   2.0000     -11.233339      -305.6747 
  27   2.0000     -11.227185      -305.5072 
  28   2.0000     -11.226915      -305.4999 
  29   2.0000     -11.209118      -305.0156 
  30   2.0000     -11.207801      -304.9798 
  31   2.0000     -11.204919      -304.9013 
  32   2.0000     -11.199543      -304.7551 
  33   2.0000     -11.199374      -304.7505 
  34   2.0000     -11.189917      -304.4931 
  35   2.0000     -11.189581      -304.4840 
  36   2.0000     -11.185783      -304.3806 
  37   2.0000     -11.182188      -304.2828 
  38   2.0000     -11.181361      -304.2603 
  39   2.0000     -11.174451      -304.0723 
  40   2.0000     -11.170914      -303.9760 
  41   2.0000     -11.168231      -303.9030 
  42   2.0000     -11.167198      -303.8749 
  43   2.0000     -11.163366      -303.7706 
  44   2.0000     -11.162103      -303.7363 
  45   2.0000     -11.160114      -303.6821 
  46   2.0000     -11.155252      -303.5498 
  47   2.0000     -11.150793      -303.4285 
  48   2.0000     -11.148379      -303.3628 
  49   2.0000     -11.142832      -303.2119 
  50   2.0000     -11.135578      -303.0145 
  51   2.0000     -11.128898      -302.8327 
  52   2.0000      -1.349518       -36.7223 
  53   2.0000      -1.324699       -36.0469 
  54   2.0000      -1.316749       -35.8306 
  55   2.0000      -1.288787       -35.0697 
  56   2.0000      -1.224638       -33.3241 
  57   2.0000      -1.210500       -32.9394 
  58   2.0000      -1.168680       -31.8014 
  59   2.0000      -1.154258       -31.4090 
  60   2.0000      -1.134466       -30.8704 
  61   2.0000      -1.113109       -30.2892 
  62   2.0000      -1.106440       -30.1078 
  63   2.0000      -1.084019       -29.4977 
  64   2.0000      -1.071990       -29.1703 
  65   2.0000      -1.048729       -28.5374 
  66   2.0000      -1.041503       -28.3407 
  67   2.0000      -1.035275       -28.1713 
  68   2.0000      -1.016539       -27.6614 
  69   2.0000      -1.014378       -27.6026 
  70   2.0000      -1.009443       -27.4683 
  71   2.0000      -0.992670       -27.0119 
  72   2.0000      -0.987533       -26.8721 
  73   2.0000      -0.977963       -26.6117 
  74   2.0000      -0.972332       -26.4585 
  75   2.0000      -0.959401       -26.1066 
  76   2.0000      -0.951362       -25.8879 
  77   2.0000      -0.947304       -25.7774 
  78   2.0000      -0.936021       -25.4704 
  79   2.0000      -0.920631       -25.0516 
  80   2.0000      -0.901957       -24.5435 
  81   2.0000      -0.891750       -24.2657 
  82   2.0000      -0.875854       -23.8332 
  83   2.0000      -0.870646       -23.6915 
  84   2.0000      -0.866209       -23.5708 
  85   2.0000      -0.855286       -23.2735 
  86   2.0000      -0.842080       -22.9142 
  87   2.0000      -0.837846       -22.7990 
  88   2.0000      -0.822622       -22.3847 
  89   2.0000      -0.798527       -21.7290 
  90   2.0000      -0.793568       -21.5941 
  91   2.0000      -0.746574       -20.3153 
  92   2.0000      -0.738330       -20.0910 
  93   2.0000      -0.732468       -19.9315 
  94   2.0000      -0.723718       -19.6934 
  95   2.0000      -0.719946       -19.5907 
  96   2.0000      -0.714237       -19.4354 
  97   2.0000      -0.707003       -19.2385 
  98   2.0000      -0.703157       -19.1339 
  99   2.0000      -0.696356       -18.9488 
 100   2.0000      -0.694990       -18.9116 
 101   2.0000      -0.682290       -18.5660 
 102   2.0000      -0.679541       -18.4913 
 103   2.0000      -0.675902       -18.3922 
 104   2.0000      -0.674927       -18.3657 
 105   2.0000      -0.670949       -18.2575 
 106   2.0000      -0.665961       -18.1217 
 107   2.0000      -0.662551       -18.0289 
 108   2.0000      -0.656116       -17.8538 
 109   2.0000      -0.653528       -17.7834 
 110   2.0000      -0.649237       -17.6666 
 111   2.0000      -0.644584       -17.5400 
 112   2.0000      -0.642309       -17.4781 
 113   2.0000      -0.636893       -17.3307 
 114   2.0000      -0.636718       -17.3260 
 115   2.0000      -0.627910       -17.0863 
 116   2.0000      -0.624299       -16.9881 
 117   2.0000      -0.615805       -16.7569 
 118   2.0000      -0.615086       -16.7373 
 119   2.0000      -0.612639       -16.6708 
 120   2.0000      -0.608867       -16.5681 
 121   2.0000      -0.603396       -16.4192 
 122   2.0000      -0.600135       -16.3305 
 123   2.0000      -0.587407       -15.9842 
 124   2.0000      -0.584976       -15.9180 
 125   2.0000      -0.583410       -15.8754 
 126   2.0000      -0.578670       -15.7464 
 127   2.0000      -0.577743       -15.7212 
 128   2.0000      -0.564010       -15.3475 
 129   2.0000      -0.558461       -15.1965 
 130   2.0000      -0.552886       -15.0448 
 131   2.0000      -0.548504       -14.9256 
 132   2.0000      -0.542827       -14.7711 
 133   2.0000      -0.539266       -14.6742 
 134   2.0000      -0.537095       -14.6151 
 135   2.0000      -0.534136       -14.5346 
 136   2.0000      -0.525238       -14.2924 
 137   2.0000      -0.524194       -14.2640 
 138   2.0000      -0.517968       -14.0946 
 139   2.0000      -0.513749       -13.9798 
 140   2.0000      -0.511446       -13.9171 
 141   2.0000      -0.510057       -13.8794 
 142   2.0000      -0.509546       -13.8655 
 143   2.0000      -0.502873       -13.6839 
 144   2.0000      -0.500710       -13.6250 
 145   2.0000      -0.496843       -13.5198 
 146   2.0000      -0.494204       -13.4480 
 147   2.0000      -0.485347       -13.2070 
 148   2.0000      -0.482344       -13.1253 
 149   2.0000      -0.468036       -12.7359 
 150   2.0000      -0.464640       -12.6435 
 151   2.0000      -0.456669       -12.4266 
 152   2.0000      -0.449001       -12.2179 
 153   2.0000      -0.446589       -12.1523 
 154   2.0000      -0.444251       -12.0887 
 155   2.0000      -0.440088       -11.9754 
 156   2.0000      -0.431254       -11.7350 
 157   2.0000      -0.426866       -11.6156 
 158   2.0000      -0.402092       -10.9415 
 159   2.0000      -0.386004       -10.5037 
 160   2.0000      -0.379547       -10.3280 
 161   2.0000      -0.378368       -10.2959 
 162   2.0000      -0.370861       -10.0916 
 163   2.0000      -0.359387        -9.7794 
 164   2.0000      -0.353425        -9.6172 
 165   2.0000      -0.338234        -9.2038 
 166   2.0000      -0.337450        -9.1825 
 167   2.0000      -0.329222        -8.9586 
 168   2.0000      -0.327918        -8.9231 
 169   2.0000      -0.303336        -8.2542 
 170   2.0000      -0.299631        -8.1534 
 171   2.0000      -0.286617        -7.7992 
 172   2.0000      -0.283613        -7.7175 
 173   2.0000      -0.260385        -7.0854 
 174   2.0000      -0.244970        -6.6660 
 175   2.0000      -0.189639        -5.1603 
 176   2.0000      -0.179900        -4.8953 
 177   2.0000      -0.073308        -1.9948 
 178   2.0000      -0.057567        -1.5665 
 179   0.0000       0.028833         0.7846 
 180   0.0000       0.067333         1.8322 
 181   0.0000       0.092009         2.5037 
 182   0.0000       0.106750         2.9048 
 183   0.0000       0.114665         3.1202 
 184   0.0000       0.134480         3.6594 
 185   0.0000       0.141473         3.8497 
 186   0.0000       0.147581         4.0159 
 187   0.0000       0.162837         4.4310 
 188   0.0000       0.163717         4.4550 
 189   0.0000       0.166031         4.5179 
 190   0.0000       0.167551         4.5593 
 191   0.0000       0.184377         5.0171 
 192   0.0000       0.187094         5.0911 
 193   0.0000       0.190518         5.1842 
 194   0.0000       0.202627         5.5138 
 195   0.0000       0.206022         5.6061 
 196   0.0000       0.207590         5.6488 
 197   0.0000       0.210625         5.7314 
 198   0.0000       0.222733         6.0609 
 199   0.0000       0.223802         6.0900 
 200   0.0000       0.229710         6.2507 
 201   0.0000       0.237190         6.4543 
 202   0.0000       0.240353         6.5403 
 203   0.0000       0.241470         6.5707 
 204   0.0000       0.250083         6.8051 
 205   0.0000       0.254988         6.9386 
 206   0.0000       0.258543         7.0353 
 207   0.0000       0.259495         7.0612 
 208   0.0000       0.260054         7.0764 
 209   0.0000       0.261426         7.1138 
 210   0.0000       0.263922         7.1817 
 211   0.0000       0.270080         7.3493 
 212   0.0000       0.270967         7.3734 
 213   0.0000       0.271905         7.3989 
 214   0.0000       0.275799         7.5049 
 215   0.0000       0.277432         7.5493 
 216   0.0000       0.279017         7.5924 
 217   0.0000       0.281017         7.6469 
 218   0.0000       0.284737         7.7481 
 219   0.0000       0.288202         7.8424 
 220   0.0000       0.289652         7.8818 
 221   0.0000       0.293360         7.9827 
 222   0.0000       0.294225         8.0063 
 223   0.0000       0.296149         8.0586 
 224   0.0000       0.297773         8.1028 
 225   0.0000       0.299765         8.1570 
 226   0.0000       0.307017         8.3544 
 227   0.0000       0.308477         8.3941 
 228   0.0000       0.309465         8.4210 
 229   0.0000       0.321011         8.7351 
 230   0.0000       0.324534         8.8310 
 231   0.0000       0.325778         8.8649 
 232   0.0000       0.330624         8.9967 
 233   0.0000       0.330991         9.0067 
 234   0.0000       0.344937         9.3862 
 235   0.0000       0.348528         9.4839 
 236   0.0000       0.355952         9.6859 
 237   0.0000       0.379885        10.3372 
 238   0.0000       0.394623        10.7382 
 239   0.0000       0.397209        10.8086 
 240   0.0000       0.401483        10.9249 
 241   0.0000       0.413122        11.2416 
 242   0.0000       0.418367        11.3843 
 243   0.0000       0.419802        11.4234 
 244   0.0000       0.427154        11.6235 
 245   0.0000       0.434512        11.8237 
 246   0.0000       0.436463        11.8768 
 247   0.0000       0.438524        11.9328 
 248   0.0000       0.443576        12.0703 
 249   0.0000       0.445878        12.1330 
 250   0.0000       0.451370        12.2824 
 251   0.0000       0.459037        12.4910 
 252   0.0000       0.462318        12.5803 
 253   0.0000       0.468031        12.7358 
 254   0.0000       0.469677        12.7806 
 255   0.0000       0.473964        12.8972 
 256   0.0000       0.480808        13.0835 
 257   0.0000       0.482488        13.1292 
 258   0.0000       0.487350        13.2615 
 259   0.0000       0.499306        13.5868 
 260   0.0000       0.502087        13.6625 
 261   0.0000       0.504475        13.7275 
 262   0.0000       0.506183        13.7739 
 263   0.0000       0.509278        13.8581 
 264   0.0000       0.514091        13.9891 
 265   0.0000       0.517901        14.0928 
 266   0.0000       0.522133        14.2080 
 267   0.0000       0.524702        14.2779 
 268   0.0000       0.533502        14.5173 
 269   0.0000       0.538077        14.6418 
 270   0.0000       0.540514        14.7081 
 271   0.0000       0.547160        14.8890 
 272   0.0000       0.548877        14.9357 
 273   0.0000       0.556522        15.1437 
 274   0.0000       0.560802        15.2602 
 275   0.0000       0.566066        15.4034 
 276   0.0000       0.568681        15.4746 
 277   0.0000       0.573632        15.6093 
 278   0.0000       0.578447        15.7403 
 279   0.0000       0.586379        15.9562 
 280   0.0000       0.588344        16.0097 
 281   0.0000       0.590418        16.0661 
 282   0.0000       0.593014        16.1367 
 283   0.0000       0.597365        16.2551 
 284   0.0000       0.598092        16.2749 
 285   0.0000       0.599078        16.3017 
 286   0.0000       0.607727        16.5371 
 287   0.0000       0.612435        16.6652 
 288   0.0000       0.613214        16.6864 
 289   0.0000       0.623027        16.9534 
 290   0.0000       0.627391        17.0722 
 291   0.0000       0.629128        17.1194 
 292   0.0000       0.633436        17.2367 
 293   0.0000       0.635363        17.2891 
 294   0.0000       0.646335        17.5877 
 295   0.0000       0.649956        17.6862 
 296   0.0000       0.653796        17.7907 
 297   0.0000       0.657181        17.8828 
 298   0.0000       0.664871        18.0921 
 299   0.0000       0.666467        18.1355 
 300   0.0000       0.669949        18.2302 
 301   0.0000       0.671302        18.2670 
 302   0.0000       0.678343        18.4587 
 303   0.0000       0.680002        18.5038 
 304   0.0000       0.682869        18.5818 
 305   0.0000       0.687304        18.7025 
 306   0.0000       0.690264        18.7830 
 307   0.0000       0.691741        18.8232 
 308   0.0000       0.695341        18.9212 
 309   0.0000       0.698248        19.0003 
 310   0.0000       0.701040        19.0763 
 311   0.0000       0.703477        19.1426 
 312   0.0000       0.706540        19.2259 
 313   0.0000       0.709082        19.2951 
 314   0.0000       0.711603        19.3637 
 315   0.0000       0.713201        19.4072 
 316   0.0000       0.717074        19.5126 
 317   0.0000       0.718845        19.5608 
 318   0.0000       0.722592        19.6627 
 319   0.0000       0.724584        19.7169 
 320   0.0000       0.726294        19.7635 
 321   0.0000       0.729060        19.8387 
 322   0.0000       0.732944        19.9444 
 323   0.0000       0.736598        20.0439 
 324   0.0000       0.737750        20.0752 
 325   0.0000       0.740771        20.1574 
 326   0.0000       0.742806        20.2128 
 327   0.0000       0.745822        20.2949 
 328   0.0000       0.748974        20.3806 
 329   0.0000       0.750599        20.4248 
 330   0.0000       0.752259        20.4700 
 331   0.0000       0.755258        20.5516 
 332   0.0000       0.760458        20.6931 
 333   0.0000       0.762179        20.7400 
 334   0.0000       0.769846        20.9486 
 335   0.0000       0.772279        21.0148 
 336   0.0000       0.774933        21.0870 
 337   0.0000       0.784022        21.3343 
 338   0.0000       0.784974        21.3602 
 339   0.0000       0.786282        21.3958 
 340   0.0000       0.790605        21.5134 
 341   0.0000       0.795902        21.6576 
 342   0.0000       0.796867        21.6838 
 343   0.0000       0.801024        21.7970 
 344   0.0000       0.804437        21.8899 
 345   0.0000       0.806676        21.9508 
 346   0.0000       0.808048        21.9881 
 347   0.0000       0.812375        22.1058 
 348   0.0000       0.815453        22.1896 
 349   0.0000       0.818305        22.2672 
 350   0.0000       0.819635        22.3034 
 351   0.0000       0.821411        22.3517 
 352   0.0000       0.824401        22.4331 
 353   0.0000       0.825320        22.4581 
 354   0.0000       0.828300        22.5392 
 355   0.0000       0.831911        22.6374 
 356   0.0000       0.832038        22.6409 
 357   0.0000       0.836069        22.7506 
 358   0.0000       0.836698        22.7677 
 359   0.0000       0.838949        22.8290 
 360   0.0000       0.842178        22.9168 
 361   0.0000       0.843153        22.9434 
 362   0.0000       0.844229        22.9726 
 363   0.0000       0.845855        23.0169 
 364   0.0000       0.849233        23.1088 
 365   0.0000       0.853397        23.2221 
 366   0.0000       0.856312        23.3014 
 367   0.0000       0.859263        23.3817 
 368   0.0000       0.863032        23.4843 
 369   0.0000       0.863947        23.5092 
 370   0.0000       0.867273        23.5997 
 371   0.0000       0.871220        23.7071 
 372   0.0000       0.874260        23.7898 
 373   0.0000       0.878015        23.8920 
 374   0.0000       0.881557        23.9884 
 375   0.0000       0.882824        24.0229 
 376   0.0000       0.886159        24.1136 
 377   0.0000       0.888302        24.1719 
 378   0.0000       0.889872        24.2147 
 379   0.0000       0.894707        24.3462 
 380   0.0000       0.897349        24.4181 
 381   0.0000       0.899643        24.4805 
 382   0.0000       0.902698        24.5637 
 383   0.0000       0.903074        24.5739 
 384   0.0000       0.903725        24.5916 
 385   0.0000       0.905636        24.6436 
 386   0.0000       0.906163        24.6580 
 387   0.0000       0.908685        24.7266 
 388   0.0000       0.911114        24.7927 
 389   0.0000       0.915601        24.9148 
 390   0.0000       0.919572        25.0228 
 391   0.0000       0.922796        25.1106 
 392   0.0000       0.923637        25.1334 
 393   0.0000       0.925593        25.1867 
 394   0.0000       0.928305        25.2605 
 395   0.0000       0.930441        25.3186 
 396   0.0000       0.931123        25.3371 
 397   0.0000       0.936794        25.4915 
 398   0.0000       0.939966        25.5778 
 399   0.0000       0.941801        25.6277 
 400   0.0000       0.943175        25.6651 
 401   0.0000       0.948905        25.8210 
 402   0.0000       0.953500        25.9461 
 403   0.0000       0.954986        25.9865 
 404   0.0000       0.959277        26.1033 
 405   0.0000       0.960690        26.1417 
 406   0.0000       0.962531        26.1918 
 407   0.0000       0.965991        26.2860 
 408   0.0000       0.967550        26.3284 
 409   0.0000       0.975989        26.5580 
 410   0.0000       0.978100        26.6155 
 411   0.0000       0.982411        26.7328 
 412   0.0000       0.988555        26.8999 
 413   0.0000       0.989041        26.9132 
 414   0.0000       0.992129        26.9972 
 415   0.0000       1.001588        27.2546 
 416   0.0000       1.004124        27.3236 
 417   0.0000       1.007061        27.4035 
 418   0.0000       1.007738        27.4219 
 419   0.0000       1.018995        27.7283 
 420   0.0000       1.022486        27.8233 
 421   0.0000       1.028848        27.9964 
 422   0.0000       1.036978        28.2176 
 423   0.0000       1.042927        28.3795 
 424   0.0000       1.043411        28.3927 
 425   0.0000       1.053933        28.6790 
 426   0.0000       1.057650        28.7801 
 427   0.0000       1.059994        28.8439 
 428   0.0000       1.067630        29.0517 
 429   0.0000       1.072562        29.1859 
 430   0.0000       1.078234        29.3402 
 431   0.0000       1.083163        29.4744 
 432   0.0000       1.086622        29.5685 
 433   0.0000       1.087813        29.6009 
 434   0.0000       1.098006        29.8782 
 435   0.0000       1.104472        30.0542 
 436   0.0000       1.107139        30.1268 
 437   0.0000       1.112296        30.2671 
 438   0.0000       1.114100        30.3162 
 439   0.0000       1.116799        30.3896 
 440   0.0000       1.121008        30.5042 
 441   0.0000       1.124104        30.5884 
 442   0.0000       1.126707        30.6593 
 443   0.0000       1.127605        30.6837 
 444   0.0000       1.131697        30.7950 
 445   0.0000       1.133943        30.8561 
 446   0.0000       1.142065        31.0772 
 447   0.0000       1.142505        31.0891 
 448   0.0000       1.146152        31.1884 
 449   0.0000       1.150702        31.3122 
 450   0.0000       1.151109        31.3233 
 451   0.0000       1.152454        31.3599 
 452   0.0000       1.156569        31.4718 
 453   0.0000       1.159097        31.5406 
 454   0.0000       1.163929        31.6721 
 455   0.0000       1.170401        31.8482 
 456   0.0000       1.172488        31.9050 
 457   0.0000       1.177330        32.0368 
 458   0.0000       1.178674        32.0734 
 459   0.0000       1.185792        32.2670 
 460   0.0000       1.186883        32.2967 
 461   0.0000       1.195923        32.5427 
 462   0.0000       1.201989        32.7078 
 463   0.0000       1.202919        32.7331 
 464   0.0000       1.205345        32.7991 
 465   0.0000       1.208922        32.8964 
 466   0.0000       1.211491        32.9663 
 467   0.0000       1.214735        33.0546 
 468   0.0000       1.221493        33.2385 
 469   0.0000       1.226241        33.3677 
 470   0.0000       1.229523        33.4570 
 471   0.0000       1.233451        33.5639 
 472   0.0000       1.233842        33.5745 
 473   0.0000       1.235551        33.6211 
 474   0.0000       1.242191        33.8017 
 475   0.0000       1.245419        33.8896 
 476   0.0000       1.250048        34.0155 
 477   0.0000       1.252151        34.0728 
 478   0.0000       1.253520        34.1100 
 479   0.0000       1.254833        34.1457 
 480   0.0000       1.258405        34.2430 
 481   0.0000       1.262904        34.3654 
 482   0.0000       1.268786        34.5254 
 483   0.0000       1.272473        34.6258 
 484   0.0000       1.275019        34.6950 
 485   0.0000       1.276153        34.7259 
 486   0.0000       1.279041        34.8045 
 487   0.0000       1.282977        34.9116 
 488   0.0000       1.287667        35.0392 
 489   0.0000       1.290156        35.1069 
 490   0.0000       1.294289        35.2194 
 491   0.0000       1.296778        35.2871 
 492   0.0000       1.299742        35.3678 
 493   0.0000       1.303533        35.4709 
 494   0.0000       1.310557        35.6621 
 495   0.0000       1.314153        35.7599 
 496   0.0000       1.317730        35.8573 
 497   0.0000       1.322853        35.9967 
 498   0.0000       1.324728        36.0477 
 499   0.0000       1.328559        36.1519 
 500   0.0000       1.333611        36.2894 
 501   0.0000       1.335615        36.3439 
 502   0.0000       1.339731        36.4559 
 503   0.0000       1.347275        36.6612 
 504   0.0000       1.348859        36.7043 
 505   0.0000       1.351000        36.7626 
 506   0.0000       1.351949        36.7884 
 507   0.0000       1.357064        36.9276 
 508   0.0000       1.361804        37.0566 
[...]
 76 H s       :     0.887336  s :     0.887336
      pz      :     0.022071  p :     0.079721
      px      :     0.043524
      py      :     0.014126
 77 H s       :     0.885946  s :     0.885946
      pz      :     0.047875  p :     0.079168
      px      :     0.015019
      py      :     0.016274
 78 H s       :     0.886366  s :     0.886366
      pz      :     0.025826  p :     0.079118
      px      :     0.020485
      py      :     0.032807
 79 H s       :     0.909939  s :     0.909939
      pz      :     0.021899  p :     0.086462
      px      :     0.021694
      py      :     0.042870
 80 H s       :     0.866504  s :     0.866504
      pz      :     0.039228  p :     0.084616
      px      :     0.030181
      py      :     0.015207
 81 H s       :     0.887164  s :     0.887164
      pz      :     0.037789  p :     0.084051
      px      :     0.016187
      py      :     0.030075
 82 H s       :     0.915977  s :     0.915977
      pz      :     0.022023  p :     0.086755
      px      :     0.031551
      py      :     0.033181
 83 H s       :     0.873635  s :     0.873635
      pz      :     0.039228  p :     0.084025
      px      :     0.015279
      py      :     0.029517
 84 H s       :     0.887202  s :     0.887202
      pz      :     0.035749  p :     0.083519
      px      :     0.031690
      py      :     0.016081
 85 H s       :     0.893434  s :     0.893434
      pz      :     0.022484  p :     0.079757
      px      :     0.014088
      py      :     0.043185
 86 H s       :     0.891186  s :     0.891186
      pz      :     0.024719  p :     0.078816
      px      :     0.032967
      py      :     0.021129
 87 H s       :     0.890138  s :     0.890138
      pz      :     0.047987  p :     0.078712
      px      :     0.015591
      py      :     0.015134
 88 H s       :     0.911517  s :     0.911517
      pz      :     0.021789  p :     0.087022
      px      :     0.042798
      py      :     0.022435
 89 H s       :     0.871585  s :     0.871585
      pz      :     0.037934  p :     0.083837
      px      :     0.030468
      py      :     0.015435


                      *****************************
                      * MAYER POPULATION ANALYSIS *
                      *****************************

  NA   - Mulliken gross atomic population
  ZA   - Total nuclear charge
  QA   - Mulliken gross atomic charge
  VA   - Mayer's total valence
  BVA  - Mayer's bonded valence
  FA   - Mayer's free valence

  ATOM       NA         ZA         QA         VA         BVA        FA
  0 C      5.7910     6.0000     0.2090     3.8426     3.8426     0.0000
  1 N      7.4534     7.0000    -0.4534     3.3319     3.3319    -0.0000
  2 C      6.0646     6.0000    -0.0646     3.9213     3.9213    -0.0000
  3 N      7.3362     7.0000    -0.3362     3.4580     3.4580    -0.0000
  4 C      6.0539     6.0000    -0.0539     4.0021     4.0021     0.0000
  5 N      7.5607     7.0000    -0.5607     3.0947     3.0947    -0.0000
  6 C      6.1057     6.0000    -0.1057     4.0074     4.0074    -0.0000
  7 N      7.3399     7.0000    -0.3399     3.4353     3.4353     0.0000
  8 C      5.7972     6.0000     0.2028     3.8381     3.8381    -0.0000
  9 N      7.5627     7.0000    -0.5627     3.0796     3.0796    -0.0000
 10 C      5.8813     6.0000     0.1187     3.9073     3.9073     0.0000
 11 N      7.4377     7.0000    -0.4377     3.3824     3.3824     0.0000
 12 C      6.0805     6.0000    -0.0805     3.9093     3.9093     0.0000
 13 N      7.4324     7.0000    -0.4324     3.4143     3.4143     0.0000
 14 C      5.7721     6.0000     0.2279     3.7819     3.7819    -0.0000
 15 N      7.4414     7.0000    -0.4414     3.3696     3.3696     0.0000
 16 C      5.7702     6.0000     0.2298     3.7810     3.7810    -0.0000
 17 C      6.1143     6.0000    -0.1143     4.0076     4.0076    -0.0000
 18 C      6.1750     6.0000    -0.1750     3.7646     3.7646    -0.0000
 19 C      5.7861     6.0000     0.2139     3.8622     3.8622    -0.0000
 20 C      5.7866     6.0000     0.2134     3.8277     3.8277    -0.0000
 21 C      6.0923     6.0000    -0.0923     3.9035     3.9035    -0.0000
 22 C      6.0885     6.0000    -0.0885     3.9820     3.9820     0.0000
 23 C      6.0421     6.0000    -0.0421     3.9919     3.9919    -0.0000
 24 C      5.8020     6.0000     0.1980     3.8217     3.8217     0.0000
 25 C      5.8859     6.0000     0.1141     3.8901     3.8901    -0.0000
 26 C      6.0745     6.0000    -0.0745     3.9066     3.9066    -0.0000
 27 C      5.7871     6.0000     0.2129     3.8674     3.8674    -0.0000
 28 C      6.0589     6.0000    -0.0589     3.9886     3.9886     0.0000
 29 C      6.1809     6.0000    -0.1809     3.7435     3.7435     0.0000
 30 C      5.7571     6.0000     0.2429     3.7969     3.7969     0.0000
 31 C      5.7742     6.0000     0.2258     3.8206     3.8206    -0.0000
 32 C      6.0620     6.0000    -0.0620     3.9224     3.9224     0.0000
 33 C      6.0666     6.0000    -0.0666     3.9760     3.9760     0.0000
 34 C      6.0496     6.0000    -0.0496     3.9863     3.9863     0.0000
 35 C      5.7797     6.0000     0.2203     3.8190     3.8190     0.0000
 36 C      5.8901     6.0000     0.1099     3.8795     3.8795     0.0000
 37 C      6.0650     6.0000    -0.0650     3.9175     3.9175    -0.0000
 38 C      5.7661     6.0000     0.2339     3.8015     3.8015    -0.0000
 39 C      6.0597     6.0000    -0.0597     3.9853     3.9853    -0.0000
 40 C      6.1827     6.0000    -0.1827     3.7309     3.7309    -0.0000
 41 C      5.7768     6.0000     0.2232     3.8848     3.8848    -0.0000
 42 C      5.8019     6.0000     0.1981     3.8266     3.8266     0.0000
 43 C      6.0730     6.0000    -0.0730     3.9006     3.9006     0.0000
 44 C      6.0910     6.0000    -0.0910     3.9857     3.9857    -0.0000
 45 C      6.0594     6.0000    -0.0594     3.9923     3.9923     0.0000
 46 C      5.7918     6.0000     0.2082     3.8282     3.8282     0.0000
 47 C      5.8843     6.0000     0.1157     3.8939     3.8939     0.0000
 48 C      6.0695     6.0000    -0.0695     3.9080     3.9080    -0.0000
 49 C      5.7650     6.0000     0.2350     3.8922     3.8922    -0.0000
 50 C      6.0481     6.0000    -0.0481     3.9906     3.9906     0.0000
 51 C      6.1927     6.0000    -0.1927     3.7367     3.7367    -0.0000
 52 H      0.9577     1.0000     0.0423     0.9858     0.9858    -0.0000
 53 H      1.0161     1.0000    -0.0161     0.9985     0.9985    -0.0000
 54 H      0.9492     1.0000     0.0508     1.0136     1.0136    -0.0000
 55 H      0.9596     1.0000     0.0404     0.9867     0.9867    -0.0000
 56 H      0.9501     1.0000     0.0499     0.9699     0.9699     0.0000
 57 H      0.9503     1.0000     0.0497     0.9824     0.9824     0.0000
 58 H      0.9517     1.0000     0.0483     0.9854     0.9854     0.0000
 59 H      1.0003     1.0000    -0.0003     1.0039     1.0039     0.0000
 60 H      0.9507     1.0000     0.0493     1.0107     1.0107    -0.0000
 61 H      0.8288     1.0000     0.1712     1.0419     1.0419    -0.0000
 62 H      0.8250     1.0000     0.1750     1.0436     1.0436     0.0000
 63 H      0.9433     1.0000     0.0567     0.9852     0.9852     0.0000
 64 H      1.0057     1.0000    -0.0057     0.9968     0.9968    -0.0000
 65 H      0.9531     1.0000     0.0469     1.0097     1.0097     0.0000
 66 H      0.9431     1.0000     0.0569     0.9853     0.9853    -0.0000
 67 H      0.9366     1.0000     0.0634     0.9720     0.9720     0.0000
 68 H      0.9421     1.0000     0.0579     0.9868     0.9868    -0.0000
 69 H      0.9424     1.0000     0.0576     0.9829     0.9829     0.0000
 70 H      1.0276     1.0000    -0.0276     0.9930     0.9930    -0.0000
 71 H      0.9533     1.0000     0.0467     1.0061     1.0061     0.0000
 72 H      0.9328     1.0000     0.0672     0.9840     0.9840    -0.0000
 73 H      1.0095     1.0000    -0.0095     1.0002     1.0002     0.0000
 74 H      0.9433     1.0000     0.0567     1.0102     1.0102     0.0000
 75 H      0.9336     1.0000     0.0664     0.9844     0.9844     0.0000
 76 H      0.9286     1.0000     0.0714     0.9720     0.9720    -0.0000
 77 H      0.9348     1.0000     0.0652     0.9854     0.9854     0.0000
 78 H      0.9356     1.0000     0.0644     0.9852     0.9852    -0.0000
 79 H      1.0153     1.0000    -0.0153     0.9982     0.9982    -0.0000
 80 H      0.9428     1.0000     0.0572     1.0071     1.0071    -0.0000
 81 H      0.9464     1.0000     0.0536     0.9856     0.9856     0.0000
 82 H      1.0250     1.0000    -0.0250     0.9934     0.9934     0.0000
 83 H      0.9587     1.0000     0.0413     1.0086     1.0086     0.0000
 84 H      0.9470     1.0000     0.0530     0.9854     0.9854    -0.0000
 85 H      0.9403     1.0000     0.0597     0.9715     0.9715    -0.0000
 86 H      0.9448     1.0000     0.0552     0.9839     0.9839    -0.0000
 87 H      0.9433     1.0000     0.0567     0.9856     0.9856    -0.0000
 88 H      1.0164     1.0000    -0.0164     0.9962     0.9962    -0.0000
 89 H      0.9539     1.0000     0.0461     1.0070     1.0070     0.0000

  Mayer bond orders larger than 0.100000
B(  0-C ,  1-N ) :   1.0961 B(  0-C , 17-C ) :   1.6953 B(  0-C , 52-H ) :   0.9674 
B(  1-N ,  8-C ) :   1.0860 B(  1-N , 10-C ) :   0.9759 B(  2-C , 12-C ) :   1.5158 
B(  2-C , 16-C ) :   1.3480 B(  2-C , 53-H ) :   0.9765 B(  3-N , 14-C ) :   1.2160 
B(  3-N , 16-C ) :   1.1926 B(  3-N , 61-H ) :   0.8994 B(  4-C ,  6-C ) :   1.2173 
B(  4-C , 17-C ) :   1.2161 B(  4-C , 18-C ) :   1.4059 B(  5-N , 19-C ) :   1.4479 
B(  5-N , 27-C ) :   1.3837 B(  6-C ,  8-C ) :   1.6984 B(  6-C , 54-H ) :   0.9637 
B(  7-N , 30-C ) :   1.1937 B(  7-N , 38-C ) :   1.1943 B(  7-N , 62-H ) :   0.8970 
B(  8-C , 55-H ) :   0.9690 B(  9-N , 41-C ) :   1.3951 B(  9-N , 49-C ) :   1.4262 
B( 10-C , 56-H ) :   0.9767 B( 10-C , 57-H ) :   0.9830 B( 10-C , 58-H ) :   0.9834 
B( 11-N , 20-C ) :   1.1312 B( 11-N , 24-C ) :   1.1131 B( 11-N , 25-C ) :   0.9586 
B( 12-C , 14-C ) :   1.3502 B( 12-C , 59-H ) :   0.9747 B( 13-N , 31-C ) :   1.1518 
B( 13-N , 35-C ) :   1.1460 B( 13-N , 36-C ) :   0.9466 B( 14-C , 18-C ) :   1.1436 
B( 15-N , 42-C ) :   1.1080 B( 15-N , 46-C ) :   1.1198 B( 15-N , 47-C ) :   0.9624 
B( 16-C , 51-C ) :   1.1775 B( 17-C , 60-H ) :   0.9640 B( 18-C , 19-C ) :   1.1482 
B( 19-C , 21-C ) :   1.2367 B( 20-C , 28-C ) :   1.6249 B( 20-C , 63-H ) :   0.9702 
B( 21-C , 26-C ) :   1.6215 B( 21-C , 64-H ) :   0.9714 B( 22-C , 23-C ) :   1.2902 
B( 22-C , 28-C ) :   1.2689 B( 22-C , 29-C ) :   1.2205 B( 23-C , 24-C ) :   1.6169 
B( 23-C , 65-H ) :   0.9705 B( 24-C , 66-H ) :   0.9694 B( 25-C , 67-H ) :   0.9760 
B( 25-C , 68-H ) :   0.9828 B( 25-C , 69-H ) :   0.9822 B( 26-C , 27-C ) :   1.2315 
B( 26-C , 70-H ) :   0.9712 B( 27-C , 29-C ) :   1.2179 B( 28-C , 71-H ) :   0.9718 
B( 29-C , 30-C ) :   1.2368 B( 30-C , 32-C ) :   1.2871 B( 31-C , 39-C ) :   1.6003 
B( 31-C , 72-H ) :   0.9685 B( 32-C , 37-C ) :   1.5721 B( 32-C , 73-H ) :   0.9783 
B( 33-C , 34-C ) :   1.2995 B( 33-C , 39-C ) :   1.2927 B( 33-C , 40-C ) :   1.1948 
B( 34-C , 35-C ) :   1.5968 B( 34-C , 74-H ) :   0.9698 B( 35-C , 75-H ) :   0.9686 
B( 36-C , 76-H ) :   0.9766 B( 36-C , 77-H ) :   0.9817 B( 36-C , 78-H ) :   0.9826 
B( 37-C , 38-C ) :   1.2907 B( 37-C , 79-H ) :   0.9769 B( 38-C , 40-C ) :   1.2280 
B( 39-C , 80-H ) :   0.9709 B( 40-C , 41-C ) :   1.2416 B( 41-C , 43-C ) :   1.1947 
B( 42-C , 50-C ) :   1.6357 B( 42-C , 81-H ) :   0.9697 B( 43-C , 48-C ) :   1.6570 
B( 43-C , 82-H ) :   0.9725 B( 44-C , 45-C ) :   1.2633 B( 44-C , 50-C ) :   1.2688 
B( 44-C , 51-C ) :   1.2639 B( 45-C , 46-C ) :   1.6365 B( 45-C , 83-H ) :   0.9717 
B( 46-C , 84-H ) :   0.9701 B( 47-C , 85-H ) :   0.9762 B( 47-C , 86-H ) :   0.9829 
B( 47-C , 87-H ) :   0.9825 B( 48-C , 49-C ) :   1.1977 B( 48-C , 88-H ) :   0.9747 
B( 49-C , 51-C ) :   1.2324 B( 50-C , 89-H ) :   0.9710 

-------
TIMINGS
-------

Total SCF time: 0 days 0 hours 42 min 17 sec 

Total time                  ....    2537.119 sec
Sum of individual times     ....    2534.133 sec  ( 99.9%)

Fock matrix formation       ....    2516.714 sec  ( 99.2%)
Diagonalization             ....       4.643 sec  (  0.2%)
Density matrix formation    ....       0.489 sec  (  0.0%)
Population analysis         ....       0.317 sec  (  0.0%)
Initial guess               ....       2.331 sec  (  0.1%)
Orbital Transformation      ....       0.000 sec  (  0.0%)
Orbital Orthonormalization  ....       0.000 sec  (  0.0%)
DIIS solution               ....       2.455 sec  (  0.1%)
SOSCF solution              ....       5.843 sec  (  0.2%)

Maximum memory used throughout the entire SCF-calculation: 304.2 MB


           ************************************************************
           *        Program running with 8 parallel MPI-processes     *
           *              working on a common directory               *
           ************************************************************

------------------------------------------------------------------------------
                                ORCA  MP2 
------------------------------------------------------------------------------

Freezing NCore=104 chemical core electrons

----------
MP2 ENERGY (disk based algorithm)
----------

Dimension of the basis                    ...  918
Memory devoted to MP2                     ... 7000 MB   
Data format for buffers                   ... DOUBLE
Compression type for matrix containers    ... UNCOMPRESSED

-------------------------------
PARTIAL EXCHANGE TRANSFORMATION
-------------------------------

Transformation type                        ... one-operator
Generation of integrals (i,mue|j,nue)      ... ON
Generation of integrals (mue,kappa|nue,tau)... OFF
Generation of integrals (i,mue|a,nue)      ... OFF
Dimension of the basis                     ...  918
Number of internal MOs                     ...  127 (  52- 178)
Pair cutoff                                ... 2.500e-12 Eh
Number of AO pairs in the trafo            ... 421821
Total Number of distinct AO pairs          ... 421821
Memory devoted for trafo                   ... 7000.0 MB 
Max. Number of MO pairs treated together   ... 1088      
Number Format for Storage                  ... Double (8 Byte)
Integral package used                      ... LIBINT

Starting integral evaluation:
    ... done with AO integral generation
Closing buffer AOK     (38.28 GB; CompressionRatio= 1.32)
Collecting buffer AOK 
Number of MO pairs included in the trafo   ... 8128
------------------------
SORTING OF (i,mue|j,nue)
------------------------

IBATCH = 1 of  1
Closing buffer KAO     (51.03 GB; CompressionRatio= 1.00)
Collecting buffer KAO 
N(AO-Batches) Done                         ... 174364725 
N(AO-Batches) Skipped                      ... 167312922 
N(IJ)-pairs Skipped                        ...         0 
TOTAL TIME for half transformation         ...  1390.903 sec
AO-integral generation                     ...   255.209 sec
Half transformation                        ...   472.406 sec
K-integral sorting                         ...   332.784 sec

Finished integral transformation - now doing MP2 part

OPERATOR COMBINATION   0   0: ij=( 52..178, 52..178)
Process 5:   Internal MO 132
Process 2:   Internal MO  84
Process 0:   Internal MO  54
Process 0:   Internal MO  57
Process 1:   Internal MO  69
Process 0:   Internal MO  60
Process 4:   Internal MO 117
Process 0:   Internal MO  63
Process 1:   Internal MO  72
Process 3:   Internal MO 102
Process 2:   Internal MO  87
Process 0:   Internal MO  66
Process 7:   Internal MO 165
Process 1:   Internal MO  75
Process 6:   Internal MO 150
Process 2:   Internal MO  90
Process 1:   Internal MO  78
Process 5:   Internal MO 135
Process 3:   Internal MO 105
Process 4:   Internal MO 120
Process 1:   Internal MO  81
Process 2:   Internal MO  93
Process 3:   Internal MO 108
Process 7:   Internal MO 168
Process 2:   Internal MO  96
Process 4:   Internal MO 123
Process 6:   Internal MO 153
Process 5:   Internal MO 138
Process 3:   Internal MO 111
Process 2:   Internal MO  99
Process 4:   Internal MO 126
Process 5:   Internal MO 141
Process 3:   Internal MO 114
Process 7:   Internal MO 171
Process 6:   Internal MO 156
Process 4:   Internal MO 129
Process 5:   Internal MO 144
Process 6:   Internal MO 159
Process 7:   Internal MO 174
Process 5:   Internal MO 147
Process 6:   Internal MO 162
Process 7:   Internal MO 177
-----------------------------------------------
 MP2 CORRELATION ENERGY   :     -7.282701134 Eh
-----------------------------------------------


-------
TIMINGS
-------
Total time                : 1555.124 sec
Integral trafo            : 1410.785 sec ( 90.7%)
K(i,j)                    :    9.361 sec (  0.6%)
T(i,j)                    :    0.123 sec (  0.0%)

---------------------------------------
MP2 TOTAL ENERGY:    -2130.908318821 Eh
---------------------------------------

Maximum memory used throughout the entire MP2-calculation: 6735.8 MB

-------------------------   --------------------
FINAL SINGLE POINT ENERGY     -2130.908318821276
-------------------------   --------------------


                            ***************************************
                            *     ORCA property calculations      *
                            ***************************************


  WARNING: The energy has been calculated at the MP2 level but the densities
           used in the property calculations are still SCF densities
           MP2 response densities have not been calculated 
           use %mp2 Density relaxed end
           or  %mp2 Density unrelaxed end

                                    ---------------------
                                    Active property flags
                                    ---------------------
   (+) Dipole Moment


------------------------------------------------------------------------------
                       ORCA ELECTRIC PROPERTIES CALCULATION
------------------------------------------------------------------------------

Dipole Moment Calculation                       ... on
Quadrupole Moment Calculation                   ... off
Polarizability Calculation                      ... off
GBWName                                         ... /scratch/chu_02/allen/tmpyp4_amber_gaff2/conf1/conf1/Conf323.orca.gbw
Electron density                                ... /scratch/chu_02/allen/tmpyp4_amber_gaff2/conf1/conf1/Conf323.orca.scfp
The origin for moment calculation is the CENTER OF MASS  = (-0.001263, -0.004918  0.000146)

-------------
DIPOLE MOMENT
-------------
                                X             Y             Z
Electronic contribution:      1.75107      -3.53785      -0.06105
Nuclear contribution   :      0.00224       0.18833       0.07048
                        -----------------------------------------
Total Dipole Moment    :      1.75331      -3.34952       0.00942
                        -----------------------------------------
Magnitude (a.u.)       :      3.78067
Magnitude (Debye)      :      9.60970



--------------------
Rotational spectrum 
--------------------
 
Rotational constants in cm-1:     0.001501     0.001475     0.000761 
Rotational constants in MHz :    45.010701    44.229334    22.815499 

 Dipole components along the rotational axes: 
x,y,z [a.u.] :     2.554918    -2.786703     0.011599 
x,y,z [Debye]:     6.494084    -7.083237     0.029483 

 

Timings for individual modules:

Sum of individual times         ...     4097.719 sec (=  68.295 min)
GTO integral calculation        ...        2.875 sec (=   0.048 min)   0.1 %
SCF iterations                  ...     2538.368 sec (=  42.306 min)  61.9 %
MP2 module                      ...     1556.475 sec (=  25.941 min)  38.0 %
                             ****ORCA TERMINATED NORMALLY****
TOTAL RUN TIME: 0 days 1 hours 8 minutes 24 seconds 5 msec
# of primitive gaussian functions

