
                                 *****************
                                 * O   R   C   A *
                                 *****************

                                            #,                                       
                                            ###                                      
                                            ####                                     
                                            #####                                    
                                            ######                                   
                                           ########,                                 
                                     ,,################,,,,,                         
                               ,,#################################,,                 
                          ,,##########################################,,             
                       ,#########################################, ''#####,          
                    ,#############################################,,   '####,        
                  ,##################################################,,,,####,       
                ,###########''''           ''''###############################       
              ,#####''   ,,,,##########,,,,          '''####'''          '####       
            ,##' ,,,,###########################,,,                        '##       
           ' ,,###''''                  '''############,,,                           
         ,,##''                                '''############,,,,        ,,,,,,###''
      ,#''                                            '''#######################'''  
     '                                                          ''''####''''         
             ,#######,   #######,   ,#######,      ##                                
            ,#'     '#,  ##    ##  ,#'     '#,    #''#        ######   ,####,        
            ##       ##  ##   ,#'  ##            #'  '#       #        #'  '#        
            ##       ##  #######   ##           ,######,      #####,   #    #        
            '#,     ,#'  ##    ##  '#,     ,#' ,#      #,         ##   #,  ,#        
             '#######'   ##     ##  '#######'  #'      '#     #####' # '####'        



                  #######################################################
                  #                        -***-                        #
                  #          Department of theory and spectroscopy      #
                  #    Directorship and core code : Frank Neese         #
                  #        Max Planck Institute fuer Kohlenforschung    #
                  #                Kaiser Wilhelm Platz 1               #
                  #                 D-45470 Muelheim/Ruhr               #
                  #                      Germany                        #
                  #                                                     #
                  #                  All rights reserved                #
                  #                        -***-                        #
                  #######################################################


                         Program Version 5.0.4 -  RELEASE  -


 With contributions from (in alphabetic order):
   Daniel Aravena         : Magnetic Suceptibility
   Michael Atanasov       : Ab Initio Ligand Field Theory (pilot matlab implementation)
   Alexander A. Auer      : GIAO ZORA, VPT2 properties, NMR spectrum
   Ute Becker             : Parallelization
   Giovanni Bistoni       : ED, misc. LED, open-shell LED, HFLD
   Martin Brehm           : Molecular dynamics
   Dmytro Bykov           : SCF Hessian
   Vijay G. Chilkuri      : MRCI spin determinant printing, contributions to CSF-ICE
   Dipayan Datta          : RHF DLPNO-CCSD density
   Achintya Kumar Dutta   : EOM-CC, STEOM-CC
   Dmitry Ganyushin       : Spin-Orbit,Spin-Spin,Magnetic field MRCI
   Miquel Garcia          : C-PCM and meta-GGA Hessian, CC/C-PCM, Gaussian charge scheme
   Yang Guo               : DLPNO-NEVPT2, F12-NEVPT2, CIM, IAO-localization
   Andreas Hansen         : Spin unrestricted coupled pair/coupled cluster methods
   Benjamin Helmich-Paris : MC-RPA, TRAH-SCF, COSX integrals
   Lee Huntington         : MR-EOM, pCC
   Robert Izsak           : Overlap fitted RIJCOSX, COSX-SCS-MP3, EOM
   Marcus Kettner         : VPT2
   Christian Kollmar      : KDIIS, OOCD, Brueckner-CCSD(T), CCSD density, CASPT2, CASPT2-K
   Simone Kossmann        : Meta GGA functionals, TD-DFT gradient, OOMP2, MP2 Hessian
   Martin Krupicka        : Initial AUTO-CI
   Lucas Lang             : DCDCAS
   Marvin Lechner         : AUTO-CI (C++ implementation), FIC-MRCC
   Dagmar Lenk            : GEPOL surface, SMD
   Dimitrios Liakos       : Extrapolation schemes; Compound Job, initial MDCI parallelization
   Dimitrios Manganas     : Further ROCIS development; embedding schemes
   Dimitrios Pantazis     : SARC Basis sets
   Anastasios Papadopoulos: AUTO-CI, single reference methods and gradients
   Taras Petrenko         : DFT Hessian,TD-DFT gradient, ASA, ECA, R-Raman, ABS, FL, XAS/XES, NRVS
   Peter Pinski           : DLPNO-MP2, DLPNO-MP2 Gradient
   Christoph Reimann      : Effective Core Potentials
   Marius Retegan         : Local ZFS, SOC
   Christoph Riplinger    : Optimizer, TS searches, QM/MM, DLPNO-CCSD(T), (RO)-DLPNO pert. Triples
   Tobias Risthaus        : Range-separated hybrids, TD-DFT gradient, RPA, STAB
   Michael Roemelt        : Original ROCIS implementation
   Masaaki Saitow         : Open-shell DLPNO-CCSD energy and density
   Barbara Sandhoefer     : DKH picture change effects
   Avijit Sen             : IP-ROCIS
   Kantharuban Sivalingam : CASSCF convergence, NEVPT2, FIC-MRCI
   Bernardo de Souza      : ESD, SOC TD-DFT
   Georgi Stoychev        : AutoAux, RI-MP2 NMR, DLPNO-MP2 response
   Willem Van den Heuvel  : Paramagnetic NMR
   Boris Wezisla          : Elementary symmetry handling
   Frank Wennmohs         : Technical directorship


 We gratefully acknowledge several colleagues who have allowed us to
 interface, adapt or use parts of their codes:
   Stefan Grimme, W. Hujo, H. Kruse, P. Pracht,  : VdW corrections, initial TS optimization,
                  C. Bannwarth, S. Ehlert          DFT functionals, gCP, sTDA/sTD-DF
   Ed Valeev, F. Pavosevic, A. Kumar             : LibInt (2-el integral package), F12 methods
   Garnet Chan, S. Sharma, J. Yang, R. Olivares  : DMRG
   Ulf Ekstrom                                   : XCFun DFT Library
   Mihaly Kallay                                 : mrcc  (arbitrary order and MRCC methods)
   Jiri Pittner, Ondrej Demel                    : Mk-CCSD
   Frank Weinhold                                : gennbo (NPA and NBO analysis)
   Christopher J. Cramer and Donald G. Truhlar   : smd solvation model
   Lars Goerigk                                  : TD-DFT with DH, B97 family of functionals
   V. Asgeirsson, H. Jonsson                     : NEB implementation
   FAccTs GmbH                                   : IRC, NEB, NEB-TS, DLPNO-Multilevel, CI-OPT
                                                   MM, QMMM, 2- and 3-layer-ONIOM, Crystal-QMMM,
                                                   LR-CPCM, SF, NACMEs, symmetry and pop. for TD-DFT,
                                                   nearIR, NL-DFT gradient (VV10), updates on ESD,
                                                   ML-optimized integration grids
   S Lehtola, MJT Oliveira, MAL Marques          : LibXC Library
   Liviu Ungur et al                             : ANISO software


 Your calculation uses the libint2 library for the computation of 2-el integrals
 For citations please refer to: http://libint.valeyev.net

 Your ORCA version has been built with support for libXC version: 5.1.0
 For citations please refer to: https://tddft.org/programs/libxc/

 This ORCA versions uses:
   CBLAS   interface :  Fast vector & matrix operations
   LAPACKE interface :  Fast linear algebra routines
   SCALAPACK package :  Parallel linear algebra routines
   Shared memory     :  Shared parallel matrices
   BLAS/LAPACK       :  OpenBLAS 0.3.15  USE64BITINT DYNAMIC_ARCH NO_AFFINITY Sandybridge SINGLE_THREADED
        Core in use  :  Sandybridge
   Copyright (c) 2011-2014, The OpenBLAS Project


================================================================================

----- Orbital basis set information -----
Your calculation utilizes the basis: cc-pVDZ 
       H, B-Ne : Obtained from the ccRepo (grant-hill.group.shef.ac.uk/ccrepo) Feb. 2017
                 T. H. Dunning, Jr., J. Chem. Phys. 90, 1007 (1989)
            He : Obtained from the ccRepo (grant-hill.group.shef.ac.uk/ccrepo) Feb. 2017
                 D. E. Woon, T. H. Dunning, Jr., J. Chem. Phys. 100, 2975 (1994)
  Li-Be, Na-Mg : Obtained from the ccRepo (grant-hill.group.shef.ac.uk/ccrepo) Feb. 2017
                 B. P. Prascher, D. E. Woon, K. A. Peterson, T. H. Dunning, Jr., A. K. Wilson, Theor. Chem. Acc. 128, 69 (2011)
         Al-Ar : Obtained from the ccRepo (grant-hill.group.shef.ac.uk/ccrepo) Feb. 2017
                 D. E. Woon, T. H. Dunning, Jr., J. Chem. Phys. 98, 1358 (1993)
            Ca : Obtained from the Peterson Research Group Website (tyr0.chem.wsu.edu/~kipeters) Feb. 2017
                 J. Koput, K. A. Peterson, J. Phys. Chem. 106, 9595 (2002)
         Sc-Zn : Obtained from the ccRepo (grant-hill.group.shef.ac.uk/ccrepo) Feb. 2017
                 N. B. Balabanov, K. A. Peterson, J. Chem. Phys. 123, 064107 (2005)
                 N. B. Balabanov, K. A. Peterson, J. Chem. Phys. 125, 074110 (2006)
         Ga-Kr : Obtained from the ccRepo (grant-hill.group.shef.ac.uk/ccrepo) Feb. 2017
                 A. K. Wilson, D. E. Woon, K. A. Peterson, T. H. Dunning, Jr., J. Chem. Phys. 110, 7667 (1999)

================================================================================
                                        WARNINGS
                       Please study these warnings very carefully!
================================================================================


WARNING: No MP2 level density has been requested!
         To caclulate MP2 level properties use
         %mp2 Density relaxed end
         or
         %mp2 Density unrelaxed end

WARNING: Post HF methods need fully converged wavefunctions
  ===> : Setting SCFConvForced true
         You can overwrite this default with %scf ConvForced false 


INFO   : the flag for use of the SHARK integral package has been found!

================================================================================
                                       INPUT FILE
================================================================================
NAME = /scratch/allen/tmpyp4_amber_gaff2/2.Mdgx/conf11/conf11/Conf95.orca
|  1> ! PAL2
|  2> ! mp2 cc-pvdz TightSCF  NoKeepInts
|  3> 
|  4> %scf
|  5>   MaxCore 2000
|  6> end
|  7> %mp2
|  8>   MaxCore 2000
|  9> end
| 10> * xyz 0 1
| 11>    C       -4.03900         5.83200        -1.07900
| 12>    C        1.47400         4.04100         0.05700
| 13>    C       -2.80200         4.09300         0.04900
| 14>    C       -3.15000         4.70400         1.26400
| 15>    C       -3.92500         5.84600         1.26800
| 16>    C       -5.21600         7.59900         0.14900
| 17>    C        0.13200         4.30700         0.06100
| 18>    C       -0.56900         3.05600         0.04700
| 19>    C        1.64900         2.61800         0.02300
| 20>    C       -3.27000         4.68500        -1.13400
| 21>    N       -4.35500         6.39600         0.10900
| 22>    N        0.38800         2.06700         0.02500
| 23>    N       -2.01000         0.39500        -0.07500
| 24>    N       -0.38800        -2.07400        -0.02700
| 25>    N        2.01000        -0.40100         0.06500
| 26>    C       -1.96000         2.86100         0.02400
| 27>    C       -2.62300         1.61500        -0.01800
| 28>    C       -5.57300        -4.32900         1.06600
| 29>    C       -4.07300         1.47100         0.05600
| 30>    C       -4.10600        -2.75600        -0.02600
| 31>    C       -4.99500        -2.75700        -1.11100
| 32>    C       -6.13200        -3.54200        -1.07600
| 33>    C       -7.65100        -5.11300         0.04000
| 34>    C       -4.32400         0.14100         0.03700
| 35>    C       -3.02500        -0.52000        -0.04800
| 36>    C       -4.42200        -3.56600         1.07500
| 37>    N       -6.40700        -4.31300         0.00100
| 38>    C       -2.86700        -1.92200        -0.04000
| 39>    C       -1.65000        -2.62400        -0.02700
| 40>    C        3.56800        -6.14200        -1.04000
| 41>    C       -1.47600        -4.04900        -0.03400
| 42>    C        2.80300        -4.09900        -0.00800
| 43>    C        3.65700        -4.38400         1.06900
| 44>    C        4.42700        -5.53000         1.05900
| 45>    C        5.24500        -7.58800         0.01400
| 46>    C       -0.13400        -4.31500        -0.02200
| 47>    C        0.56800        -3.06400        -0.02700
| 48>    C        2.77500        -5.01200        -1.07400
| 49>    N        4.37600        -6.39100         0.01700
| 50>    C        1.95900        -2.86900        -0.00900
| 51>    C        2.62100        -1.62200         0.00900
| 52>    C        5.54300         4.33900        -1.13000
| 53>    C        4.07000        -1.47900        -0.09400
| 54>    C        4.10400         2.75100        -0.02100
| 55>    C        5.02700         2.72900         1.03600
| 56>    C        6.16600         3.50900         0.97800
| 57>    C        7.61900         5.15300        -0.11500
| 58>    C        4.32100        -0.14800        -0.09200
| 59>    C        3.02500         0.51400         0.01500
| 60>    C        4.38700         3.58200        -1.11500
| 61>    C        2.86600         1.91600         0.01300
| 62>    N        6.41300         4.29600        -0.09500
| 63>    H       -4.41000         6.32900        -1.96600
| 64>    H        2.27400         4.76600         0.08100
| 65>    H       -2.82700         4.28900         2.21100
| 66>    H       -4.22600         6.34800         2.17900
| 67>    H       -6.25700         7.28800         0.26600
| 68>    H       -4.91300         8.21900         0.99200
| 69>    H       -5.09300         8.15000        -0.78300
| 70>    H       -0.33200         5.28200         0.06900
| 71>    H       -3.02400         4.26900        -2.10400
| 72>    H        0.18200         1.07200         0.00500
| 73>    H       -0.18300        -1.08000        -0.02100
| 74>    H       -5.86400        -4.96200         1.89500
| 75>    H       -4.79400         2.27200         0.13900
| 76>    H       -4.80000        -2.16000        -1.99400
| 77>    H       -6.84100        -3.58200        -1.89300
| 78>    H       -8.42800        -4.53600         0.54600
| 79>    H       -7.95600        -5.33700        -0.98100
| 80>    H       -7.45600        -6.03700         0.58400
| 81>    H       -5.28700        -0.34400         0.10000
| 82>    H       -3.78000        -3.60100         1.94700
| 83>    H        3.58700        -6.86800        -1.84300
| 84>    H       -2.27600        -4.77400        -0.05000
| 85>    H        3.71400        -3.72400         1.92600
| 86>    H        5.09200        -5.79500         1.87100
| 87>    H        6.20500        -7.32900        -0.43900
| 88>    H        5.39300        -7.91700         1.04200
| 89>    H        4.75900        -8.37300        -0.56400
| 90>    H        0.32900        -5.29000        -0.00800
| 91>    H        2.14600        -4.84200        -1.94000
| 92>    H        5.80800         4.98600        -1.95600
| 93>    H        4.78800        -2.28100        -0.18500
| 94>    H        4.86000         2.11400         1.91200
| 95>    H        6.90100         3.53100         1.77200
| 96>    H        7.38300         6.10900         0.35600
| 97>    H        8.41400         4.65200         0.43500
| 98>    H        7.92100         5.31000        -1.15000
| 99>    H        5.28300         0.33600        -0.17900
|100>    H        3.72000         3.63200        -1.96700
|101> *
|102> 
|103>                          ****END OF INPUT****
================================================================================

                       ****************************
                       * Single Point Calculation *
                       ****************************

---------------------------------
CARTESIAN COORDINATES (ANGSTROEM)
---------------------------------
  C     -4.039000    5.832000   -1.079000
  C      1.474000    4.041000    0.057000
  C     -2.802000    4.093000    0.049000
  C     -3.150000    4.704000    1.264000
  C     -3.925000    5.846000    1.268000
  C     -5.216000    7.599000    0.149000
  C      0.132000    4.307000    0.061000
  C     -0.569000    3.056000    0.047000
  C      1.649000    2.618000    0.023000
  C     -3.270000    4.685000   -1.134000
  N     -4.355000    6.396000    0.109000
  N      0.388000    2.067000    0.025000
  N     -2.010000    0.395000   -0.075000
  N     -0.388000   -2.074000   -0.027000
  N      2.010000   -0.401000    0.065000
  C     -1.960000    2.861000    0.024000
  C     -2.623000    1.615000   -0.018000
  C     -5.573000   -4.329000    1.066000
  C     -4.073000    1.471000    0.056000
  C     -4.106000   -2.756000   -0.026000
  C     -4.995000   -2.757000   -1.111000
  C     -6.132000   -3.542000   -1.076000
  C     -7.651000   -5.113000    0.040000
  C     -4.324000    0.141000    0.037000
  C     -3.025000   -0.520000   -0.048000
  C     -4.422000   -3.566000    1.075000
  N     -6.407000   -4.313000    0.001000
  C     -2.867000   -1.922000   -0.040000
  C     -1.650000   -2.624000   -0.027000
  C      3.568000   -6.142000   -1.040000
  C     -1.476000   -4.049000   -0.034000
  C      2.803000   -4.099000   -0.008000
  C      3.657000   -4.384000    1.069000
  C      4.427000   -5.530000    1.059000
  C      5.245000   -7.588000    0.014000
  C     -0.134000   -4.315000   -0.022000
  C      0.568000   -3.064000   -0.027000
  C      2.775000   -5.012000   -1.074000
  N      4.376000   -6.391000    0.017000
  C      1.959000   -2.869000   -0.009000
  C      2.621000   -1.622000    0.009000
  C      5.543000    4.339000   -1.130000
  C      4.070000   -1.479000   -0.094000
  C      4.104000    2.751000   -0.021000
  C      5.027000    2.729000    1.036000
  C      6.166000    3.509000    0.978000
  C      7.619000    5.153000   -0.115000
  C      4.321000   -0.148000   -0.092000
  C      3.025000    0.514000    0.015000
  C      4.387000    3.582000   -1.115000
  C      2.866000    1.916000    0.013000
  N      6.413000    4.296000   -0.095000
  H     -4.410000    6.329000   -1.966000
  H      2.274000    4.766000    0.081000
  H     -2.827000    4.289000    2.211000
  H     -4.226000    6.348000    2.179000
  H     -6.257000    7.288000    0.266000
  H     -4.913000    8.219000    0.992000
  H     -5.093000    8.150000   -0.783000
  H     -0.332000    5.282000    0.069000
  H     -3.024000    4.269000   -2.104000
  H      0.182000    1.072000    0.005000
  H     -0.183000   -1.080000   -0.021000
  H     -5.864000   -4.962000    1.895000
  H     -4.794000    2.272000    0.139000
  H     -4.800000   -2.160000   -1.994000
  H     -6.841000   -3.582000   -1.893000
  H     -8.428000   -4.536000    0.546000
  H     -7.956000   -5.337000   -0.981000
  H     -7.456000   -6.037000    0.584000
  H     -5.287000   -0.344000    0.100000
  H     -3.780000   -3.601000    1.947000
  H      3.587000   -6.868000   -1.843000
  H     -2.276000   -4.774000   -0.050000
  H      3.714000   -3.724000    1.926000
  H      5.092000   -5.795000    1.871000
  H      6.205000   -7.329000   -0.439000
  H      5.393000   -7.917000    1.042000
  H      4.759000   -8.373000   -0.564000
  H      0.329000   -5.290000   -0.008000
  H      2.146000   -4.842000   -1.940000
  H      5.808000    4.986000   -1.956000
  H      4.788000   -2.281000   -0.185000
  H      4.860000    2.114000    1.912000
  H      6.901000    3.531000    1.772000
  H      7.383000    6.109000    0.356000
  H      8.414000    4.652000    0.435000
  H      7.921000    5.310000   -1.150000
  H      5.283000    0.336000   -0.179000
  H      3.720000    3.632000   -1.967000

----------------------------
CARTESIAN COORDINATES (A.U.)
----------------------------
  NO LB      ZA    FRAG     MASS         X           Y           Z
   0 C     6.0000    0    12.011   -7.632604   11.020883   -2.039014
   1 C     6.0000    0    12.011    2.785456    7.636383    0.107714
   2 C     6.0000    0    12.011   -5.295013    7.734649    0.092597
   3 C     6.0000    0    12.011   -5.952637    8.889272    2.388614
   4 C     6.0000    0    12.011   -7.417175   11.047339    2.396173
   5 C     6.0000    0    12.011   -9.856812   14.360029    0.281569
   6 C     6.0000    0    12.011    0.249444    8.139050    0.115273
   7 C     6.0000    0    12.011   -1.075254    5.775003    0.088817
   8 C     6.0000    0    12.011    3.116158    4.947303    0.043464
   9 C     6.0000    0    12.011   -6.179404    8.853367   -2.142949
  10 N     7.0000    0    14.007   -8.229757   12.086688    0.205980
  11 N     7.0000    0    14.007    0.733214    3.906064    0.047243
  12 N     7.0000    0    14.007   -3.798350    0.746442   -0.141729
  13 N     7.0000    0    14.007   -0.733214   -3.919292   -0.051023
  14 N     7.0000    0    14.007    3.798350   -0.757780    0.122832
  15 C     6.0000    0    12.011   -3.703863    5.406506    0.045353
  16 C     6.0000    0    12.011   -4.956752    3.051908   -0.034015
  17 C     6.0000    0    12.011  -10.531444   -8.180624    2.014448
  18 C     6.0000    0    12.011   -7.696855    2.779787    0.105825
  19 C     6.0000    0    12.011   -7.759216   -5.208085   -0.049133
  20 C     6.0000    0    12.011   -9.439182   -5.209975   -2.099486
  21 C     6.0000    0    12.011  -11.587801   -6.693410   -2.033345
  22 C     6.0000    0    12.011  -14.458295   -9.662170    0.075589
  23 C     6.0000    0    12.011   -8.171176    0.266451    0.069920
  24 C     6.0000    0    12.011   -5.716422   -0.982658   -0.090707
  25 C     6.0000    0    12.011   -8.356369   -6.738763    2.031456
  26 N     7.0000    0    14.007  -12.107475   -8.150389    0.001890
  27 C     6.0000    0    12.011   -5.417845   -3.632054   -0.075589
  28 C     6.0000    0    12.011   -3.118048   -4.958641   -0.051023
  29 C     6.0000    0    12.011    6.742543  -11.606698   -1.965315
  30 C     6.0000    0    12.011   -2.789236   -7.651501   -0.064251
  31 C     6.0000    0    12.011    5.296902   -7.745987   -0.015118
  32 C     6.0000    0    12.011    6.910728   -8.284559    2.020117
  33 C     6.0000    0    12.011    8.365818  -10.450186    2.001220
  34 C     6.0000    0    12.011    9.911614  -14.339242    0.026456
  35 C     6.0000    0    12.011   -0.253223   -8.154168   -0.041574
  36 C     6.0000    0    12.011    1.073364   -5.790121   -0.051023
  37 C     6.0000    0    12.011    5.243990   -9.471307   -2.029566
  38 N     7.0000    0    14.007    8.269442  -12.077240    0.032125
  39 C     6.0000    0    12.011    3.701973   -5.421624   -0.017008
  40 C     6.0000    0    12.011    4.952972   -3.065136    0.017008
  41 C     6.0000    0    12.011   10.474752    8.199522   -2.135391
  42 C     6.0000    0    12.011    7.691185   -2.794905   -0.177634
  43 C     6.0000    0    12.011    7.755436    5.198637   -0.039684
  44 C     6.0000    0    12.011    9.499653    5.157063    1.957756
  45 C     6.0000    0    12.011   11.652051    6.631049    1.848152
  46 C     6.0000    0    12.011   14.397823    9.737759   -0.217319
  47 C     6.0000    0    12.011    8.165507   -0.279679   -0.173855
  48 C     6.0000    0    12.011    5.716422    0.971319    0.028346
  49 C     6.0000    0    12.011    8.290229    6.768999   -2.107045
  50 C     6.0000    0    12.011    5.415955    3.620715    0.024566
  51 N     7.0000    0    14.007   12.118814    8.118263   -0.179524
  52 H     1.0000    0     1.008   -8.333692   11.960077   -3.715202
  53 H     1.0000    0     1.008    4.297237    9.006435    0.153068
  54 H     1.0000    0     1.008   -5.342256    8.105035    4.178184
  55 H     1.0000    0     1.008   -7.985983   11.995981    4.117713
  56 H     1.0000    0     1.008  -11.824016   13.772324    0.502667
  57 H     1.0000    0     1.008   -9.284224   15.531659    1.874608
  58 H     1.0000    0     1.008   -9.624375   15.401268   -1.479656
  59 H     1.0000    0     1.008   -0.627389    9.981533    0.130391
  60 H     1.0000    0     1.008   -5.714532    8.067241   -3.975984
  61 H     1.0000    0     1.008    0.343930    2.025786    0.009449
  62 H     1.0000    0     1.008   -0.345820   -2.040904   -0.039684
  63 H     1.0000    0     1.008  -11.081354   -9.376821    3.581031
  64 H     1.0000    0     1.008   -9.059347    4.293458    0.262672
  65 H     1.0000    0     1.008   -9.070685   -4.081808   -3.768114
  66 H     1.0000    0     1.008  -12.927616   -6.768999   -3.577252
  67 H     1.0000    0     1.008  -15.926612   -8.571798    1.031790
  68 H     1.0000    0     1.008  -15.034661  -10.085468   -1.853821
  69 H     1.0000    0     1.008  -14.089798  -11.408277    1.103600
  70 H     1.0000    0     1.008   -9.990982   -0.650066    0.188973
  71 H     1.0000    0     1.008   -7.143165   -6.804904    3.679297
  72 H     1.0000    0     1.008    6.778448  -12.978639   -3.482765
  73 H     1.0000    0     1.008   -4.301017   -9.021553   -0.094486
  74 H     1.0000    0     1.008    7.018443   -7.037340    3.639613
  75 H     1.0000    0     1.008    9.622485  -10.950963    3.535678
  76 H     1.0000    0     1.008   11.725751  -13.849803   -0.829590
  77 H     1.0000    0     1.008   10.191293  -14.960962    1.969095
  78 H     1.0000    0     1.008    8.993207  -15.822677   -1.065806
  79 H     1.0000    0     1.008    0.621720   -9.996651   -0.015118
  80 H     1.0000    0     1.008    4.055352   -9.150054   -3.666069
  81 H     1.0000    0     1.008   10.975529    9.422175   -3.696304
  82 H     1.0000    0     1.008    9.048009   -4.310465   -0.349599
  83 H     1.0000    0     1.008    9.184069    3.994881    3.613156
  84 H     1.0000    0     1.008   13.041000    6.672623    3.348595
  85 H     1.0000    0     1.008   13.951848   11.544337    0.672743
  86 H     1.0000    0     1.008   15.900156    8.791006    0.822031
  87 H     1.0000    0     1.008   14.968521   10.034446   -2.173185
  88 H     1.0000    0     1.008    9.983423    0.634948   -0.338261
  89 H     1.0000    0     1.008    7.029781    6.863485   -3.717091

--------------------------------
INTERNAL COORDINATES (ANGSTROEM)
--------------------------------
 C      0   0   0     0.000000000000     0.00000000     0.00000000
 C      1   0   0     5.906889706097     0.00000000     0.00000000
 C      1   2   0     2.413850451043    38.13161126     0.00000000
 C      3   1   2     1.403798418577    87.92849947   105.84217996
 C      4   3   1     1.380146731330   120.12294326     0.10721860
 C      5   4   3     2.447825769944   152.54904453     1.65915778
 C      2   1   3     1.368114030335    13.12133863   332.80164395
 C      7   2   3     1.434084376876   108.05010202     0.84668783
 C      2   1   3     1.434123425651   114.21631715    38.01838356
 C      1   2   3     1.382025687171    40.24276384   311.44668296
 N      1   2   3     1.352514694929   100.11188881    77.80415573
 N      9   2   1     1.376127174356   106.58526707   346.70542987
 N     12   9   2     2.925062050624   168.53581413   171.12065651
 N     13  12   9     2.954513327098    91.55032014    11.12112580
 N     14  13  12     2.925371258490    88.43092389   359.84326247
 C      8   7   2     1.404790019896   127.24786865   181.11170171
 C     13  12   9     1.366535034311    81.72106996   188.00453233
 C     14  13  12     5.758810554272    80.56209567   166.76250791
 C     17  13  12     1.459010623676   111.08861209   183.82872609
 C     18  14  13     2.412235892279    27.27532823    36.33507194
 C     20  18  14     1.402692767501    87.95206320   148.94598259
 C     21  20  18     1.382106725257   120.14573887   359.70382047
 C     18  14  13     2.446510985056   144.15733107    82.80075377
 C     19  17  13     1.353610726908   106.29293361   359.75308708
 C     13  12   9     1.366813447402   172.21332906    33.46711076
 C     18  14  13     1.380960173213    15.08449437   309.23336894
 N     22  21  20     1.352773077792   120.73759875     0.27865223
 C     25  13  17     1.410897586645   125.60330303   182.37774668
 C     14  13  12     1.376642291955    80.24689249   177.85461986
 C     14  13  12     5.764089607215   164.51507311   312.20821879
 C     29  14  13     1.435600919476   106.58649366   178.76395472
 C     30  14  13     2.413316804732    27.10625047    82.12560436
 C     32  30  14     1.403734305344    87.90059683   149.76154742
 C     33  32  30     1.380694028378   120.14881443   359.74174632
 C     34  33  32     2.448777858443   152.49203239     2.45173620
 C     31  29  14     1.368160809262   108.16950133     0.70383075
 C     14  13  12     1.376239804685   169.26375223   353.09862627
 C     30  14  13     1.380907310430    14.68948582   353.70041132
 N     34  33  32     1.352658863128   120.85575621     0.19603406
 C     37  14  29     1.404717053360   126.01551127   180.90772073
 C     15  14  13     1.366491126938    81.61824056   183.09049352
 C      2   1   3     4.249062720177   144.96244214   160.60053604
 C     41  15  14     1.459677704153   111.05201287   175.08990246
 C     42   2   1     2.412953791518    41.78584867   206.67285775
 C     44  42   2     1.403446472082    87.95153797   233.97558675
 C     45  44  42     1.381696421071   120.11137308     0.19721020
 C     42   2   1     2.450019795838   135.97209175   116.98770685
 C     43  41  15     1.354461516618   106.26758155     0.30894352
 C     15  14  13     1.367461151185   171.87382904   332.35056460
 C     42   2   1     1.381886391857    32.59078432   255.52813694
 C      9   2   1     1.404988612053   126.98745415   167.70976740
 N     42   2   1     1.352765315936   113.57249190   144.72429604
 H      1   2   3     1.082321116860   128.08039371   213.71191658
 H      2   1   3     1.079907866440   119.48008430   206.57300954
 H      4   3   1     1.083218814460   121.06412791   179.55857761
 H      5   4   3     1.082832397003   122.82908754   179.46456404
 H      6   5   4     1.092744709436   104.45788659   100.08955914
 H      6   5   4     1.089430126259    84.67190296   209.52988042
 H      6   5   4     1.089657744432   133.91528458   322.35742743
 H      7   2  54     1.079807853278   126.66122480     1.30600390
 H     10   1   2     1.083730593829   118.71850953   248.17108761
 H     12   9   2     1.016297692608   125.29023241   180.00180175
 H     14  13  12     1.014936943854    44.97226959   359.42596618
 H     18  14  13     1.082871645210   128.03556573   234.20482432
 H     19  17  13     1.080893611786   126.41830519   178.11313280
 H     21  20  18     1.083569563987   121.05669627   180.67006309
 H     22  21  20     1.082483256222   122.73097286   180.59748951
 H     23  18  14     1.092105306278   103.92715769   234.93429879
 H     23  18  14     1.088871893291   134.19244188    12.25587044
 H     23  18  14     1.089833473518    84.85857450   125.45241208
 H     24  19  17     1.080075460327   127.28078426   178.44613241
 H     26  18  14     1.083408048706   118.76995697   244.94906660
 H     30  14  13     1.082703098730   127.99711412   279.66882698
 H     31  29  14     1.079759695488   125.22293469   180.92530585
 H     33  32  30     1.083188810873   121.01964473   180.74284758
 H     34  33  32     1.082494341787   122.70821597   180.59516895
 H     35  34  33     1.092652735319   105.73575241    97.19771933
 H     35  34  33     1.089462711615    84.05943581   206.43036958
 H     35  34  33     1.089268102902   133.08365142   318.50306270
 H     36  31  29     1.079439669458   126.61599965   178.98859863
 H     38  30  73     1.083742127999   118.77264435   359.90091293
 H     42   2   1     1.082178358682   119.31790784     1.35582650
 H     43  41  15     1.080281907652   126.36969097   182.06329380
 H     45  44  42     1.083277434455   121.10105945   179.58025624
 H     46  45  44     1.082194529648   122.72144639   179.46906377
 H     47  42   2     1.091546151109   106.65128841   315.16475048
 H     47  42   2     1.088818625851   132.46019523    94.52397119
 H     47  42   2     1.089531091801    83.63838232   206.04504406
 H     48  43  41     1.080402239909   127.23657387   181.62955349
 H     50  42   2     1.083186502870   118.77001737    94.71359229

---------------------------
INTERNAL COORDINATES (A.U.)
---------------------------
 C      0   0   0     0.000000000000     0.00000000     0.00000000
 C      1   0   0    11.162403847803     0.00000000     0.00000000
 C      1   2   0     4.561516280713    38.13161126     0.00000000
 C      3   1   2     2.652794558343    87.92849947   105.84217996
 C      4   3   1     2.608099346840   120.12294326     0.10721860
 C      5   4   3     4.625720328748   152.54904453     1.65915778
 C      2   1   3     2.585360837309    13.12133863   332.80164395
 C      7   2   3     2.710026725231   108.05010202     0.84668783
 C      2   1   3     2.710100516721   114.21631715    38.01838356
 C      1   2   3     2.611650058797    40.24276384   311.44668296
 N      1   2   3     2.555882365521   100.11188881    77.80415573
 N      9   2   1     2.600503484979   106.58526707   346.70542987
 N     12   9   2     5.527566200405   168.53581413   171.12065651
 N     13  12   9     5.583221047236    91.55032014    11.12112580
 N     14  13  12     5.528150518591    88.43092389   359.84326247
 C      8   7   2     2.654668413270   127.24786865   181.11170171
 C     13  12   9     2.582376967257    81.72106996   188.00453233
 C     14  13  12    10.882574804710    80.56209567   166.76250791
 C     17  13  12     2.757130505230   111.08861209   183.82872609
 C     18  14  13     4.558465206823    27.27532823    36.33507194
 C     20  18  14     2.650705180609    87.95206320   148.94598259
 C     21  20  18     2.611803198586   120.14573887   359.70382047
 C     18  14  13     4.623235745386   144.15733107    82.80075377
 C     19  17  13     2.557953565794   106.29293361   359.75308708
 C     13  12   9     2.582903091751   172.21332906    33.46711076
 C     18  14  13     2.609636529225    15.08449437   309.23336894
 N     22  21  20     2.556370638369   120.73759875     0.27865223
 C     25  13  17     2.666210041769   125.60330303   182.37774668
 C     14  13  12     2.601476916169    80.24689249   177.85461986
 C     14  13  12    10.892550769017   164.51507311   312.20821879
 C     29  14  13     2.712892575415   106.58649366   178.76395472
 C     30  14  13     4.560507835333    27.10625047    82.12560436
 C     32  30  14     2.652673401891    87.90059683   149.76154742
 C     33  32  30     2.609133588376   120.14881443   359.74174632
 C     34  33  32     4.627519515267   152.49203239     2.45173620
 C     31  29  14     2.585449236669   108.16950133     0.70383075
 C     14  13  12     2.600716325456   169.26375223   353.09862627
 C     30  14  13     2.609536633043    14.68948582   353.70041132
 N     34  33  32     2.556154803934   120.85575621     0.19603406
 C     37  14  29     2.654530526499   126.01551127   180.90772073
 C     15  14  13     2.582293994346    81.61824056   183.09049352
 C      2   1   3     8.029564866989   144.96244214   160.60053604
 C     41  15  14     2.758391104639   111.05201287   175.08990246
 C     42   2   1     4.559821839776    41.78584867   206.67285775
 C     44  42   2     2.652129475853    87.95153797   233.97558675
 C     45  44  42     2.611027836043   120.11137308     0.19721020
 C     42   2   1     4.629866436820   135.97209175   116.98770685
 C     43  41  15     2.559561325344   106.26758155     0.30894352
 C     15  14  13     2.584127074516   171.87382904   332.35056460
 C     42   2   1     2.611386828803    32.59078432   255.52813694
 C      9   2   1     2.655043698059   126.98745415   167.70976740
 N     42   2   1     2.556355970587   113.57249190   144.72429604
 H      1   2   3     2.045290499824   128.08039371   213.71191658
 H      2   1   3     2.040730117440   119.48008430   206.57300954
 H      4   3   1     2.046986902440   121.06412791   179.55857761
 H      5   4   3     2.046256679274   122.82908754   179.46456404
 H      6   5   4     2.064988235125   104.45788659   100.08955914
 H      6   5   4     2.058724580672    84.67190296   209.52988042
 H      6   5   4     2.059154716682   133.91528458   322.35742743
 H      7   2  54     2.040541119952   126.66122480     1.30600390
 H     10   1   2     2.047954025288   118.71850953   248.17108761
 H     12   9   2     1.920524309565   125.29023241   180.00180175
 H     14  13  12     1.917952867083    44.97226959   359.42596618
 H     18  14  13     2.046330847636   128.03556573   234.20482432
 H     19  17  13     2.042592906181   126.41830519   178.11313280
 H     21  20  18     2.047649722989   121.05669627   180.67006309
 H     22  21  20     2.045596898814   122.73097286   180.59748951
 H     23  18  14     2.063779938267   103.92715769   234.93429879
 H     23  18  14     2.057669673245   134.19244188    12.25587044
 H     23  18  14     2.059486796529    84.85857450   125.45241208
 H     24  19  17     2.041046823986   127.28078426   178.44613241
 H     26  18  14     2.047344503340   118.76995697   244.94906660
 H     30  14  13     2.046012340948   127.99711412   279.66882698
 H     31  29  14     2.040450114918   125.22293469   180.92530585
 H     33  32  30     2.046930203877   121.01964473   180.74284758
 H     34  33  32     2.045617847496   122.70821597   180.59516895
 H     35  34  33     2.064814429233   105.73575241    97.19771933
 H     35  34  33     2.058786158072    84.05943581   206.43036958
 H     35  34  33     2.058418400901   133.08365142   318.50306270
 H     36  31  29     2.039845353366   126.61599965   178.98859863
 H     38  30  73     2.047975821711   118.77264435   359.90091293
 H     42   2   1     2.045020725966   119.31790784     1.35582650
 H     43  41  15     2.041436952892   126.36969097   182.06329380
 H     45  44  42     2.047097678177   121.10105945   179.58025624
 H     46  45  44     2.045051284662   122.72144639   179.46906377
 H     47  42   2     2.062723288131   106.65128841   315.16475048
 H     47  42   2     2.057569012371   132.46019523    94.52397119
 H     47  42   2     2.058915377895    83.63838232   206.04504406
 H     48  43  41     2.041664347903   127.23657387   181.62955349
 H     50  42   2     2.046925842384   118.77001737    94.71359229

---------------------
BASIS SET INFORMATION
---------------------
There are 3 groups of distinct atoms

 Group   1 Type C   : 17s4p1d contracted to 3s2p1d pattern {881/31/1}
 Group   2 Type N   : 17s4p1d contracted to 3s2p1d pattern {881/31/1}
 Group   3 Type H   : 4s1p contracted to 2s1p pattern {31/1}

Atom   0C    basis set group =>   1
Atom   1N    basis set group =>   2
Atom   2C    basis set group =>   1
Atom   3N    basis set group =>   2
Atom   4C    basis set group =>   1
Atom   5N    basis set group =>   2
Atom   6C    basis set group =>   1
Atom   7N    basis set group =>   2
Atom   8C    basis set group =>   1
Atom   9N    basis set group =>   2
Atom  10C    basis set group =>   1
Atom  11N    basis set group =>   2
Atom  12C    basis set group =>   1
Atom  13N    basis set group =>   2
Atom  14C    basis set group =>   1
Atom  15N    basis set group =>   2
Atom  16C    basis set group =>   1
Atom  17C    basis set group =>   1
Atom  18C    basis set group =>   1
Atom  19C    basis set group =>   1
Atom  20C    basis set group =>   1
Atom  21C    basis set group =>   1
Atom  22C    basis set group =>   1
Atom  23C    basis set group =>   1
Atom  24C    basis set group =>   1
Atom  25C    basis set group =>   1
Atom  26C    basis set group =>   1
Atom  27C    basis set group =>   1
Atom  28C    basis set group =>   1
Atom  29C    basis set group =>   1
Atom  30C    basis set group =>   1
Atom  31C    basis set group =>   1
Atom  32C    basis set group =>   1
Atom  33C    basis set group =>   1
Atom  34C    basis set group =>   1
Atom  35C    basis set group =>   1
Atom  36C    basis set group =>   1
Atom  37C    basis set group =>   1
Atom  38C    basis set group =>   1
Atom  39C    basis set group =>   1
Atom  40C    basis set group =>   1
Atom  41C    basis set group =>   1
Atom  42C    basis set group =>   1
Atom  43C    basis set group =>   1
Atom  44C    basis set group =>   1
Atom  45C    basis set group =>   1
Atom  46C    basis set group =>   1
Atom  47C    basis set group =>   1
Atom  48C    basis set group =>   1
Atom  49C    basis set group =>   1
Atom  50C    basis set group =>   1
Atom  51C    basis set group =>   1
Atom  52H    basis set group =>   3
Atom  53H    basis set group =>   3
Atom  54H    basis set group =>   3
Atom  55H    basis set group =>   3
Atom  56H    basis set group =>   3
Atom  57H    basis set group =>   3
Atom  58H    basis set group =>   3
Atom  59H    basis set group =>   3
Atom  60H    basis set group =>   3
Atom  61H    basis set group =>   3
Atom  62H    basis set group =>   3
Atom  63H    basis set group =>   3
Atom  64H    basis set group =>   3
Atom  65H    basis set group =>   3
Atom  66H    basis set group =>   3
Atom  67H    basis set group =>   3
Atom  68H    basis set group =>   3
Atom  69H    basis set group =>   3
Atom  70H    basis set group =>   3
Atom  71H    basis set group =>   3
Atom  72H    basis set group =>   3
Atom  73H    basis set group =>   3
Atom  74H    basis set group =>   3
Atom  75H    basis set group =>   3
Atom  76H    basis set group =>   3
Atom  77H    basis set group =>   3
Atom  78H    basis set group =>   3
Atom  79H    basis set group =>   3
Atom  80H    basis set group =>   3
Atom  81H    basis set group =>   3
Atom  82H    basis set group =>   3
Atom  83H    basis set group =>   3
Atom  84H    basis set group =>   3
Atom  85H    basis set group =>   3
Atom  86H    basis set group =>   3
Atom  87H    basis set group =>   3
Atom  88H    basis set group =>   3
Atom  89H    basis set group =>   3


           ************************************************************
           *        Program running with 16 parallel MPI-processes    *
           *              working on a common directory               *
           ************************************************************
------------------------------------------------------------------------------
                           ORCA GTO INTEGRAL CALCULATION
------------------------------------------------------------------------------
------------------------------------------------------------------------------
                   ___                                                        
                  /   \      - P O W E R E D   B Y -                         
                 /     \                                                     
                 |  |  |   _    _      __       _____    __    __             
                 |  |  |  | |  | |    /  \     |  _  \  |  |  /  |          
                  \  \/   | |  | |   /    \    | | | |  |  | /  /          
                 / \  \   | |__| |  /  /\  \   | |_| |  |  |/  /          
                |  |  |   |  __  | /  /__\  \  |    /   |      \           
                |  |  |   | |  | | |   __   |  |    \   |  |\   \          
                \     /   | |  | | |  |  |  |  | |\  \  |  | \   \       
                 \___/    |_|  |_| |__|  |__|  |_| \__\ |__|  \__/        
                                                                              
                      - O R C A' S   B I G   F R I E N D -                    
                                      &                                       
                       - I N T E G R A L  F E E D E R -                       
                                                                              
 v1 FN, 2020, v2 2021                                                         
------------------------------------------------------------------------------


Reading SHARK input file /scratch/allen/tmpyp4_amber_gaff2/conf1/conf1/Conf95.orca.SHARKINP.tmp ... ok
----------------------
SHARK INTEGRAL PACKAGE
----------------------

Number of atoms                             ...     90
Number of basis functions                   ...   1230
Number of shells                            ...    738
Maximum angular momentum                    ...      2
Integral batch strategy                     ... SHARK/LIBINT Hybrid
RI-J (if used) integral strategy            ... SPLIT-RIJ (Revised 2003 algorithm where possible)
Printlevel                                  ...      1
Contraction scheme used                     ... PARTIAL GENERAL contraction
Coulomb Range Separation                    ... NOT USED
Exchange Range Separation                   ... NOT USED
Finite Nucleus Model                        ... NOT USED
Auxiliary Coulomb fitting basis             ... NOT available
Auxiliary J/K fitting basis                 ... NOT available
Auxiliary Correlation fitting basis         ... NOT available
Auxiliary 'external' fitting basis          ... NOT available
Integral threshold                          ...     2.500000e-11
Primitive cut-off                           ...     2.500000e-12
Primitive pair pre-selection threshold      ...     2.500000e-12

Calculating pre-screening integrals         ... done (  0.1 sec) Dimension = 738
Calculating pre-screening integrals (ORCA)  ... done (  0.3 sec) Dimension = 426
Organizing shell pair data                  ... done (  0.5 sec)
Shell pair information
Total number of shell pairs                 ...    272691
Shell pairs after pre-screening             ...     71619
Total number of primitive shell pairs       ...    422091
Primitive shell pairs kept                  ...     92358
          la=0 lb=0:  29421 shell pairs
          la=1 lb=0:  25963 shell pairs
          la=1 lb=1:   4690 shell pairs
          la=2 lb=0:   7899 shell pairs
          la=2 lb=1:   3116 shell pairs
          la=2 lb=2:    530 shell pairs

Calculating one electron integrals          ... done (  0.2 sec)
Calculating Nuclear repulsion               ... done (  0.0 sec) ENN=   6221.872483774408 Eh

SHARK setup successfully completed in   1.7 seconds

Maximum memory used throughout the entire GTOINT-calculation: 98.9 MB


           ************************************************************
           *        Program running with 16 parallel MPI-processes    *
           *              working on a common directory               *
           ************************************************************
-------------------------------------------------------------------------------
                                 ORCA SCF
-------------------------------------------------------------------------------

------------
SCF SETTINGS
------------
Hamiltonian:
 Ab initio Hamiltonian  Method          .... Hartree-Fock(GTOs)


General Settings:
 Integral files         IntName         .... /scratch/allen/tmpyp4_amber_gaff2/conf1/conf1/Conf95.orca
 Hartree-Fock type      HFTyp           .... RHF
 Total Charge           Charge          ....    0
 Multiplicity           Mult            ....    1
 Number of Electrons    NEL             ....  358
 Basis Dimension        Dim             ....  918
 Nuclear Repulsion      ENuc            ....   6221.8724837744 Eh

Convergence Acceleration:
 DIIS                   CNVDIIS         .... on
   Start iteration      DIISMaxIt       ....    12
   Startup error        DIISStart       ....  0.200000
   # of expansion vecs  DIISMaxEq       ....     5
   Bias factor          DIISBfac        ....   1.050
   Max. coefficient     DIISMaxC        ....  10.000
 Trust-Rad. Augm. Hess. CNVTRAH         .... auto
   Auto Start mean grad. ratio tolernc. ....  1.125000
   Auto Start start iteration           ....    20
   Auto Start num. interpolation iter.  ....    10
   Max. Number of Micro iterations      ....    16
   Max. Number of Macro iterations      .... Maxiter - #DIIS iter
   Number of Davidson start vectors     ....     2
   Converg. threshold I  (grad. norm)   ....   1.000e-05
   Converg. threshold II (energy diff.) ....   1.000e-08
   Grad. Scal. Fac. for Micro threshold ....   0.100
   Minimum threshold for Micro iter.    ....   0.010
   NR start threshold (gradient norm)   ....   0.001
   Initial trust radius                 ....   0.400
   Minimum AH scaling param. (alpha)    ....   1.000
   Maximum AH scaling param. (alpha)    .... 1000.000
   Orbital update algorithm             .... Taylor
   White noise on init. David. guess    .... on
   Maximum white noise                  ....   0.010
   Quad. conv. algorithm                .... NR
 SOSCF                  CNVSOSCF        .... on
   Start iteration      SOSCFMaxIt      ....   150
   Startup grad/error   SOSCFStart      ....  0.003300
 Level Shifting         CNVShift        .... on
   Level shift para.    LevelShift      ....    0.2500
   Turn off err/grad.   ShiftErr        ....    0.0010
 Zerner damping         CNVZerner       .... off
 Static damping         CNVDamp         .... on
   Fraction old density DampFac         ....    0.7000
   Max. Damping (<1)    DampMax         ....    0.9800
   Min. Damping (>=0)   DampMin         ....    0.0000
   Turn off err/grad.   DampErr         ....    0.1000
 Fernandez-Rico         CNVRico         .... off

SCF Procedure:
 Maximum # iterations   MaxIter         ....   125
 SCF integral mode      SCFMode         .... Direct
   Integral package                     .... SHARK and LIBINT hybrid scheme
 Reset frequency        DirectResetFreq ....    20
 Integral Threshold     Thresh          ....  2.500e-11 Eh
 Primitive CutOff       TCut            ....  2.500e-12 Eh

Convergence Tolerance:
 Convergence Check Mode ConvCheckMode   .... Total+1el-Energy
 Convergence forced     ConvForced      .... 1
 Energy Change          TolE            ....  1.000e-08 Eh
 1-El. energy change                    ....  1.000e-05 Eh
 Orbital Gradient       TolG            ....  1.000e-05
 Orbital Rotation angle TolX            ....  1.000e-05
 DIIS Error             TolErr          ....  5.000e-07


Diagonalization of the overlap matrix:
Smallest eigenvalue                        ... 2.264e-04
Time for diagonalization                   ...    0.367 sec
Threshold for overlap eigenvalues          ... 1.000e-08
Number of eigenvalues below threshold      ... 0
Time for construction of square roots      ...    0.195 sec
Total time needed                          ...    0.568 sec

Time for model grid setup =    1.006 sec

------------------------------
INITIAL GUESS: MODEL POTENTIAL
------------------------------
Loading Hartree-Fock densities                     ... done
Calculating cut-offs                               ... done
Initializing the effective Hamiltonian             ... done
Setting up the integral package (SHARK)            ... done
Starting the Coulomb interaction                   ... done (   1.1 sec)
Reading the grid                                   ... done
Mapping shells                                     ... done
Starting the XC term evaluation                    ... done (   0.2 sec)
Transforming the Hamiltonian                       ... done (   0.2 sec)
Diagonalizing the Hamiltonian                      ... done (   0.3 sec)
Back transforming the eigenvectors                 ... done (   0.1 sec)
Now organizing SCF variables                       ... done
                      ------------------
                      INITIAL GUESS DONE (   2.9 sec)
                      ------------------
--------------
SCF ITERATIONS
--------------
ITER       Energy         Delta-E        Max-DP      RMS-DP      [F,P]     Damp
               ***  Starting incremental Fock matrix formation  ***
  0  -2121.6418541484   0.000000000000 0.06933785  0.00121185  0.2351016 0.7000
  1  -2122.3108919646  -0.669037816195 0.05271281  0.00098184  0.1454363 0.7000
                               ***Turning on DIIS***
  2  -2122.7270852969  -0.416193332272 0.11735999  0.00221919  0.0807456 0.0000
  3  -2117.7602081957   4.966877101191 0.03464829  0.00068559  0.0442735 0.0000
  4  -2123.4118966026  -5.651688406921 0.00930481  0.00023051  0.0073687 0.0000
  5  -2123.5807965431  -0.168899940521 0.00543947  0.00013865  0.0051581 0.0000
  6  -2123.5598986001   0.020897943070 0.00459693  0.00009482  0.0024499 0.0000
  7  -2123.6642974312  -0.104398831085 0.00411852  0.00007989  0.0019319 0.0000
  8  -2123.6922592802  -0.027961849069 0.00400745  0.00008136  0.0018189 0.0000
                      *** Initiating the SOSCF procedure ***
                           *** Shutting down DIIS ***
                      *** Re-Reading the Fockian *** 
                      *** Removing any level shift *** 
ITER      Energy       Delta-E        Grad      Rot      Max-DP    RMS-DP
  9  -2123.65107935   0.0411799259  0.003056  0.003056  0.002956  0.000060
               *** Restarting incremental Fock matrix formation ***
 10  -2123.60807946   0.0429998930  0.002133  0.020422  0.006037  0.000100
 11  -2123.60873914  -0.0006596817  0.001390  0.068566  0.017383  0.000330
 12  -2123.60988258  -0.0011434366  0.001080  0.015634  0.005486  0.000081
 13  -2123.61018754  -0.0003049642  0.000839  0.018398  0.006033  0.000100
 14  -2123.61041120  -0.0002236589  0.000497  0.014207  0.004061  0.000057
 15  -2123.61050055  -0.0000893494  0.000341  0.014515  0.003633  0.000059
 16  -2123.61056588  -0.0000653257  0.000356  0.009011  0.001778  0.000032
 17  -2123.61059098  -0.0000251058  0.000189  0.002556  0.000740  0.000012
 18  -2123.61059813  -0.0000071505  0.000148  0.002826  0.000531  0.000010
 19  -2123.61060207  -0.0000039331  0.000102  0.003403  0.000585  0.000011
 20  -2123.61060498  -0.0000029089  0.000077  0.004630  0.000772  0.000014
 21  -2123.61060727  -0.0000022955  0.000058  0.003521  0.000642  0.000011
 22  -2123.61060858  -0.0000013115  0.000042  0.002071  0.000405  0.000007
 23  -2123.61060922  -0.0000006356  0.000037  0.000993  0.000299  0.000004
 24  -2123.61060958  -0.0000003588  0.000033  0.000947  0.000272  0.000004
 25  -2123.61060982  -0.0000002419  0.000024  0.000964  0.000271  0.000004
 26  -2123.61060998  -0.0000001601  0.000015  0.000635  0.000189  0.000003
 27  -2123.61061007  -0.0000000879  0.000011  0.000256  0.000076  0.000001
 28  -2123.61061010  -0.0000000368  0.000006  0.000051  0.000021  0.000000
 29  -2123.61061011  -0.0000000094  0.000004  0.000024  0.000009  0.000000
               *** Restarting incremental Fock matrix formation ***
                  ***Gradient check signals convergence***
              ***Rediagonalizing the Fockian in SOSCF/NRSCF***

               *****************************************************
               *                     SUCCESS                       *
               *           SCF CONVERGED AFTER  30 CYCLES          *
               *****************************************************


----------------
TOTAL SCF ENERGY
----------------

Total Energy       :        -2123.61061007 Eh          -57786.38250 eV

Components:
Nuclear Repulsion  :         6221.87248377 Eh          169305.75762 eV
Electronic Energy  :        -8345.48309385 Eh         -227092.14012 eV
One Electron Energy:       -15285.23791821 Eh         -415932.46935 eV
Two Electron Energy:         6939.75482436 Eh          188840.32923 eV

Virial components:
Potential Energy   :        -4245.59395192 Eh         -115528.48479 eV
Kinetic Energy     :         2121.98334185 Eh           57742.10228 eV
Virial Ratio       :            2.00076686


---------------
SCF CONVERGENCE
---------------

  Last Energy change         ...    3.8805e-08  Tolerance :   1.0000e-08
  Last MAX-Density change    ...    8.9861e-06  Tolerance :   1.0000e-07
  Last RMS-Density change    ...    1.5035e-07  Tolerance :   5.0000e-09
  Last Orbital Gradient      ...    1.7037e-06  Tolerance :   1.0000e-05
  Last Orbital Rotation      ...    3.1932e-05  Tolerance :   1.0000e-05

             **** THE GBW FILE WAS UPDATED (/scratch/allen/tmpyp4_amber_gaff2/conf1/conf1/Conf95.orca.gbw) ****
             **** DENSITY /scratch/allen/tmpyp4_amber_gaff2/conf1/conf1/Conf95.orca.scfp WAS UPDATED ****
             **** ENERGY FILE WAS UPDATED (/scratch/allen/tmpyp4_amber_gaff2/conf1/conf1/Conf95.orca.en.tmp) ****
             **** THE GBW FILE WAS UPDATED (/scratch/allen/tmpyp4_amber_gaff2/conf1/conf1/Conf95.orca.gbw) ****
             **** DENSITY /scratch/allen/tmpyp4_amber_gaff2/conf1/conf1/Conf95.orca.scfp WAS UPDATED ****
----------------
ORBITAL ENERGIES
----------------

  NO   OCC          E(Eh)            E(eV) 
   0   2.0000     -15.717503      -427.6950 
   1   2.0000     -15.629064      -425.2885 
   2   2.0000     -15.618628      -425.0045 
   3   2.0000     -15.577756      -423.8923 
   4   2.0000     -15.520389      -422.3313 
   5   2.0000     -15.504485      -421.8985 
   6   2.0000     -15.451222      -420.4491 
   7   2.0000     -15.426988      -419.7897 
   8   2.0000     -11.356123      -309.0158 
   9   2.0000     -11.354265      -308.9653 
  10   2.0000     -11.348809      -308.8168 
  11   2.0000     -11.311462      -307.8005 
  12   2.0000     -11.296728      -307.3996 
  13   2.0000     -11.291060      -307.2454 
  14   2.0000     -11.289628      -307.2064 
  15   2.0000     -11.285118      -307.0837 
  16   2.0000     -11.285009      -307.0807 
  17   2.0000     -11.281396      -306.9824 
  18   2.0000     -11.280985      -306.9712 
  19   2.0000     -11.271456      -306.7119 
  20   2.0000     -11.263915      -306.5067 
  21   2.0000     -11.244157      -305.9691 
  22   2.0000     -11.240389      -305.8665 
  23   2.0000     -11.232796      -305.6599 
  24   2.0000     -11.227202      -305.5077 
  25   2.0000     -11.226306      -305.4833 
  26   2.0000     -11.222928      -305.3914 
  27   2.0000     -11.218910      -305.2821 
  28   2.0000     -11.218628      -305.2744 
  29   2.0000     -11.210592      -305.0557 
  30   2.0000     -11.208947      -305.0110 
  31   2.0000     -11.194820      -304.6265 
  32   2.0000     -11.193621      -304.5939 
  33   2.0000     -11.192681      -304.5683 
  34   2.0000     -11.189112      -304.4712 
  35   2.0000     -11.188354      -304.4506 
  36   2.0000     -11.184285      -304.3399 
  37   2.0000     -11.180428      -304.2349 
  38   2.0000     -11.180258      -304.2303 
  39   2.0000     -11.177172      -304.1463 
  40   2.0000     -11.169562      -303.9392 
  41   2.0000     -11.165086      -303.8174 
  42   2.0000     -11.164742      -303.8081 
  43   2.0000     -11.161466      -303.7189 
  44   2.0000     -11.160419      -303.6904 
  45   2.0000     -11.144852      -303.2668 
  46   2.0000     -11.144204      -303.2492 
  47   2.0000     -11.141305      -303.1703 
  48   2.0000     -11.137964      -303.0794 
  49   2.0000     -11.131524      -302.9042 
  50   2.0000     -11.116803      -302.5036 
  51   2.0000     -11.111311      -302.3541 
  52   2.0000      -1.389699       -37.8156 
  53   2.0000      -1.317217       -35.8433 
  54   2.0000      -1.307622       -35.5822 
  55   2.0000      -1.272868       -34.6365 
  56   2.0000      -1.224016       -33.3072 
  57   2.0000      -1.200611       -32.6703 
  58   2.0000      -1.177567       -32.0432 
  59   2.0000      -1.163781       -31.6681 
  60   2.0000      -1.137047       -30.9406 
  61   2.0000      -1.107697       -30.1420 
  62   2.0000      -1.106457       -30.1082 
  63   2.0000      -1.097351       -29.8604 
  64   2.0000      -1.066908       -29.0320 
  65   2.0000      -1.056186       -28.7403 
  66   2.0000      -1.041641       -28.3445 
  67   2.0000      -1.032550       -28.0971 
  68   2.0000      -1.014998       -27.6195 
  69   2.0000      -1.004014       -27.3206 
  70   2.0000      -1.000018       -27.2119 
  71   2.0000      -0.994431       -27.0598 
  72   2.0000      -0.985204       -26.8088 
  73   2.0000      -0.976560       -26.5735 
  74   2.0000      -0.964159       -26.2361 
  75   2.0000      -0.961804       -26.1720 
  76   2.0000      -0.950899       -25.8753 
  77   2.0000      -0.940588       -25.5947 
  78   2.0000      -0.933606       -25.4047 
  79   2.0000      -0.919921       -25.0323 
  80   2.0000      -0.912531       -24.8312 
  81   2.0000      -0.890630       -24.2353 
  82   2.0000      -0.886239       -24.1158 
  83   2.0000      -0.868688       -23.6382 
  84   2.0000      -0.860052       -23.4032 
  85   2.0000      -0.846720       -23.0404 
  86   2.0000      -0.829271       -22.5656 
  87   2.0000      -0.827072       -22.5058 
  88   2.0000      -0.820364       -22.3232 
  89   2.0000      -0.794403       -21.6168 
  90   2.0000      -0.785987       -21.3878 
  91   2.0000      -0.771148       -20.9840 
  92   2.0000      -0.738561       -20.0973 
  93   2.0000      -0.733503       -19.9596 
  94   2.0000      -0.728583       -19.8258 
  95   2.0000      -0.723511       -19.6877 
  96   2.0000      -0.716428       -19.4950 
  97   2.0000      -0.708539       -19.2803 
  98   2.0000      -0.707090       -19.2409 
  99   2.0000      -0.704106       -19.1597 
 100   2.0000      -0.695743       -18.9321 
 101   2.0000      -0.688380       -18.7318 
 102   2.0000      -0.684235       -18.6190 
 103   2.0000      -0.675263       -18.3748 
 104   2.0000      -0.672776       -18.3072 
 105   2.0000      -0.669689       -18.2232 
 106   2.0000      -0.667064       -18.1517 
 107   2.0000      -0.662048       -18.0153 
 108   2.0000      -0.652235       -17.7482 
 109   2.0000      -0.649201       -17.6657 
 110   2.0000      -0.648392       -17.6436 
 111   2.0000      -0.642071       -17.4716 
 112   2.0000      -0.640378       -17.4256 
 113   2.0000      -0.634420       -17.2634 
 114   2.0000      -0.633292       -17.2328 
 115   2.0000      -0.629591       -17.1320 
 116   2.0000      -0.626966       -17.0606 
 117   2.0000      -0.615508       -16.7488 
 118   2.0000      -0.610969       -16.6253 
 119   2.0000      -0.609352       -16.5813 
 120   2.0000      -0.608721       -16.5642 
 121   2.0000      -0.600720       -16.3464 
 122   2.0000      -0.591127       -16.0854 
 123   2.0000      -0.589350       -16.0370 
 124   2.0000      -0.584326       -15.9003 
 125   2.0000      -0.578488       -15.7415 
 126   2.0000      -0.575035       -15.6475 
 127   2.0000      -0.570812       -15.5326 
 128   2.0000      -0.570680       -15.5290 
 129   2.0000      -0.569373       -15.4934 
 130   2.0000      -0.556353       -15.1391 
 131   2.0000      -0.543742       -14.7960 
 132   2.0000      -0.541747       -14.7417 
 133   2.0000      -0.538813       -14.6618 
 134   2.0000      -0.533579       -14.5194 
 135   2.0000      -0.529327       -14.4037 
 136   2.0000      -0.519122       -14.1260 
 137   2.0000      -0.515738       -14.0339 
 138   2.0000      -0.513384       -13.9699 
 139   2.0000      -0.512525       -13.9465 
 140   2.0000      -0.509946       -13.8763 
 141   2.0000      -0.503158       -13.6916 
 142   2.0000      -0.501241       -13.6394 
 143   2.0000      -0.497721       -13.5437 
 144   2.0000      -0.495211       -13.4754 
 145   2.0000      -0.493121       -13.4185 
 146   2.0000      -0.488829       -13.3017 
 147   2.0000      -0.473711       -12.8903 
 148   2.0000      -0.470713       -12.8088 
 149   2.0000      -0.465781       -12.6746 
 150   2.0000      -0.462571       -12.5872 
 151   2.0000      -0.460150       -12.5213 
 152   2.0000      -0.451892       -12.2966 
 153   2.0000      -0.440976       -11.9996 
 154   2.0000      -0.432977       -11.7819 
 155   2.0000      -0.431243       -11.7347 
 156   2.0000      -0.418242       -11.3809 
 157   2.0000      -0.416347       -11.3294 
 158   2.0000      -0.411462       -11.1965 
 159   2.0000      -0.408558       -11.1174 
 160   2.0000      -0.381713       -10.3869 
 161   2.0000      -0.369425       -10.0526 
 162   2.0000      -0.353666        -9.6238 
 163   2.0000      -0.351954        -9.5772 
 164   2.0000      -0.345666        -9.4060 
 165   2.0000      -0.341447        -9.2912 
 166   2.0000      -0.338142        -9.2013 
 167   2.0000      -0.317769        -8.6469 
 168   2.0000      -0.312088        -8.4924 
 169   2.0000      -0.304434        -8.2841 
 170   2.0000      -0.298157        -8.1133 
 171   2.0000      -0.282537        -7.6882 
 172   2.0000      -0.275889        -7.5073 
 173   2.0000      -0.266357        -7.2479 
 174   2.0000      -0.229164        -6.2359 
 175   2.0000      -0.183069        -4.9816 
 176   2.0000      -0.173221        -4.7136 
 177   2.0000      -0.062549        -1.7020 
 178   2.0000      -0.050842        -1.3835 
 179   0.0000       0.035932         0.9778 
 180   0.0000       0.054905         1.4940 
 181   0.0000       0.075091         2.0433 
 182   0.0000       0.098582         2.6826 
 183   0.0000       0.102238         2.7820 
 184   0.0000       0.124318         3.3829 
 185   0.0000       0.141054         3.8383 
 186   0.0000       0.149113         4.0576 
 187   0.0000       0.161641         4.3985 
 188   0.0000       0.166033         4.5180 
 189   0.0000       0.167020         4.5449 
 190   0.0000       0.167501         4.5579 
 191   0.0000       0.173192         4.7128 
 192   0.0000       0.179478         4.8838 
 193   0.0000       0.195162         5.3106 
 194   0.0000       0.201077         5.4716 
 195   0.0000       0.205713         5.5977 
 196   0.0000       0.211936         5.7671 
 197   0.0000       0.212485         5.7820 
 198   0.0000       0.217892         5.9291 
 199   0.0000       0.218339         5.9413 
 200   0.0000       0.230582         6.2745 
 201   0.0000       0.236218         6.4278 
 202   0.0000       0.238651         6.4940 
 203   0.0000       0.239331         6.5125 
 204   0.0000       0.241226         6.5641 
 205   0.0000       0.246052         6.6954 
 206   0.0000       0.248245         6.7551 
 207   0.0000       0.250103         6.8056 
 208   0.0000       0.251658         6.8480 
 209   0.0000       0.258219         7.0265 
 210   0.0000       0.263693         7.1755 
 211   0.0000       0.267124         7.2688 
 212   0.0000       0.267806         7.2874 
 213   0.0000       0.273887         7.4528 
 214   0.0000       0.278952         7.5907 
 215   0.0000       0.280862         7.6426 
 216   0.0000       0.283720         7.7204 
 217   0.0000       0.285257         7.7622 
 218   0.0000       0.287535         7.8242 
 219   0.0000       0.289194         7.8694 
 220   0.0000       0.290481         7.9044 
 221   0.0000       0.294434         8.0120 
 222   0.0000       0.298930         8.1343 
 223   0.0000       0.299535         8.1508 
 224   0.0000       0.300369         8.1735 
 225   0.0000       0.305364         8.3094 
 226   0.0000       0.306681         8.3452 
 227   0.0000       0.306753         8.3472 
 228   0.0000       0.317427         8.6376 
 229   0.0000       0.320161         8.7120 
 230   0.0000       0.327211         8.9039 
 231   0.0000       0.329861         8.9760 
 232   0.0000       0.332681         9.0527 
 233   0.0000       0.336299         9.1512 
 234   0.0000       0.340088         9.2543 
 235   0.0000       0.357006         9.7146 
 236   0.0000       0.358066         9.7435 
 237   0.0000       0.361451         9.8356 
 238   0.0000       0.375145        10.2082 
 239   0.0000       0.388551        10.5730 
 240   0.0000       0.395300        10.7567 
 241   0.0000       0.399103        10.8602 
 242   0.0000       0.408131        11.1058 
 243   0.0000       0.417740        11.3673 
 244   0.0000       0.423885        11.5345 
 245   0.0000       0.430261        11.7080 
 246   0.0000       0.436434        11.8760 
 247   0.0000       0.438500        11.9322 
 248   0.0000       0.443229        12.0609 
 249   0.0000       0.444827        12.1043 
 250   0.0000       0.451801        12.2941 
 251   0.0000       0.456155        12.4126 
 252   0.0000       0.458838        12.4856 
 253   0.0000       0.468915        12.7598 
 254   0.0000       0.470864        12.8129 
 255   0.0000       0.476426        12.9642 
 256   0.0000       0.478956        13.0331 
 257   0.0000       0.483295        13.1511 
 258   0.0000       0.485837        13.2203 
 259   0.0000       0.493436        13.4271 
 260   0.0000       0.501678        13.6513 
 261   0.0000       0.504036        13.7155 
 262   0.0000       0.507271        13.8035 
 263   0.0000       0.509261        13.8577 
 264   0.0000       0.511827        13.9275 
 265   0.0000       0.516867        14.0647 
 266   0.0000       0.520483        14.1631 
 267   0.0000       0.525123        14.2893 
 268   0.0000       0.531816        14.4714 
 269   0.0000       0.540200        14.6996 
 270   0.0000       0.543641        14.7932 
 271   0.0000       0.545063        14.8319 
 272   0.0000       0.546347        14.8669 
 273   0.0000       0.548882        14.9358 
 274   0.0000       0.552960        15.0468 
 275   0.0000       0.560236        15.2448 
 276   0.0000       0.568289        15.4639 
 277   0.0000       0.571687        15.5564 
 278   0.0000       0.578236        15.7346 
 279   0.0000       0.585812        15.9407 
 280   0.0000       0.588333        16.0093 
 281   0.0000       0.593668        16.1545 
 282   0.0000       0.597154        16.2494 
 283   0.0000       0.598458        16.2849 
 284   0.0000       0.600693        16.3457 
 285   0.0000       0.602893        16.4055 
 286   0.0000       0.604952        16.4616 
 287   0.0000       0.609157        16.5760 
 288   0.0000       0.613418        16.6920 
 289   0.0000       0.618319        16.8253 
 290   0.0000       0.625403        17.0181 
 291   0.0000       0.630348        17.1526 
 292   0.0000       0.632592        17.2137 
 293   0.0000       0.637535        17.3482 
 294   0.0000       0.641679        17.4610 
 295   0.0000       0.647280        17.6134 
 296   0.0000       0.649301        17.6684 
 297   0.0000       0.655281        17.8311 
 298   0.0000       0.660569        17.9750 
 299   0.0000       0.662567        18.0294 
 300   0.0000       0.664791        18.0899 
 301   0.0000       0.668431        18.1889 
 302   0.0000       0.669267        18.2117 
 303   0.0000       0.674550        18.3554 
 304   0.0000       0.677928        18.4474 
 305   0.0000       0.679778        18.4977 
 306   0.0000       0.683508        18.5992 
 307   0.0000       0.686615        18.6837 
 308   0.0000       0.691545        18.8179 
 309   0.0000       0.694180        18.8896 
 310   0.0000       0.698663        19.0116 
 311   0.0000       0.702130        19.1059 
 312   0.0000       0.704604        19.1732 
 313   0.0000       0.707079        19.2406 
 314   0.0000       0.713486        19.4149 
 315   0.0000       0.714801        19.4507 
 316   0.0000       0.715487        19.4694 
 317   0.0000       0.717277        19.5181 
 318   0.0000       0.719320        19.5737 
 319   0.0000       0.722816        19.6688 
 320   0.0000       0.725872        19.7520 
 321   0.0000       0.729100        19.8398 
 322   0.0000       0.731690        19.9103 
 323   0.0000       0.737947        20.0806 
 324   0.0000       0.739346        20.1186 
 325   0.0000       0.742665        20.2089 
 326   0.0000       0.744149        20.2493 
 327   0.0000       0.749123        20.3847 
 328   0.0000       0.752662        20.4810 
 329   0.0000       0.754953        20.5433 
 330   0.0000       0.757908        20.6237 
 331   0.0000       0.761776        20.7290 
 332   0.0000       0.762735        20.7551 
 333   0.0000       0.765057        20.8183 
 334   0.0000       0.766882        20.8679 
 335   0.0000       0.768359        20.9081 
 336   0.0000       0.770083        20.9550 
 337   0.0000       0.775219        21.0948 
 338   0.0000       0.782794        21.3009 
 339   0.0000       0.786192        21.3934 
 340   0.0000       0.790410        21.5082 
 341   0.0000       0.791478        21.5372 
 342   0.0000       0.793234        21.5850 
 343   0.0000       0.794757        21.6264 
 344   0.0000       0.797454        21.6998 
 345   0.0000       0.798282        21.7224 
 346   0.0000       0.804514        21.8919 
 347   0.0000       0.807029        21.9604 
 348   0.0000       0.812150        22.0997 
 349   0.0000       0.814525        22.1644 
 350   0.0000       0.817141        22.2355 
 351   0.0000       0.820090        22.3158 
 352   0.0000       0.824058        22.4238 
 353   0.0000       0.825894        22.4737 
 354   0.0000       0.827428        22.5155 
 355   0.0000       0.829582        22.5741 
 356   0.0000       0.831832        22.6353 
 357   0.0000       0.836811        22.7708 
 358   0.0000       0.839951        22.8562 
 359   0.0000       0.840774        22.8786 
 360   0.0000       0.845139        22.9974 
 361   0.0000       0.845601        23.0100 
 362   0.0000       0.849173        23.1072 
 363   0.0000       0.850782        23.1510 
 364   0.0000       0.852093        23.1866 
 365   0.0000       0.858004        23.3475 
 366   0.0000       0.858831        23.3700 
 367   0.0000       0.859661        23.3926 
 368   0.0000       0.860820        23.4241 
 369   0.0000       0.864924        23.5358 
 370   0.0000       0.866718        23.5846 
 371   0.0000       0.870194        23.6792 
 372   0.0000       0.870594        23.6901 
 373   0.0000       0.871390        23.7117 
 374   0.0000       0.875256        23.8169 
 375   0.0000       0.877453        23.8767 
 376   0.0000       0.878687        23.9103 
 377   0.0000       0.880502        23.9597 
 378   0.0000       0.884016        24.0553 
 379   0.0000       0.887911        24.1613 
 380   0.0000       0.890676        24.2365 
 381   0.0000       0.891826        24.2678 
 382   0.0000       0.901613        24.5341 
 383   0.0000       0.903087        24.5743 
 384   0.0000       0.904463        24.6117 
 385   0.0000       0.907911        24.7055 
 386   0.0000       0.909840        24.7580 
 387   0.0000       0.915840        24.9213 
 388   0.0000       0.917571        24.9684 
 389   0.0000       0.918721        24.9997 
 390   0.0000       0.920640        25.0519 
 391   0.0000       0.925271        25.1779 
 392   0.0000       0.927784        25.2463 
 393   0.0000       0.932771        25.3820 
 394   0.0000       0.933503        25.4019 
 395   0.0000       0.935330        25.4516 
 396   0.0000       0.936384        25.4803 
 397   0.0000       0.940247        25.5854 
 398   0.0000       0.941028        25.6067 
 399   0.0000       0.942672        25.6514 
 400   0.0000       0.946068        25.7438 
 401   0.0000       0.948428        25.8080 
 402   0.0000       0.951924        25.9032 
 403   0.0000       0.956044        26.0153 
 404   0.0000       0.958508        26.0823 
 405   0.0000       0.960305        26.1312 
 406   0.0000       0.962756        26.1979 
 407   0.0000       0.967151        26.3175 
 408   0.0000       0.968725        26.3604 
 409   0.0000       0.974542        26.5186 
 410   0.0000       0.980635        26.6844 
 411   0.0000       0.985026        26.8039 
 412   0.0000       0.987414        26.8689 
 413   0.0000       0.995603        27.0917 
 414   0.0000       0.996316        27.1111 
 415   0.0000       0.999881        27.2082 
 416   0.0000       1.004541        27.3349 
 417   0.0000       1.006640        27.3921 
 418   0.0000       1.008769        27.4500 
 419   0.0000       1.016877        27.6706 
 420   0.0000       1.022046        27.8113 
 421   0.0000       1.025175        27.8964 
 422   0.0000       1.031737        28.0750 
 423   0.0000       1.037766        28.2390 
 424   0.0000       1.038760        28.2661 
 425   0.0000       1.045345        28.4453 
 426   0.0000       1.056158        28.7395 
 427   0.0000       1.064668        28.9711 
 428   0.0000       1.065830        29.0027 
 429   0.0000       1.070523        29.1304 
 430   0.0000       1.074145        29.2290 
 431   0.0000       1.083354        29.4796 
 432   0.0000       1.085153        29.5285 
 433   0.0000       1.087994        29.6058 
 434   0.0000       1.094356        29.7789 
 435   0.0000       1.097866        29.8745 
 436   0.0000       1.105524        30.0828 
 437   0.0000       1.107312        30.1315 
 438   0.0000       1.112656        30.2769 
 439   0.0000       1.115475        30.3536 
 440   0.0000       1.117002        30.3952 
 441   0.0000       1.118599        30.4386 
 442   0.0000       1.123793        30.5800 
 443   0.0000       1.129012        30.7220 
 444   0.0000       1.133064        30.8322 
 445   0.0000       1.134859        30.8811 
 446   0.0000       1.141647        31.0658 
 447   0.0000       1.143979        31.1293 
 448   0.0000       1.145618        31.1738 
 449   0.0000       1.148712        31.2581 
 450   0.0000       1.155169        31.4338 
 451   0.0000       1.156592        31.4725 
 452   0.0000       1.158767        31.5317 
 453   0.0000       1.160256        31.5722 
 454   0.0000       1.165592        31.7174 
 455   0.0000       1.168262        31.7900 
 456   0.0000       1.175609        31.9899 
 457   0.0000       1.177505        32.0416 
 458   0.0000       1.185092        32.2480 
 459   0.0000       1.186349        32.2822 
 460   0.0000       1.188399        32.3380 
 461   0.0000       1.191262        32.4159 
 462   0.0000       1.199459        32.6389 
 463   0.0000       1.203406        32.7463 
 464   0.0000       1.205157        32.7940 
 465   0.0000       1.208089        32.8738 
 466   0.0000       1.210853        32.9490 
 467   0.0000       1.212835        33.0029 
 468   0.0000       1.217963        33.1425 
 469   0.0000       1.219949        33.1965 
 470   0.0000       1.227189        33.3935 
 471   0.0000       1.228907        33.4403 
 472   0.0000       1.232951        33.5503 
 473   0.0000       1.237975        33.6870 
 474   0.0000       1.238962        33.7139 
 475   0.0000       1.242676        33.8149 
 476   0.0000       1.246318        33.9140 
 477   0.0000       1.249705        34.0062 
 478   0.0000       1.257368        34.2147 
 479   0.0000       1.257866        34.2283 
 480   0.0000       1.258777        34.2531 
 481   0.0000       1.264000        34.3952 
 482   0.0000       1.265603        34.4388 
 483   0.0000       1.270162        34.5629 
 484   0.0000       1.274334        34.6764 
 485   0.0000       1.281963        34.8840 
 486   0.0000       1.284789        34.9609 
 487   0.0000       1.287368        35.0311 
 488   0.0000       1.289151        35.0796 
 489   0.0000       1.290979        35.1293 
 490   0.0000       1.295523        35.2530 
 491   0.0000       1.300291        35.3827 
 492   0.0000       1.302578        35.4449 
 493   0.0000       1.305744        35.5311 
 494   0.0000       1.310037        35.6479 
 495   0.0000       1.314747        35.7761 
 496   0.0000       1.319608        35.9084 
 497   0.0000       1.322794        35.9950 
 498   0.0000       1.325746        36.0754 
 499   0.0000       1.331077        36.2205 
 500   0.0000       1.332430        36.2573 
 501   0.0000       1.336917        36.3794 
 502   0.0000       1.339891        36.4603 
 503   0.0000       1.342622        36.5346 
 504   0.0000       1.346112        36.6296 
[...]
      pz      :     0.021746  p :     0.079243
      px      :     0.042810
      py      :     0.014688
 77 H s       :     0.896191  s :     0.896191
      pz      :     0.047074  p :     0.078289
      px      :     0.015002
      py      :     0.016212
 78 H s       :     0.896596  s :     0.896596
      pz      :     0.025421  p :     0.078198
      px      :     0.020721
      py      :     0.032056
 79 H s       :     0.906979  s :     0.906979
      pz      :     0.022651  p :     0.087327
      px      :     0.021910
      py      :     0.042766
 80 H s       :     0.880619  s :     0.880619
      pz      :     0.038088  p :     0.083105
      px      :     0.029447
      py      :     0.015570
 81 H s       :     0.888970  s :     0.888970
      pz      :     0.037526  p :     0.083245
      px      :     0.016072
      py      :     0.029646
 82 H s       :     0.914231  s :     0.914231
      pz      :     0.022550  p :     0.087178
      px      :     0.030868
      py      :     0.033761
 83 H s       :     0.872352  s :     0.872352
      pz      :     0.039153  p :     0.083596
      px      :     0.015248
      py      :     0.029196
 84 H s       :     0.889045  s :     0.889045
      pz      :     0.035803  p :     0.084507
      px      :     0.031804
      py      :     0.016899
 85 H s       :     0.896423  s :     0.896423
      pz      :     0.022507  p :     0.079585
      px      :     0.014166
      py      :     0.042913
 86 H s       :     0.890850  s :     0.890850
      pz      :     0.024693  p :     0.078885
      px      :     0.032986
      py      :     0.021207
 87 H s       :     0.891500  s :     0.891500
      pz      :     0.047783  p :     0.078567
      px      :     0.015663
      py      :     0.015121
 88 H s       :     0.918761  s :     0.918761
      pz      :     0.022603  p :     0.086830
      px      :     0.041911
      py      :     0.022316
 89 H s       :     0.875727  s :     0.875727
      pz      :     0.037787  p :     0.084037
      px      :     0.030454
      py      :     0.015797


                      *****************************
                      * MAYER POPULATION ANALYSIS *
                      *****************************

  NA   - Mulliken gross atomic population
  ZA   - Total nuclear charge
  QA   - Mulliken gross atomic charge
  VA   - Mayer's total valence
  BVA  - Mayer's bonded valence
  FA   - Mayer's free valence

  ATOM       NA         ZA         QA         VA         BVA        FA
  0 C      5.7617     6.0000     0.2383     3.7999     3.7999     0.0000
  1 N      7.4110     7.0000    -0.4110     3.4830     3.4830     0.0000
  2 C      6.0666     6.0000    -0.0666     3.9205     3.9205    -0.0000
  3 N      7.3442     7.0000    -0.3442     3.4197     3.4197    -0.0000
  4 C      6.0687     6.0000    -0.0687     3.9536     3.9536    -0.0000
  5 N      7.5659     7.0000    -0.5659     3.0659     3.0659    -0.0000
  6 C      6.0243     6.0000    -0.0243     3.9581     3.9581    -0.0000
  7 N      7.3369     7.0000    -0.3369     3.4456     3.4456    -0.0000
  8 C      5.7667     6.0000     0.2333     3.7994     3.7994    -0.0000
  9 N      7.5664     7.0000    -0.5664     3.0927     3.0927     0.0000
 10 C      5.8970     6.0000     0.1030     3.8580     3.8580     0.0000
 11 N      7.4400     7.0000    -0.4400     3.3715     3.3715     0.0000
 12 C      6.0580     6.0000    -0.0580     3.9087     3.9087    -0.0000
 13 N      7.4517     7.0000    -0.4517     3.3138     3.3138    -0.0000
 14 C      5.7813     6.0000     0.2187     3.8112     3.8112    -0.0000
 15 N      7.4418     7.0000    -0.4418     3.3620     3.3620     0.0000
 16 C      5.7421     6.0000     0.2579     3.8063     3.8063    -0.0000
 17 C      6.0322     6.0000    -0.0322     3.9613     3.9613     0.0000
 18 C      6.1738     6.0000    -0.1738     3.6716     3.6716    -0.0000
 19 C      5.7710     6.0000     0.2290     3.9042     3.9042    -0.0000
 20 C      5.8136     6.0000     0.1864     3.8207     3.8207     0.0000
 21 C      6.0665     6.0000    -0.0665     3.8896     3.8896    -0.0000
 22 C      6.0919     6.0000    -0.0919     3.9850     3.9850    -0.0000
 23 C      6.0689     6.0000    -0.0689     3.9883     3.9883    -0.0000
 24 C      5.7823     6.0000     0.2177     3.8309     3.8309    -0.0000
 25 C      5.8849     6.0000     0.1151     3.8942     3.8942     0.0000
 26 C      6.0653     6.0000    -0.0653     3.9095     3.9095    -0.0000
 27 C      5.7507     6.0000     0.2493     3.9034     3.9034    -0.0000
 28 C      6.0390     6.0000    -0.0390     3.9911     3.9911     0.0000
 29 C      6.1972     6.0000    -0.1972     3.7284     3.7284    -0.0000
 30 C      5.7803     6.0000     0.2197     3.7772     3.7772    -0.0000
 31 C      5.8134     6.0000     0.1866     3.8340     3.8340    -0.0000
 32 C      6.0641     6.0000    -0.0641     3.9131     3.9131    -0.0000
 33 C      6.1039     6.0000    -0.1039     3.9839     3.9839    -0.0000
 34 C      6.0503     6.0000    -0.0503     4.0000     4.0000    -0.0000
 35 C      5.8234     6.0000     0.1766     3.8300     3.8300     0.0000
 36 C      5.8785     6.0000     0.1215     3.9117     3.9117    -0.0000
 37 C      6.0709     6.0000    -0.0709     3.9132     3.9132    -0.0000
 38 C      5.7547     6.0000     0.2453     3.7941     3.7941     0.0000
 39 C      6.0658     6.0000    -0.0658     3.9994     3.9994    -0.0000
 40 C      6.2053     6.0000    -0.2053     3.7534     3.7534    -0.0000
 41 C      5.7844     6.0000     0.2156     3.8731     3.8731     0.0000
 42 C      5.7875     6.0000     0.2125     3.8332     3.8332    -0.0000
 43 C      6.0778     6.0000    -0.0778     3.9050     3.9050    -0.0000
 44 C      6.0927     6.0000    -0.0927     3.9829     3.9829    -0.0000
 45 C      6.0374     6.0000    -0.0374     3.9965     3.9965    -0.0000
 46 C      5.8175     6.0000     0.1825     3.8197     3.8197    -0.0000
 47 C      5.8831     6.0000     0.1169     3.8976     3.8976     0.0000
 48 C      6.0828     6.0000    -0.0828     3.8970     3.8970    -0.0000
 49 C      5.7937     6.0000     0.2063     3.8609     3.8609    -0.0000
 50 C      6.0686     6.0000    -0.0686     3.9903     3.9903    -0.0000
 51 C      6.1889     6.0000    -0.1889     3.7429     3.7429    -0.0000
 52 H      0.9167     1.0000     0.0833     0.9819     0.9819    -0.0000
 53 H      1.0064     1.0000    -0.0064     1.0027     1.0027    -0.0000
 54 H      0.9310     1.0000     0.0690     1.0045     1.0045    -0.0000
 55 H      0.9178     1.0000     0.0822     0.9827     0.9827    -0.0000
 56 H      0.9134     1.0000     0.0866     0.9727     0.9727     0.0000
 57 H      0.9227     1.0000     0.0773     0.9847     0.9847    -0.0000
 58 H      0.9244     1.0000     0.0756     0.9871     0.9871    -0.0000
 59 H      1.0298     1.0000    -0.0298     0.9958     0.9958     0.0000
 60 H      0.9324     1.0000     0.0676     1.0049     1.0049     0.0000
 61 H      0.8226     1.0000     0.1774     1.0439     1.0439     0.0000
 62 H      0.8325     1.0000     0.1675     1.0433     1.0433    -0.0000
 63 H      0.9479     1.0000     0.0521     0.9864     0.9864     0.0000
 64 H      1.0357     1.0000    -0.0357     0.9932     0.9932     0.0000
 65 H      0.9602     1.0000     0.0398     1.0077     1.0077    -0.0000
 66 H      0.9457     1.0000     0.0543     0.9847     0.9847     0.0000
 67 H      0.9425     1.0000     0.0575     0.9716     0.9716    -0.0000
 68 H      0.9444     1.0000     0.0556     0.9863     0.9863     0.0000
 69 H      0.9413     1.0000     0.0587     0.9830     0.9830    -0.0000
 70 H      1.0125     1.0000    -0.0125     0.9985     0.9985    -0.0000
 71 H      0.9538     1.0000     0.0462     1.0077     1.0077    -0.0000
 72 H      0.9638     1.0000     0.0362     0.9861     0.9861    -0.0000
 73 H      1.0194     1.0000    -0.0194     0.9961     0.9961     0.0000
 74 H      0.9718     1.0000     0.0282     1.0090     1.0090     0.0000
 75 H      0.9652     1.0000     0.0348     0.9868     0.9868     0.0000
 76 H      0.9549     1.0000     0.0451     0.9701     0.9701     0.0000
 77 H      0.9548     1.0000     0.0452     0.9842     0.9842    -0.0000
 78 H      0.9555     1.0000     0.0445     0.9834     0.9834    -0.0000
 79 H      1.0115     1.0000    -0.0115     1.0021     1.0021    -0.0000
 80 H      0.9721     1.0000     0.0279     1.0061     1.0061    -0.0000
 81 H      0.9501     1.0000     0.0499     0.9852     0.9852    -0.0000
 82 H      1.0232     1.0000    -0.0232     0.9952     0.9952    -0.0000
 83 H      0.9576     1.0000     0.0424     1.0108     1.0108    -0.0000
 84 H      0.9513     1.0000     0.0487     0.9865     0.9865    -0.0000
 85 H      0.9463     1.0000     0.0537     0.9713     0.9713     0.0000
 86 H      0.9438     1.0000     0.0562     0.9841     0.9841    -0.0000
 87 H      0.9459     1.0000     0.0541     0.9852     0.9852    -0.0000
 88 H      1.0312     1.0000    -0.0312     0.9908     0.9908    -0.0000
 89 H      0.9617     1.0000     0.0383     1.0058     1.0058    -0.0000

  Mayer bond orders larger than 0.100000
B(  0-C ,  1-N ) :   1.2119 B(  0-C , 17-C ) :   1.5110 B(  0-C , 52-H ) :   0.9666 
B(  1-N ,  8-C ) :   1.2041 B(  1-N , 10-C ) :   0.9245 B(  2-C , 12-C ) :   1.5818 
B(  2-C , 16-C ) :   1.2711 B(  2-C , 53-H ) :   0.9793 B(  3-N , 14-C ) :   1.1743 
B(  3-N , 16-C ) :   1.2022 B(  3-N , 61-H ) :   0.8952 B(  4-C ,  6-C ) :   1.3604 
B(  4-C , 17-C ) :   1.3626 B(  4-C , 18-C ) :   1.0500 B(  5-N , 19-C ) :   1.3643 
B(  5-N , 27-C ) :   1.4486 B(  6-C ,  8-C ) :   1.5141 B(  6-C , 54-H ) :   0.9705 
B(  7-N , 30-C ) :   1.1833 B(  7-N , 38-C ) :   1.2162 B(  7-N , 62-H ) :   0.9015 
B(  8-C , 55-H ) :   0.9676 B(  9-N , 41-C ) :   1.4349 B(  9-N , 49-C ) :   1.3929 
B( 10-C , 56-H ) :   0.9767 B( 10-C , 57-H ) :   0.9807 B( 10-C , 58-H ) :   0.9815 
B( 11-N , 20-C ) :   1.0960 B( 11-N , 24-C ) :   1.1346 B( 11-N , 25-C ) :   0.9625 
B( 12-C , 14-C ) :   1.2716 B( 12-C , 59-H ) :   0.9769 B( 13-N , 31-C ) :   1.0817 
B( 13-N , 35-C ) :   1.0709 B( 13-N , 36-C ) :   0.9828 B( 14-C , 18-C ) :   1.2643 
B( 15-N , 42-C ) :   1.1262 B( 15-N , 46-C ) :   1.0884 B( 15-N , 47-C ) :   0.9666 
B( 16-C , 51-C ) :   1.2497 B( 17-C , 60-H ) :   0.9709 B( 18-C , 19-C ) :   1.3131 
B( 19-C , 21-C ) :   1.1615 B( 20-C , 28-C ) :   1.6293 B( 20-C , 63-H ) :   0.9710 
B( 21-C , 26-C ) :   1.6835 B( 21-C , 64-H ) :   0.9717 B( 22-C , 23-C ) :   1.2547 
B( 22-C , 28-C ) :   1.2800 B( 22-C , 29-C ) :   1.2566 B( 23-C , 24-C ) :   1.6353 
B( 23-C , 65-H ) :   0.9723 B( 24-C , 66-H ) :   0.9690 B( 25-C , 67-H ) :   0.9762 
B( 25-C , 68-H ) :   0.9834 B( 25-C , 69-H ) :   0.9818 B( 26-C , 27-C ) :   1.1709 
B( 26-C , 70-H ) :   0.9758 B( 27-C , 29-C ) :   1.2432 B( 28-C , 71-H ) :   0.9709 
B( 29-C , 30-C ) :   1.1752 B( 30-C , 32-C ) :   1.3510 B( 31-C , 39-C ) :   1.6859 
B( 31-C , 72-H ) :   0.9709 B( 32-C , 37-C ) :   1.5091 B( 32-C , 73-H ) :   0.9771 
B( 33-C , 34-C ) :   1.2318 B( 33-C , 39-C ) :   1.2239 B( 33-C , 40-C ) :   1.3601 
B( 34-C , 35-C ) :   1.6844 B( 34-C , 74-H ) :   0.9709 B( 35-C , 75-H ) :   0.9709 
B( 36-C , 76-H ) :   0.9755 B( 36-C , 77-H ) :   0.9826 B( 36-C , 78-H ) :   0.9838 
B( 37-C , 38-C ) :   1.3444 B( 37-C , 79-H ) :   0.9793 B( 38-C , 40-C ) :   1.1784 
B( 39-C , 80-H ) :   0.9721 B( 40-C , 41-C ) :   1.1669 B( 41-C , 43-C ) :   1.2581 
B( 42-C , 50-C ) :   1.6426 B( 42-C , 81-H ) :   0.9696 B( 43-C , 48-C ) :   1.5930 
B( 43-C , 82-H ) :   0.9756 B( 44-C , 45-C ) :   1.2809 B( 44-C , 50-C ) :   1.2483 
B( 44-C , 51-C ) :   1.2476 B( 45-C , 46-C ) :   1.6333 B( 45-C , 83-H ) :   0.9702 
B( 46-C , 84-H ) :   0.9709 B( 47-C , 85-H ) :   0.9759 B( 47-C , 86-H ) :   0.9826 
B( 47-C , 87-H ) :   0.9830 B( 48-C , 49-C ) :   1.2523 B( 48-C , 88-H ) :   0.9725 
B( 49-C , 51-C ) :   1.1877 B( 50-C , 89-H ) :   0.9722 

-------
TIMINGS
-------

Total SCF time: 0 days 0 hours 25 min 17 sec 

Total time                  ....    1517.621 sec
Sum of individual times     ....    1513.788 sec  ( 99.7%)

Fock matrix formation       ....    1493.155 sec  ( 98.4%)
Diagonalization             ....       5.628 sec  (  0.4%)
Density matrix formation    ....       0.391 sec  (  0.0%)
Population analysis         ....       0.427 sec  (  0.0%)
Initial guess               ....       1.919 sec  (  0.1%)
Orbital Transformation      ....       0.000 sec  (  0.0%)
Orbital Orthonormalization  ....       0.000 sec  (  0.0%)
DIIS solution               ....       2.361 sec  (  0.2%)
SOSCF solution              ....       8.901 sec  (  0.6%)

Maximum memory used throughout the entire SCF-calculation: 302.6 MB


           ************************************************************
           *        Program running with 16 parallel MPI-processes    *
           *              working on a common directory               *
           ************************************************************

------------------------------------------------------------------------------
                                ORCA  MP2 
------------------------------------------------------------------------------

Freezing NCore=104 chemical core electrons

----------
MP2 ENERGY (disk based algorithm)
----------

Dimension of the basis                    ...  918
Memory devoted to MP2                     ... 2000 MB   
Data format for buffers                   ... DOUBLE
Compression type for matrix containers    ... UNCOMPRESSED

-------------------------------
PARTIAL EXCHANGE TRANSFORMATION
-------------------------------

Transformation type                        ... one-operator
Generation of integrals (i,mue|j,nue)      ... ON
Generation of integrals (mue,kappa|nue,tau)... OFF
Generation of integrals (i,mue|a,nue)      ... OFF
Dimension of the basis                     ...  918
Number of internal MOs                     ...  127 (  52- 178)
Pair cutoff                                ... 2.500e-12 Eh
Number of AO pairs in the trafo            ... 421821
Total Number of distinct AO pairs          ... 421821
Memory devoted for trafo                   ... 2000.0 MB 
Max. Number of MO pairs treated together   ...  311      
Number Format for Storage                  ... Double (8 Byte)
Integral package used                      ... LIBINT

Starting integral evaluation:
    ... done with AO integral generation
Closing buffer AOK     (37.66 GB; CompressionRatio= 1.35)
Collecting buffer AOK 
Number of MO pairs included in the trafo   ... 8128
------------------------
SORTING OF (i,mue|j,nue)
------------------------

IBATCH = 1 of  2
IBATCH = 2 of  2
Closing buffer KAO     (51.03 GB; CompressionRatio= 1.00)
Collecting buffer KAO 
N(AO-Batches) Done                         ...  85573080 
N(AO-Batches) Skipped                      ...  81934620 
N(IJ)-pairs Skipped                        ...         0 
TOTAL TIME for half transformation         ...  2811.063 sec
AO-integral generation                     ...   178.586 sec
Half transformation                        ...   316.793 sec
K-integral sorting                         ...  2172.361 sec
Process 10:   Internal MO 132
Process 13:   Internal MO 156
Process  4:   Internal MO  84
Process  7:   Internal MO 108

Finished integral transformation - now doing MP2 part

OPERATOR COMBINATION   0   0: ij=( 52..178, 52..178)
Process  1:   Internal MO  60
Process  0:   Internal MO  54
Process  2:   Internal MO  69
Process  0:   Internal MO  57
Process  1:   Internal MO  63
Process  5:   Internal MO  93
Process  3:   Internal MO  78
Process  8:   Internal MO 117
Process  1:   Internal MO  66
Process  2:   Internal MO  72
Process  6:   Internal MO 102
Process  4:   Internal MO  87
Process 14:   Internal MO 165
Process 11:   Internal MO 141
Process  3:   Internal MO  81
Process  2:   Internal MO  75
Process  9:   Internal MO 126
Process 12:   Internal MO 150
Process  7:   Internal MO 111
Process  5:   Internal MO  96
Process  4:   Internal MO  90
Process 10:   Internal MO 135
Process 15:   Internal MO 174
Process  6:   Internal MO 105
Process 13:   Internal MO 159
Process  8:   Internal MO 120
Process  5:   Internal MO  99
Process  7:   Internal MO 114
Process  9:   Internal MO 129
Process 14:   Internal MO 168
Process 11:   Internal MO 144
Process 12:   Internal MO 153
Process  8:   Internal MO 123
Process 10:   Internal MO 138
Process 13:   Internal MO 162
Process 15:   Internal MO 177
Process 11:   Internal MO 147
Process 14:   Internal MO 171
-----------------------------------------------
 MP2 CORRELATION ENERGY   :     -7.260752915 Eh
-----------------------------------------------


-------
TIMINGS
-------
Total time                : 3302.674 sec
Integral trafo            : 2812.930 sec ( 85.2%)
K(i,j)                    :    5.813 sec (  0.2%)
T(i,j)                    :    0.104 sec (  0.0%)

---------------------------------------
MP2 TOTAL ENERGY:    -2130.871362990 Eh
---------------------------------------

Maximum memory used throughout the entire MP2-calculation: 2275.2 MB

-------------------------   --------------------
FINAL SINGLE POINT ENERGY     -2130.871362990172
-------------------------   --------------------


                            ***************************************
                            *     ORCA property calculations      *
                            ***************************************


  WARNING: The energy has been calculated at the MP2 level but the densities
           used in the property calculations are still SCF densities
           MP2 response densities have not been calculated 
           use %mp2 Density relaxed end
           or  %mp2 Density unrelaxed end

                                    ---------------------
                                    Active property flags
                                    ---------------------
   (+) Dipole Moment


------------------------------------------------------------------------------
                       ORCA ELECTRIC PROPERTIES CALCULATION
------------------------------------------------------------------------------

Dipole Moment Calculation                       ... on
Quadrupole Moment Calculation                   ... off
Polarizability Calculation                      ... off
GBWName                                         ... /scratch/allen/tmpyp4_amber_gaff2/conf1/conf1/Conf95.orca.gbw
Electron density                                ... /scratch/allen/tmpyp4_amber_gaff2/conf1/conf1/Conf95.orca.scfp
The origin for moment calculation is the CENTER OF MASS  = ( 0.001889, -0.002906  0.003943)

-------------
DIPOLE MOMENT
-------------
                                X             Y             Z
Electronic contribution:     -4.60871       5.38173      -0.15593
Nuclear contribution   :     -0.02427       0.16921       0.21178
                        -----------------------------------------
Total Dipole Moment    :     -4.63298       5.55095       0.05585
                        -----------------------------------------
Magnitude (a.u.)       :      7.23053
Magnitude (Debye)      :     18.37856



--------------------
Rotational spectrum 
--------------------
 
Rotational constants in cm-1:     0.001498     0.001472     0.000763 
Rotational constants in MHz :    44.899697    44.139577    22.868929 

 Dipole components along the rotational axes: 
x,y,z [a.u.] :     6.421458     3.323131     0.047984 
x,y,z [Debye]:    16.322050     8.446729     0.121967 

 

Timings for individual modules:

Sum of individual times         ...     4842.251 sec (=  80.704 min)
GTO integral calculation        ...        2.678 sec (=   0.045 min)   0.1 %
SCF iterations                  ...     1518.556 sec (=  25.309 min)  31.4 %
MP2 module                      ...     3321.017 sec (=  55.350 min)  68.6 %
                             ****ORCA TERMINATED NORMALLY****
TOTAL RUN TIME: 0 days 1 hours 20 minutes 45 seconds 670 msec
# of primitive gaussian functions

