
                                 *****************
                                 * O   R   C   A *
                                 *****************

                                            #,                                       
                                            ###                                      
                                            ####                                     
                                            #####                                    
                                            ######                                   
                                           ########,                                 
                                     ,,################,,,,,                         
                               ,,#################################,,                 
                          ,,##########################################,,             
                       ,#########################################, ''#####,          
                    ,#############################################,,   '####,        
                  ,##################################################,,,,####,       
                ,###########''''           ''''###############################       
              ,#####''   ,,,,##########,,,,          '''####'''          '####       
            ,##' ,,,,###########################,,,                        '##       
           ' ,,###''''                  '''############,,,                           
         ,,##''                                '''############,,,,        ,,,,,,###''
      ,#''                                            '''#######################'''  
     '                                                          ''''####''''         
             ,#######,   #######,   ,#######,      ##                                
            ,#'     '#,  ##    ##  ,#'     '#,    #''#        ######   ,####,        
            ##       ##  ##   ,#'  ##            #'  '#       #        #'  '#        
            ##       ##  #######   ##           ,######,      #####,   #    #        
            '#,     ,#'  ##    ##  '#,     ,#' ,#      #,         ##   #,  ,#        
             '#######'   ##     ##  '#######'  #'      '#     #####' # '####'        



                  #######################################################
                  #                        -***-                        #
                  #          Department of theory and spectroscopy      #
                  #    Directorship and core code : Frank Neese         #
                  #        Max Planck Institute fuer Kohlenforschung    #
                  #                Kaiser Wilhelm Platz 1               #
                  #                 D-45470 Muelheim/Ruhr               #
                  #                      Germany                        #
                  #                                                     #
                  #                  All rights reserved                #
                  #                        -***-                        #
                  #######################################################


                         Program Version 5.0.4 -  RELEASE  -


 With contributions from (in alphabetic order):
   Daniel Aravena         : Magnetic Suceptibility
   Michael Atanasov       : Ab Initio Ligand Field Theory (pilot matlab implementation)
   Alexander A. Auer      : GIAO ZORA, VPT2 properties, NMR spectrum
   Ute Becker             : Parallelization
   Giovanni Bistoni       : ED, misc. LED, open-shell LED, HFLD
   Martin Brehm           : Molecular dynamics
   Dmytro Bykov           : SCF Hessian
   Vijay G. Chilkuri      : MRCI spin determinant printing, contributions to CSF-ICE
   Dipayan Datta          : RHF DLPNO-CCSD density
   Achintya Kumar Dutta   : EOM-CC, STEOM-CC
   Dmitry Ganyushin       : Spin-Orbit,Spin-Spin,Magnetic field MRCI
   Miquel Garcia          : C-PCM and meta-GGA Hessian, CC/C-PCM, Gaussian charge scheme
   Yang Guo               : DLPNO-NEVPT2, F12-NEVPT2, CIM, IAO-localization
   Andreas Hansen         : Spin unrestricted coupled pair/coupled cluster methods
   Benjamin Helmich-Paris : MC-RPA, TRAH-SCF, COSX integrals
   Lee Huntington         : MR-EOM, pCC
   Robert Izsak           : Overlap fitted RIJCOSX, COSX-SCS-MP3, EOM
   Marcus Kettner         : VPT2
   Christian Kollmar      : KDIIS, OOCD, Brueckner-CCSD(T), CCSD density, CASPT2, CASPT2-K
   Simone Kossmann        : Meta GGA functionals, TD-DFT gradient, OOMP2, MP2 Hessian
   Martin Krupicka        : Initial AUTO-CI
   Lucas Lang             : DCDCAS
   Marvin Lechner         : AUTO-CI (C++ implementation), FIC-MRCC
   Dagmar Lenk            : GEPOL surface, SMD
   Dimitrios Liakos       : Extrapolation schemes; Compound Job, initial MDCI parallelization
   Dimitrios Manganas     : Further ROCIS development; embedding schemes
   Dimitrios Pantazis     : SARC Basis sets
   Anastasios Papadopoulos: AUTO-CI, single reference methods and gradients
   Taras Petrenko         : DFT Hessian,TD-DFT gradient, ASA, ECA, R-Raman, ABS, FL, XAS/XES, NRVS
   Peter Pinski           : DLPNO-MP2, DLPNO-MP2 Gradient
   Christoph Reimann      : Effective Core Potentials
   Marius Retegan         : Local ZFS, SOC
   Christoph Riplinger    : Optimizer, TS searches, QM/MM, DLPNO-CCSD(T), (RO)-DLPNO pert. Triples
   Tobias Risthaus        : Range-separated hybrids, TD-DFT gradient, RPA, STAB
   Michael Roemelt        : Original ROCIS implementation
   Masaaki Saitow         : Open-shell DLPNO-CCSD energy and density
   Barbara Sandhoefer     : DKH picture change effects
   Avijit Sen             : IP-ROCIS
   Kantharuban Sivalingam : CASSCF convergence, NEVPT2, FIC-MRCI
   Bernardo de Souza      : ESD, SOC TD-DFT
   Georgi Stoychev        : AutoAux, RI-MP2 NMR, DLPNO-MP2 response
   Willem Van den Heuvel  : Paramagnetic NMR
   Boris Wezisla          : Elementary symmetry handling
   Frank Wennmohs         : Technical directorship


 We gratefully acknowledge several colleagues who have allowed us to
 interface, adapt or use parts of their codes:
   Stefan Grimme, W. Hujo, H. Kruse, P. Pracht,  : VdW corrections, initial TS optimization,
                  C. Bannwarth, S. Ehlert          DFT functionals, gCP, sTDA/sTD-DF
   Ed Valeev, F. Pavosevic, A. Kumar             : LibInt (2-el integral package), F12 methods
   Garnet Chan, S. Sharma, J. Yang, R. Olivares  : DMRG
   Ulf Ekstrom                                   : XCFun DFT Library
   Mihaly Kallay                                 : mrcc  (arbitrary order and MRCC methods)
   Jiri Pittner, Ondrej Demel                    : Mk-CCSD
   Frank Weinhold                                : gennbo (NPA and NBO analysis)
   Christopher J. Cramer and Donald G. Truhlar   : smd solvation model
   Lars Goerigk                                  : TD-DFT with DH, B97 family of functionals
   V. Asgeirsson, H. Jonsson                     : NEB implementation
   FAccTs GmbH                                   : IRC, NEB, NEB-TS, DLPNO-Multilevel, CI-OPT
                                                   MM, QMMM, 2- and 3-layer-ONIOM, Crystal-QMMM,
                                                   LR-CPCM, SF, NACMEs, symmetry and pop. for TD-DFT,
                                                   nearIR, NL-DFT gradient (VV10), updates on ESD,
                                                   ML-optimized integration grids
   S Lehtola, MJT Oliveira, MAL Marques          : LibXC Library
   Liviu Ungur et al                             : ANISO software


 Your calculation uses the libint2 library for the computation of 2-el integrals
 For citations please refer to: http://libint.valeyev.net

 Your ORCA version has been built with support for libXC version: 5.1.0
 For citations please refer to: https://tddft.org/programs/libxc/

 This ORCA versions uses:
   CBLAS   interface :  Fast vector & matrix operations
   LAPACKE interface :  Fast linear algebra routines
   SCALAPACK package :  Parallel linear algebra routines
   Shared memory     :  Shared parallel matrices
   BLAS/LAPACK       :  OpenBLAS 0.3.15  USE64BITINT DYNAMIC_ARCH NO_AFFINITY Sandybridge SINGLE_THREADED
        Core in use  :  Sandybridge
   Copyright (c) 2011-2014, The OpenBLAS Project


================================================================================

----- Orbital basis set information -----
Your calculation utilizes the basis: cc-pVDZ 
       H, B-Ne : Obtained from the ccRepo (grant-hill.group.shef.ac.uk/ccrepo) Feb. 2017
                 T. H. Dunning, Jr., J. Chem. Phys. 90, 1007 (1989)
            He : Obtained from the ccRepo (grant-hill.group.shef.ac.uk/ccrepo) Feb. 2017
                 D. E. Woon, T. H. Dunning, Jr., J. Chem. Phys. 100, 2975 (1994)
  Li-Be, Na-Mg : Obtained from the ccRepo (grant-hill.group.shef.ac.uk/ccrepo) Feb. 2017
                 B. P. Prascher, D. E. Woon, K. A. Peterson, T. H. Dunning, Jr., A. K. Wilson, Theor. Chem. Acc. 128, 69 (2011)
         Al-Ar : Obtained from the ccRepo (grant-hill.group.shef.ac.uk/ccrepo) Feb. 2017
                 D. E. Woon, T. H. Dunning, Jr., J. Chem. Phys. 98, 1358 (1993)
            Ca : Obtained from the Peterson Research Group Website (tyr0.chem.wsu.edu/~kipeters) Feb. 2017
                 J. Koput, K. A. Peterson, J. Phys. Chem. 106, 9595 (2002)
         Sc-Zn : Obtained from the ccRepo (grant-hill.group.shef.ac.uk/ccrepo) Feb. 2017
                 N. B. Balabanov, K. A. Peterson, J. Chem. Phys. 123, 064107 (2005)
                 N. B. Balabanov, K. A. Peterson, J. Chem. Phys. 125, 074110 (2006)
         Ga-Kr : Obtained from the ccRepo (grant-hill.group.shef.ac.uk/ccrepo) Feb. 2017
                 A. K. Wilson, D. E. Woon, K. A. Peterson, T. H. Dunning, Jr., J. Chem. Phys. 110, 7667 (1999)

================================================================================
                                        WARNINGS
                       Please study these warnings very carefully!
================================================================================


WARNING: No MP2 level density has been requested!
         To caclulate MP2 level properties use
         %mp2 Density relaxed end
         or
         %mp2 Density unrelaxed end

WARNING: Post HF methods need fully converged wavefunctions
  ===> : Setting SCFConvForced true
         You can overwrite this default with %scf ConvForced false 


INFO   : the flag for use of the SHARK integral package has been found!

================================================================================
                                       INPUT FILE
================================================================================
NAME = /scratch/allen/tmpyp4_amber_gaff2/2.Mdgx/conf11/conf11/Conf37.orca
|  1> ! PAL2
|  2> ! mp2 cc-pvdz TightSCF  NoKeepInts
|  3> 
|  4> %scf
|  5>   MaxCore 2000
|  6> end
|  7> %mp2
|  8>   MaxCore 2000
|  9> end
| 10> * xyz 0 1
| 11>    C       -3.20800         6.38900        -0.57300
| 12>    C        1.47400         4.04100         0.05700
| 13>    C       -2.80200         4.09300         0.04900
| 14>    C       -4.01500         4.12300         0.75500
| 15>    C       -4.77900         5.27300         0.77100
| 16>    C       -5.23100         7.59000         0.12300
| 17>    C        0.13200         4.30700         0.06100
| 18>    C       -0.56900         3.05600         0.04700
| 19>    C        1.64900         2.61800         0.02300
| 20>    C       -2.41200         5.26100        -0.62400
| 21>    N       -4.37100         6.38500         0.11700
| 22>    N        0.38800         2.06700         0.02500
| 23>    N       -2.01000         0.39500        -0.07500
| 24>    N       -0.38800        -2.07400        -0.02700
| 25>    N        2.01000        -0.40100         0.06500
| 26>    C       -1.96000         2.86100         0.02400
| 27>    C       -2.62300         1.61500        -0.01800
| 28>    C       -5.57300        -4.32900         1.06600
| 29>    C       -4.07300         1.47100         0.05600
| 30>    C       -4.10600        -2.75600        -0.02600
| 31>    C       -4.99500        -2.75700        -1.11100
| 32>    C       -6.13200        -3.54200        -1.07600
| 33>    C       -7.65100        -5.11300         0.04000
| 34>    C       -4.32400         0.14100         0.03700
| 35>    C       -3.02500        -0.52000        -0.04800
| 36>    C       -4.42200        -3.56600         1.07500
| 37>    N       -6.40700        -4.31300         0.00100
| 38>    C       -2.86700        -1.92200        -0.04000
| 39>    C       -1.65000        -2.62400        -0.02700
| 40>    C        3.56800        -6.14200        -1.04000
| 41>    C       -1.47600        -4.04900        -0.03400
| 42>    C        2.80300        -4.09900        -0.00800
| 43>    C        3.65700        -4.38400         1.06900
| 44>    C        4.42700        -5.53000         1.05900
| 45>    C        5.24500        -7.58800         0.01400
| 46>    C       -0.13400        -4.31500        -0.02200
| 47>    C        0.56800        -3.06400        -0.02700
| 48>    C        2.77500        -5.01200        -1.07400
| 49>    N        4.37600        -6.39100         0.01700
| 50>    C        1.95900        -2.86900        -0.00900
| 51>    C        2.62100        -1.62200         0.00900
| 52>    C        5.54300         4.33900        -1.13000
| 53>    C        4.07000        -1.47900        -0.09400
| 54>    C        4.10400         2.75100        -0.02100
| 55>    C        5.02700         2.72900         1.03600
| 56>    C        6.16600         3.50900         0.97800
| 57>    C        7.61900         5.15300        -0.11500
| 58>    C        4.32100        -0.14800        -0.09200
| 59>    C        3.02500         0.51400         0.01500
| 60>    C        4.38700         3.58200        -1.11500
| 61>    C        2.86600         1.91600         0.01300
| 62>    N        6.41300         4.29600        -0.09500
| 63>    H       -2.94100         7.31600        -1.06600
| 64>    H        2.27400         4.76600         0.08100
| 65>    H       -4.37400         3.25000         1.28600
| 66>    H       -5.72400         5.34200         1.29400
| 67>    H       -5.96200         7.50900        -0.68500
| 68>    H       -5.74000         7.65300         1.08400
| 69>    H       -4.60400         8.46900        -0.02600
| 70>    H       -0.33200         5.28200         0.06900
| 71>    H       -1.47900         5.30600        -1.17400
| 72>    H        0.18200         1.07200         0.00500
| 73>    H       -0.18300        -1.08000        -0.02100
| 74>    H       -5.86400        -4.96200         1.89500
| 75>    H       -4.79400         2.27200         0.13900
| 76>    H       -4.80000        -2.16000        -1.99400
| 77>    H       -6.84100        -3.58200        -1.89300
| 78>    H       -8.42800        -4.53600         0.54600
| 79>    H       -7.95600        -5.33700        -0.98100
| 80>    H       -7.45600        -6.03700         0.58400
| 81>    H       -5.28700        -0.34400         0.10000
| 82>    H       -3.78000        -3.60100         1.94700
| 83>    H        3.58700        -6.86800        -1.84300
| 84>    H       -2.27600        -4.77400        -0.05000
| 85>    H        3.71400        -3.72400         1.92600
| 86>    H        5.09200        -5.79500         1.87100
| 87>    H        6.20500        -7.32900        -0.43900
| 88>    H        5.39300        -7.91700         1.04200
| 89>    H        4.75900        -8.37300        -0.56400
| 90>    H        0.32900        -5.29000        -0.00800
| 91>    H        2.14600        -4.84200        -1.94000
| 92>    H        5.80800         4.98600        -1.95600
| 93>    H        4.78800        -2.28100        -0.18500
| 94>    H        4.86000         2.11400         1.91200
| 95>    H        6.90100         3.53100         1.77200
| 96>    H        7.38300         6.10900         0.35600
| 97>    H        8.41400         4.65200         0.43500
| 98>    H        7.92100         5.31000        -1.15000
| 99>    H        5.28300         0.33600        -0.17900
|100>    H        3.72000         3.63200        -1.96700
|101> *
|102> 
|103>                          ****END OF INPUT****
================================================================================

                       ****************************
                       * Single Point Calculation *
                       ****************************

---------------------------------
CARTESIAN COORDINATES (ANGSTROEM)
---------------------------------
  C     -3.208000    6.389000   -0.573000
  C      1.474000    4.041000    0.057000
  C     -2.802000    4.093000    0.049000
  C     -4.015000    4.123000    0.755000
  C     -4.779000    5.273000    0.771000
  C     -5.231000    7.590000    0.123000
  C      0.132000    4.307000    0.061000
  C     -0.569000    3.056000    0.047000
  C      1.649000    2.618000    0.023000
  C     -2.412000    5.261000   -0.624000
  N     -4.371000    6.385000    0.117000
  N      0.388000    2.067000    0.025000
  N     -2.010000    0.395000   -0.075000
  N     -0.388000   -2.074000   -0.027000
  N      2.010000   -0.401000    0.065000
  C     -1.960000    2.861000    0.024000
  C     -2.623000    1.615000   -0.018000
  C     -5.573000   -4.329000    1.066000
  C     -4.073000    1.471000    0.056000
  C     -4.106000   -2.756000   -0.026000
  C     -4.995000   -2.757000   -1.111000
  C     -6.132000   -3.542000   -1.076000
  C     -7.651000   -5.113000    0.040000
  C     -4.324000    0.141000    0.037000
  C     -3.025000   -0.520000   -0.048000
  C     -4.422000   -3.566000    1.075000
  N     -6.407000   -4.313000    0.001000
  C     -2.867000   -1.922000   -0.040000
  C     -1.650000   -2.624000   -0.027000
  C      3.568000   -6.142000   -1.040000
  C     -1.476000   -4.049000   -0.034000
  C      2.803000   -4.099000   -0.008000
  C      3.657000   -4.384000    1.069000
  C      4.427000   -5.530000    1.059000
  C      5.245000   -7.588000    0.014000
  C     -0.134000   -4.315000   -0.022000
  C      0.568000   -3.064000   -0.027000
  C      2.775000   -5.012000   -1.074000
  N      4.376000   -6.391000    0.017000
  C      1.959000   -2.869000   -0.009000
  C      2.621000   -1.622000    0.009000
  C      5.543000    4.339000   -1.130000
  C      4.070000   -1.479000   -0.094000
  C      4.104000    2.751000   -0.021000
  C      5.027000    2.729000    1.036000
  C      6.166000    3.509000    0.978000
  C      7.619000    5.153000   -0.115000
  C      4.321000   -0.148000   -0.092000
  C      3.025000    0.514000    0.015000
  C      4.387000    3.582000   -1.115000
  C      2.866000    1.916000    0.013000
  N      6.413000    4.296000   -0.095000
  H     -2.941000    7.316000   -1.066000
  H      2.274000    4.766000    0.081000
  H     -4.374000    3.250000    1.286000
  H     -5.724000    5.342000    1.294000
  H     -5.962000    7.509000   -0.685000
  H     -5.740000    7.653000    1.084000
  H     -4.604000    8.469000   -0.026000
  H     -0.332000    5.282000    0.069000
  H     -1.479000    5.306000   -1.174000
  H      0.182000    1.072000    0.005000
  H     -0.183000   -1.080000   -0.021000
  H     -5.864000   -4.962000    1.895000
  H     -4.794000    2.272000    0.139000
  H     -4.800000   -2.160000   -1.994000
  H     -6.841000   -3.582000   -1.893000
  H     -8.428000   -4.536000    0.546000
  H     -7.956000   -5.337000   -0.981000
  H     -7.456000   -6.037000    0.584000
  H     -5.287000   -0.344000    0.100000
  H     -3.780000   -3.601000    1.947000
  H      3.587000   -6.868000   -1.843000
  H     -2.276000   -4.774000   -0.050000
  H      3.714000   -3.724000    1.926000
  H      5.092000   -5.795000    1.871000
  H      6.205000   -7.329000   -0.439000
  H      5.393000   -7.917000    1.042000
  H      4.759000   -8.373000   -0.564000
  H      0.329000   -5.290000   -0.008000
  H      2.146000   -4.842000   -1.940000
  H      5.808000    4.986000   -1.956000
  H      4.788000   -2.281000   -0.185000
  H      4.860000    2.114000    1.912000
  H      6.901000    3.531000    1.772000
  H      7.383000    6.109000    0.356000
  H      8.414000    4.652000    0.435000
  H      7.921000    5.310000   -1.150000
  H      5.283000    0.336000   -0.179000
  H      3.720000    3.632000   -1.967000

----------------------------
CARTESIAN COORDINATES (A.U.)
----------------------------
  NO LB      ZA    FRAG     MASS         X           Y           Z
   0 C     6.0000    0    12.011   -6.062241   12.073460   -1.082813
   1 C     6.0000    0    12.011    2.785456    7.636383    0.107714
   2 C     6.0000    0    12.011   -5.295013    7.734649    0.092597
   3 C     6.0000    0    12.011   -7.587250    7.791341    1.426743
   4 C     6.0000    0    12.011   -9.031001    9.964526    1.456979
   5 C     6.0000    0    12.011   -9.885157   14.343021    0.232436
   6 C     6.0000    0    12.011    0.249444    8.139050    0.115273
   7 C     6.0000    0    12.011   -1.075254    5.775003    0.088817
   8 C     6.0000    0    12.011    3.116158    4.947303    0.043464
   9 C     6.0000    0    12.011   -4.558019    9.941849   -1.179189
  10 N     7.0000    0    14.007   -8.259993   12.065901    0.221098
  11 N     7.0000    0    14.007    0.733214    3.906064    0.047243
  12 N     7.0000    0    14.007   -3.798350    0.746442   -0.141729
  13 N     7.0000    0    14.007   -0.733214   -3.919292   -0.051023
  14 N     7.0000    0    14.007    3.798350   -0.757780    0.122832
  15 C     6.0000    0    12.011   -3.703863    5.406506    0.045353
  16 C     6.0000    0    12.011   -4.956752    3.051908   -0.034015
  17 C     6.0000    0    12.011  -10.531444   -8.180624    2.014448
  18 C     6.0000    0    12.011   -7.696855    2.779787    0.105825
  19 C     6.0000    0    12.011   -7.759216   -5.208085   -0.049133
  20 C     6.0000    0    12.011   -9.439182   -5.209975   -2.099486
  21 C     6.0000    0    12.011  -11.587801   -6.693410   -2.033345
  22 C     6.0000    0    12.011  -14.458295   -9.662170    0.075589
  23 C     6.0000    0    12.011   -8.171176    0.266451    0.069920
  24 C     6.0000    0    12.011   -5.716422   -0.982658   -0.090707
  25 C     6.0000    0    12.011   -8.356369   -6.738763    2.031456
  26 N     7.0000    0    14.007  -12.107475   -8.150389    0.001890
  27 C     6.0000    0    12.011   -5.417845   -3.632054   -0.075589
  28 C     6.0000    0    12.011   -3.118048   -4.958641   -0.051023
  29 C     6.0000    0    12.011    6.742543  -11.606698   -1.965315
  30 C     6.0000    0    12.011   -2.789236   -7.651501   -0.064251
  31 C     6.0000    0    12.011    5.296902   -7.745987   -0.015118
  32 C     6.0000    0    12.011    6.910728   -8.284559    2.020117
  33 C     6.0000    0    12.011    8.365818  -10.450186    2.001220
  34 C     6.0000    0    12.011    9.911614  -14.339242    0.026456
  35 C     6.0000    0    12.011   -0.253223   -8.154168   -0.041574
  36 C     6.0000    0    12.011    1.073364   -5.790121   -0.051023
  37 C     6.0000    0    12.011    5.243990   -9.471307   -2.029566
  38 N     7.0000    0    14.007    8.269442  -12.077240    0.032125
  39 C     6.0000    0    12.011    3.701973   -5.421624   -0.017008
  40 C     6.0000    0    12.011    4.952972   -3.065136    0.017008
  41 C     6.0000    0    12.011   10.474752    8.199522   -2.135391
  42 C     6.0000    0    12.011    7.691185   -2.794905   -0.177634
  43 C     6.0000    0    12.011    7.755436    5.198637   -0.039684
  44 C     6.0000    0    12.011    9.499653    5.157063    1.957756
  45 C     6.0000    0    12.011   11.652051    6.631049    1.848152
  46 C     6.0000    0    12.011   14.397823    9.737759   -0.217319
  47 C     6.0000    0    12.011    8.165507   -0.279679   -0.173855
  48 C     6.0000    0    12.011    5.716422    0.971319    0.028346
  49 C     6.0000    0    12.011    8.290229    6.768999   -2.107045
  50 C     6.0000    0    12.011    5.415955    3.620715    0.024566
  51 N     7.0000    0    14.007   12.118814    8.118263   -0.179524
  52 H     1.0000    0     1.008   -5.557685   13.825236   -2.014448
  53 H     1.0000    0     1.008    4.297237    9.006435    0.153068
  54 H     1.0000    0     1.008   -8.265662    6.141610    2.430188
  55 H     1.0000    0     1.008  -10.816792   10.094917    2.445306
  56 H     1.0000    0     1.008  -11.266547   14.189954   -1.294462
  57 H     1.0000    0     1.008  -10.847028   14.462074    2.048463
  58 H     1.0000    0     1.008   -8.700299   16.004091   -0.049133
  59 H     1.0000    0     1.008   -0.627389    9.981533    0.130391
  60 H     1.0000    0     1.008   -2.794905   10.026887   -2.218538
  61 H     1.0000    0     1.008    0.343930    2.025786    0.009449
  62 H     1.0000    0     1.008   -0.345820   -2.040904   -0.039684
  63 H     1.0000    0     1.008  -11.081354   -9.376821    3.581031
  64 H     1.0000    0     1.008   -9.059347    4.293458    0.262672
  65 H     1.0000    0     1.008   -9.070685   -4.081808   -3.768114
  66 H     1.0000    0     1.008  -12.927616   -6.768999   -3.577252
  67 H     1.0000    0     1.008  -15.926612   -8.571798    1.031790
  68 H     1.0000    0     1.008  -15.034661  -10.085468   -1.853821
  69 H     1.0000    0     1.008  -14.089798  -11.408277    1.103600
  70 H     1.0000    0     1.008   -9.990982   -0.650066    0.188973
  71 H     1.0000    0     1.008   -7.143165   -6.804904    3.679297
  72 H     1.0000    0     1.008    6.778448  -12.978639   -3.482765
  73 H     1.0000    0     1.008   -4.301017   -9.021553   -0.094486
  74 H     1.0000    0     1.008    7.018443   -7.037340    3.639613
  75 H     1.0000    0     1.008    9.622485  -10.950963    3.535678
  76 H     1.0000    0     1.008   11.725751  -13.849803   -0.829590
  77 H     1.0000    0     1.008   10.191293  -14.960962    1.969095
  78 H     1.0000    0     1.008    8.993207  -15.822677   -1.065806
  79 H     1.0000    0     1.008    0.621720   -9.996651   -0.015118
  80 H     1.0000    0     1.008    4.055352   -9.150054   -3.666069
  81 H     1.0000    0     1.008   10.975529    9.422175   -3.696304
  82 H     1.0000    0     1.008    9.048009   -4.310465   -0.349599
  83 H     1.0000    0     1.008    9.184069    3.994881    3.613156
  84 H     1.0000    0     1.008   13.041000    6.672623    3.348595
  85 H     1.0000    0     1.008   13.951848   11.544337    0.672743
  86 H     1.0000    0     1.008   15.900156    8.791006    0.822031
  87 H     1.0000    0     1.008   14.968521   10.034446   -2.173185
  88 H     1.0000    0     1.008    9.983423    0.634948   -0.338261
  89 H     1.0000    0     1.008    7.029781    6.863485   -3.717091

--------------------------------
INTERNAL COORDINATES (ANGSTROEM)
--------------------------------
 C      0   0   0     0.000000000000     0.00000000     0.00000000
 C      1   0   0     5.275521585588     0.00000000     0.00000000
 C      1   2   0     2.413158925558    52.87450740     0.00000000
 C      3   1   2     1.403818008148    87.93231790   150.65232602
 C      4   3   1     1.380743278093   120.11515697     0.15623476
 C      5   4   3     2.447998570261   152.55005369     1.54617713
 C      2   1   3     1.368114030335    16.91431676   349.63322706
 C      7   2   1     1.434084376876   108.05010202   154.51775624
 C      2   1   3     1.434123425651   123.16749738    19.71578088
 C      1   2   3     1.381521262956    29.50127334   329.69103442
 N      1   2   3     1.352288800516   134.50863892    43.45652411
 N      9   2   1     1.376127174356   106.58526707   350.40585040
 N     12   9   2     2.925062050624   168.53581413   171.12065651
 N     13  12   9     2.954513327098    91.55032014    11.12112580
 N     14  13  12     2.925371258490    88.43092389   359.84326247
 C      8   7   2     1.404790019896   127.24786865   181.11170171
 C     13  12   9     1.366535034311    81.72106996   188.00453233
 C     14  13  12     5.758810554272    80.56209567   166.76250791
 C     17  13  12     1.459010623676   111.08861209   183.82872609
 C     18  14  13     2.412235892279    27.27532823    36.33507194
 C     20  18  14     1.402692767501    87.95206320   148.94598259
 C     21  20  18     1.382106725257   120.14573887   359.70382047
 C     18  14  13     2.446510985056   144.15733107    82.80075377
 C     19  17  13     1.353610726908   106.29293361   359.75308708
 C     13  12   9     1.366813447402   172.21332906    33.46711076
 C     18  14  13     1.380960173213    15.08449437   309.23336894
 N     22  21  20     1.352773077792   120.73759875     0.27865223
 C     25  13  17     1.410897586645   125.60330303   182.37774668
 C     14  13  12     1.376642291955    80.24689249   177.85461986
 C     14  13  12     5.764089607215   164.51507311   312.20821879
 C     29  14  13     1.435600919476   106.58649366   178.76395472
 C     30  14  13     2.413316804732    27.10625047    82.12560436
 C     32  30  14     1.403734305344    87.90059683   149.76154742
 C     33  32  30     1.380694028378   120.14881443   359.74174632
 C     34  33  32     2.448777858443   152.49203239     2.45173620
 C     31  29  14     1.368160809262   108.16950133     0.70383075
 C     14  13  12     1.376239804685   169.26375223   353.09862627
 C     30  14  13     1.380907310430    14.68948582   353.70041132
 N     34  33  32     1.352658863128   120.85575621     0.19603406
 C     37  14  29     1.404717053360   126.01551127   180.90772073
 C     15  14  13     1.366491126938    81.61824056   183.09049352
 C      2   1   3     4.249062720177   141.74943158   156.18880723
 C     41  15  14     1.459677704153   111.05201287   175.08990246
 C     42   2   1     2.412953791518    41.78584867   191.61860562
 C     44  42   2     1.403446472082    87.95153797   233.97558675
 C     45  44  42     1.381696421071   120.11137308     0.19721020
 C     42   2   1     2.450019795838   135.97209175   101.93345473
 C     43  41  15     1.354461516618   106.26758155     0.30894352
 C     15  14  13     1.367461151185   171.87382904   332.35056460
 C     42   2   1     1.381886391857    32.59078432   240.47388482
 C      9   2   1     1.404988612053   126.98745415   171.41018793
 N     42   2   1     1.352765315936   113.57249190   129.67004392
 H      1   2   3     1.083359127898   102.50080132   192.71781294
 H      2   1   3     1.079907866440   111.18076666   192.27035098
 H      4   3   1     1.083037857141   121.04860495   179.54151982
 H      5   4   3     1.082273070902   122.80917197   179.49877662
 H      6   5   4     1.092605143682   104.42541734   100.16783490
 H      6   5   4     1.089298398053    84.69194016   209.61332083
 H      6   5   4     1.089940824082   133.89030213   322.46154423
 H      7   2   1     1.079807853278   126.66122480   334.75617002
 H     10   1   2     1.083980627133   118.73503186   308.09162152
 H     12   9   2     1.016297692608   125.29023241   180.00180175
 H     14  13  12     1.014936943854    44.97226959   359.42596618
 H     18  14  13     1.082871645210   128.03556573   234.20482432
 H     19  17  13     1.080893611786   126.41830519   178.11313280
 H     21  20  18     1.083569563987   121.05669627   180.67006309
 H     22  21  20     1.082483256222   122.73097286   180.59748951
 H     23  18  14     1.092105306278   103.92715769   234.93429879
 H     23  18  14     1.088871893291   134.19244188    12.25587044
 H     23  18  14     1.089833473518    84.85857450   125.45241208
 H     24  19  17     1.080075460327   127.28078426   178.44613241
 H     26  18  14     1.083408048706   118.76995697   244.94906660
 H     30  14  13     1.082703098730   127.99711412   279.66882698
 H     31  29  14     1.079759695488   125.22293469   180.92530585
 H     33  32  30     1.083188810873   121.01964473   180.74284758
 H     34  33  32     1.082494341787   122.70821597   180.59516895
 H     35  34  33     1.092652735319   105.73575241    97.19771933
 H     35  34  33     1.089462711615    84.05943581   206.43036958
 H     35  34  33     1.089268102902   133.08365142   318.50306270
 H     36  31  29     1.079439669458   126.61599965   178.98859863
 H     38  30  73     1.083742127999   118.77264435   359.90091293
 H     42   2   1     1.082178358682   119.31790784   346.30157437
 H     43  41  15     1.080281907652   126.36969097   182.06329380
 H     45  44  42     1.083277434455   121.10105945   179.58025624
 H     46  45  44     1.082194529648   122.72144639   179.46906377
 H     47  42   2     1.091546151109   106.65128841   315.16475048
 H     47  42   2     1.088818625851   132.46019523    94.52397119
 H     47  42   2     1.089531091801    83.63838232   206.04504406
 H     48  43  41     1.080402239909   127.23657387   181.62955349
 H     50  42   2     1.083186502870   118.77001737    94.71359229

---------------------------
INTERNAL COORDINATES (A.U.)
---------------------------
 C      0   0   0     0.000000000000     0.00000000     0.00000000
 C      1   0   0     9.969291010350     0.00000000     0.00000000
 C      1   2   0     4.560209486932    52.87450740     0.00000000
 C      3   1   2     2.652831577266    87.93231790   150.65232602
 C      4   3   1     2.609226656849   120.11515697     0.15623476
 C      5   4   3     4.626046874024   152.55005369     1.54617713
 C      2   1   3     2.585360837309    16.91431676   349.63322706
 C      7   2   1     2.710026725231   108.05010202   154.51775624
 C      2   1   3     2.710100516721   123.16749738    19.71578088
 C      1   2   3     2.610696835176    29.50127334   329.69103442
 N      1   2   3     2.555455486943   134.50863892    43.45652411
 N      9   2   1     2.600503484979   106.58526707   350.40585040
 N     12   9   2     5.527566200405   168.53581413   171.12065651
 N     13  12   9     5.583221047236    91.55032014    11.12112580
 N     14  13  12     5.528150518591    88.43092389   359.84326247
 C      8   7   2     2.654668413270   127.24786865   181.11170171
 C     13  12   9     2.582376967257    81.72106996   188.00453233
 C     14  13  12    10.882574804710    80.56209567   166.76250791
 C     17  13  12     2.757130505230   111.08861209   183.82872609
 C     18  14  13     4.558465206823    27.27532823    36.33507194
 C     20  18  14     2.650705180609    87.95206320   148.94598259
 C     21  20  18     2.611803198586   120.14573887   359.70382047
 C     18  14  13     4.623235745386   144.15733107    82.80075377
 C     19  17  13     2.557953565794   106.29293361   359.75308708
 C     13  12   9     2.582903091751   172.21332906    33.46711076
 C     18  14  13     2.609636529225    15.08449437   309.23336894
 N     22  21  20     2.556370638369   120.73759875     0.27865223
 C     25  13  17     2.666210041769   125.60330303   182.37774668
 C     14  13  12     2.601476916169    80.24689249   177.85461986
 C     14  13  12    10.892550769017   164.51507311   312.20821879
 C     29  14  13     2.712892575415   106.58649366   178.76395472
 C     30  14  13     4.560507835333    27.10625047    82.12560436
 C     32  30  14     2.652673401891    87.90059683   149.76154742
 C     33  32  30     2.609133588376   120.14881443   359.74174632
 C     34  33  32     4.627519515267   152.49203239     2.45173620
 C     31  29  14     2.585449236669   108.16950133     0.70383075
 C     14  13  12     2.600716325456   169.26375223   353.09862627
 C     30  14  13     2.609536633043    14.68948582   353.70041132
 N     34  33  32     2.556154803934   120.85575621     0.19603406
 C     37  14  29     2.654530526499   126.01551127   180.90772073
 C     15  14  13     2.582293994346    81.61824056   183.09049352
 C      2   1   3     8.029564866989   141.74943158   156.18880723
 C     41  15  14     2.758391104639   111.05201287   175.08990246
 C     42   2   1     4.559821839776    41.78584867   191.61860562
 C     44  42   2     2.652129475853    87.95153797   233.97558675
 C     45  44  42     2.611027836043   120.11137308     0.19721020
 C     42   2   1     4.629866436820   135.97209175   101.93345473
 C     43  41  15     2.559561325344   106.26758155     0.30894352
 C     15  14  13     2.584127074516   171.87382904   332.35056460
 C     42   2   1     2.611386828803    32.59078432   240.47388482
 C      9   2   1     2.655043698059   126.98745415   171.41018793
 N     42   2   1     2.556355970587   113.57249190   129.67004392
 H      1   2   3     2.047252056411   102.50080132   192.71781294
 H      2   1   3     2.040730117440   111.18076666   192.27035098
 H      4   3   1     2.046644942665   121.04860495   179.54151982
 H      5   4   3     2.045199706123   122.80917197   179.49877662
 H      6   5   4     2.064724494072   104.42541734   100.16783490
 H      6   5   4     2.058475650439    84.69194016   209.61332083
 H      6   5   4     2.059689659695   133.89030213   322.46154423
 H      7   2   1     2.040541119952   126.66122480   334.75617002
 H     10   1   2     2.048426519758   118.73503186   308.09162152
 H     12   9   2     1.920524309565   125.29023241   180.00180175
 H     14  13  12     1.917952867083    44.97226959   359.42596618
 H     18  14  13     2.046330847636   128.03556573   234.20482432
 H     19  17  13     2.042592906181   126.41830519   178.11313280
 H     21  20  18     2.047649722989   121.05669627   180.67006309
 H     22  21  20     2.045596898814   122.73097286   180.59748951
 H     23  18  14     2.063779938267   103.92715769   234.93429879
 H     23  18  14     2.057669673245   134.19244188    12.25587044
 H     23  18  14     2.059486796529    84.85857450   125.45241208
 H     24  19  17     2.041046823986   127.28078426   178.44613241
 H     26  18  14     2.047344503340   118.76995697   244.94906660
 H     30  14  13     2.046012340948   127.99711412   279.66882698
 H     31  29  14     2.040450114918   125.22293469   180.92530585
 H     33  32  30     2.046930203877   121.01964473   180.74284758
 H     34  33  32     2.045617847496   122.70821597   180.59516895
 H     35  34  33     2.064814429233   105.73575241    97.19771933
 H     35  34  33     2.058786158072    84.05943581   206.43036958
 H     35  34  33     2.058418400901   133.08365142   318.50306270
 H     36  31  29     2.039845353366   126.61599965   178.98859863
 H     38  30  73     2.047975821711   118.77264435   359.90091293
 H     42   2   1     2.045020725966   119.31790784   346.30157437
 H     43  41  15     2.041436952892   126.36969097   182.06329380
 H     45  44  42     2.047097678177   121.10105945   179.58025624
 H     46  45  44     2.045051284662   122.72144639   179.46906377
 H     47  42   2     2.062723288131   106.65128841   315.16475048
 H     47  42   2     2.057569012371   132.46019523    94.52397119
 H     47  42   2     2.058915377895    83.63838232   206.04504406
 H     48  43  41     2.041664347903   127.23657387   181.62955349
 H     50  42   2     2.046925842384   118.77001737    94.71359229

---------------------
BASIS SET INFORMATION
---------------------
There are 3 groups of distinct atoms

 Group   1 Type C   : 17s4p1d contracted to 3s2p1d pattern {881/31/1}
 Group   2 Type N   : 17s4p1d contracted to 3s2p1d pattern {881/31/1}
 Group   3 Type H   : 4s1p contracted to 2s1p pattern {31/1}

Atom   0C    basis set group =>   1
Atom   1N    basis set group =>   2
Atom   2C    basis set group =>   1
Atom   3N    basis set group =>   2
Atom   4C    basis set group =>   1
Atom   5N    basis set group =>   2
Atom   6C    basis set group =>   1
Atom   7N    basis set group =>   2
Atom   8C    basis set group =>   1
Atom   9N    basis set group =>   2
Atom  10C    basis set group =>   1
Atom  11N    basis set group =>   2
Atom  12C    basis set group =>   1
Atom  13N    basis set group =>   2
Atom  14C    basis set group =>   1
Atom  15N    basis set group =>   2
Atom  16C    basis set group =>   1
Atom  17C    basis set group =>   1
Atom  18C    basis set group =>   1
Atom  19C    basis set group =>   1
Atom  20C    basis set group =>   1
Atom  21C    basis set group =>   1
Atom  22C    basis set group =>   1
Atom  23C    basis set group =>   1
Atom  24C    basis set group =>   1
Atom  25C    basis set group =>   1
Atom  26C    basis set group =>   1
Atom  27C    basis set group =>   1
Atom  28C    basis set group =>   1
Atom  29C    basis set group =>   1
Atom  30C    basis set group =>   1
Atom  31C    basis set group =>   1
Atom  32C    basis set group =>   1
Atom  33C    basis set group =>   1
Atom  34C    basis set group =>   1
Atom  35C    basis set group =>   1
Atom  36C    basis set group =>   1
Atom  37C    basis set group =>   1
Atom  38C    basis set group =>   1
Atom  39C    basis set group =>   1
Atom  40C    basis set group =>   1
Atom  41C    basis set group =>   1
Atom  42C    basis set group =>   1
Atom  43C    basis set group =>   1
Atom  44C    basis set group =>   1
Atom  45C    basis set group =>   1
Atom  46C    basis set group =>   1
Atom  47C    basis set group =>   1
Atom  48C    basis set group =>   1
Atom  49C    basis set group =>   1
Atom  50C    basis set group =>   1
Atom  51C    basis set group =>   1
Atom  52H    basis set group =>   3
Atom  53H    basis set group =>   3
Atom  54H    basis set group =>   3
Atom  55H    basis set group =>   3
Atom  56H    basis set group =>   3
Atom  57H    basis set group =>   3
Atom  58H    basis set group =>   3
Atom  59H    basis set group =>   3
Atom  60H    basis set group =>   3
Atom  61H    basis set group =>   3
Atom  62H    basis set group =>   3
Atom  63H    basis set group =>   3
Atom  64H    basis set group =>   3
Atom  65H    basis set group =>   3
Atom  66H    basis set group =>   3
Atom  67H    basis set group =>   3
Atom  68H    basis set group =>   3
Atom  69H    basis set group =>   3
Atom  70H    basis set group =>   3
Atom  71H    basis set group =>   3
Atom  72H    basis set group =>   3
Atom  73H    basis set group =>   3
Atom  74H    basis set group =>   3
Atom  75H    basis set group =>   3
Atom  76H    basis set group =>   3
Atom  77H    basis set group =>   3
Atom  78H    basis set group =>   3
Atom  79H    basis set group =>   3
Atom  80H    basis set group =>   3
Atom  81H    basis set group =>   3
Atom  82H    basis set group =>   3
Atom  83H    basis set group =>   3
Atom  84H    basis set group =>   3
Atom  85H    basis set group =>   3
Atom  86H    basis set group =>   3
Atom  87H    basis set group =>   3
Atom  88H    basis set group =>   3
Atom  89H    basis set group =>   3


           ************************************************************
           *        Program running with 16 parallel MPI-processes    *
           *              working on a common directory               *
           ************************************************************
------------------------------------------------------------------------------
                           ORCA GTO INTEGRAL CALCULATION
------------------------------------------------------------------------------
------------------------------------------------------------------------------
                   ___                                                        
                  /   \      - P O W E R E D   B Y -                         
                 /     \                                                     
                 |  |  |   _    _      __       _____    __    __             
                 |  |  |  | |  | |    /  \     |  _  \  |  |  /  |          
                  \  \/   | |  | |   /    \    | | | |  |  | /  /          
                 / \  \   | |__| |  /  /\  \   | |_| |  |  |/  /          
                |  |  |   |  __  | /  /__\  \  |    /   |      \           
                |  |  |   | |  | | |   __   |  |    \   |  |\   \          
                \     /   | |  | | |  |  |  |  | |\  \  |  | \   \       
                 \___/    |_|  |_| |__|  |__|  |_| \__\ |__|  \__/        
                                                                              
                      - O R C A' S   B I G   F R I E N D -                    
                                      &                                       
                       - I N T E G R A L  F E E D E R -                       
                                                                              
 v1 FN, 2020, v2 2021                                                         
------------------------------------------------------------------------------


Reading SHARK input file /scratch/allen/tmpyp4_amber_gaff2/conf1/conf1/Conf37.orca.SHARKINP.tmp ... ok
----------------------
SHARK INTEGRAL PACKAGE
----------------------

Number of atoms                             ...     90
Number of basis functions                   ...   1230
Number of shells                            ...    738
Maximum angular momentum                    ...      2
Integral batch strategy                     ... SHARK/LIBINT Hybrid
RI-J (if used) integral strategy            ... SPLIT-RIJ (Revised 2003 algorithm where possible)
Printlevel                                  ...      1
Contraction scheme used                     ... PARTIAL GENERAL contraction
Coulomb Range Separation                    ... NOT USED
Exchange Range Separation                   ... NOT USED
Finite Nucleus Model                        ... NOT USED
Auxiliary Coulomb fitting basis             ... NOT available
Auxiliary J/K fitting basis                 ... NOT available
Auxiliary Correlation fitting basis         ... NOT available
Auxiliary 'external' fitting basis          ... NOT available
Integral threshold                          ...     2.500000e-11
Primitive cut-off                           ...     2.500000e-12
Primitive pair pre-selection threshold      ...     2.500000e-12

Calculating pre-screening integrals         ... done (  0.1 sec) Dimension = 738
Calculating pre-screening integrals (ORCA)  ... done (  0.3 sec) Dimension = 426
Organizing shell pair data                  ... done (  0.8 sec)
Shell pair information
Total number of shell pairs                 ...    272691
Shell pairs after pre-screening             ...     71646
Total number of primitive shell pairs       ...    422091
Primitive shell pairs kept                  ...     92472
          la=0 lb=0:  29417 shell pairs
          la=1 lb=0:  25992 shell pairs
          la=1 lb=1:   4705 shell pairs
          la=2 lb=0:   7880 shell pairs
          la=2 lb=1:   3122 shell pairs
          la=2 lb=2:    530 shell pairs

Calculating one electron integrals          ... done (  0.3 sec)
Calculating Nuclear repulsion               ... done (  0.0 sec) ENN=   6230.294140209770 Eh

SHARK setup successfully completed in   2.2 seconds

Maximum memory used throughout the entire GTOINT-calculation: 99.0 MB


           ************************************************************
           *        Program running with 16 parallel MPI-processes    *
           *              working on a common directory               *
           ************************************************************
-------------------------------------------------------------------------------
                                 ORCA SCF
-------------------------------------------------------------------------------

------------
SCF SETTINGS
------------
Hamiltonian:
 Ab initio Hamiltonian  Method          .... Hartree-Fock(GTOs)


General Settings:
 Integral files         IntName         .... /scratch/allen/tmpyp4_amber_gaff2/conf1/conf1/Conf37.orca
 Hartree-Fock type      HFTyp           .... RHF
 Total Charge           Charge          ....    0
 Multiplicity           Mult            ....    1
 Number of Electrons    NEL             ....  358
 Basis Dimension        Dim             ....  918
 Nuclear Repulsion      ENuc            ....   6230.2941402098 Eh

Convergence Acceleration:
 DIIS                   CNVDIIS         .... on
   Start iteration      DIISMaxIt       ....    12
   Startup error        DIISStart       ....  0.200000
   # of expansion vecs  DIISMaxEq       ....     5
   Bias factor          DIISBfac        ....   1.050
   Max. coefficient     DIISMaxC        ....  10.000
 Trust-Rad. Augm. Hess. CNVTRAH         .... auto
   Auto Start mean grad. ratio tolernc. ....  1.125000
   Auto Start start iteration           ....    20
   Auto Start num. interpolation iter.  ....    10
   Max. Number of Micro iterations      ....    16
   Max. Number of Macro iterations      .... Maxiter - #DIIS iter
   Number of Davidson start vectors     ....     2
   Converg. threshold I  (grad. norm)   ....   1.000e-05
   Converg. threshold II (energy diff.) ....   1.000e-08
   Grad. Scal. Fac. for Micro threshold ....   0.100
   Minimum threshold for Micro iter.    ....   0.010
   NR start threshold (gradient norm)   ....   0.001
   Initial trust radius                 ....   0.400
   Minimum AH scaling param. (alpha)    ....   1.000
   Maximum AH scaling param. (alpha)    .... 1000.000
   Orbital update algorithm             .... Taylor
   White noise on init. David. guess    .... on
   Maximum white noise                  ....   0.010
   Quad. conv. algorithm                .... NR
 SOSCF                  CNVSOSCF        .... on
   Start iteration      SOSCFMaxIt      ....   150
   Startup grad/error   SOSCFStart      ....  0.003300
 Level Shifting         CNVShift        .... on
   Level shift para.    LevelShift      ....    0.2500
   Turn off err/grad.   ShiftErr        ....    0.0010
 Zerner damping         CNVZerner       .... off
 Static damping         CNVDamp         .... on
   Fraction old density DampFac         ....    0.7000
   Max. Damping (<1)    DampMax         ....    0.9800
   Min. Damping (>=0)   DampMin         ....    0.0000
   Turn off err/grad.   DampErr         ....    0.1000
 Fernandez-Rico         CNVRico         .... off

SCF Procedure:
 Maximum # iterations   MaxIter         ....   125
 SCF integral mode      SCFMode         .... Direct
   Integral package                     .... SHARK and LIBINT hybrid scheme
 Reset frequency        DirectResetFreq ....    20
 Integral Threshold     Thresh          ....  2.500e-11 Eh
 Primitive CutOff       TCut            ....  2.500e-12 Eh

Convergence Tolerance:
 Convergence Check Mode ConvCheckMode   .... Total+1el-Energy
 Convergence forced     ConvForced      .... 1
 Energy Change          TolE            ....  1.000e-08 Eh
 1-El. energy change                    ....  1.000e-05 Eh
 Orbital Gradient       TolG            ....  1.000e-05
 Orbital Rotation angle TolX            ....  1.000e-05
 DIIS Error             TolErr          ....  5.000e-07


Diagonalization of the overlap matrix:
Smallest eigenvalue                        ... 2.206e-04
Time for diagonalization                   ...    0.350 sec
Threshold for overlap eigenvalues          ... 1.000e-08
Number of eigenvalues below threshold      ... 0
Time for construction of square roots      ...    0.253 sec
Total time needed                          ...    0.609 sec

Time for model grid setup =    1.065 sec

------------------------------
INITIAL GUESS: MODEL POTENTIAL
------------------------------
Loading Hartree-Fock densities                     ... done
Calculating cut-offs                               ... done
Initializing the effective Hamiltonian             ... done
Setting up the integral package (SHARK)            ... done
Starting the Coulomb interaction                   ... done (   1.1 sec)
Reading the grid                                   ... done
Mapping shells                                     ... done
Starting the XC term evaluation                    ... done (   0.2 sec)
Transforming the Hamiltonian                       ... done (   0.2 sec)
Diagonalizing the Hamiltonian                      ... done (   0.3 sec)
Back transforming the eigenvectors                 ... done (   0.1 sec)
Now organizing SCF variables                       ... done
                      ------------------
                      INITIAL GUESS DONE (   3.1 sec)
                      ------------------
--------------
SCF ITERATIONS
--------------
ITER       Energy         Delta-E        Max-DP      RMS-DP      [F,P]     Damp
               ***  Starting incremental Fock matrix formation  ***
  0  -2121.6854086953   0.000000000000 0.06921674  0.00121616  0.2322686 0.7000
  1  -2122.3414052657  -0.655996570385 0.05236579  0.00098908  0.1438573 0.7000
                               ***Turning on DIIS***
  2  -2122.7491766791  -0.407771413420 0.12283706  0.00224332  0.0802358 0.0000
  3  -2117.8976250076   4.851551671461 0.03575701  0.00067692  0.0439449 0.0000
  4  -2123.4218339580  -5.524208950334 0.01115328  0.00022644  0.0077852 0.0000
  5  -2123.5832326725  -0.161398714541 0.00548865  0.00013313  0.0049609 0.0000
  6  -2123.5669811688   0.016251503686 0.00364895  0.00008557  0.0019910 0.0000
  7  -2123.6657691550  -0.098787986177 0.00299998  0.00006728  0.0015593 0.0000
  8  -2123.6778503757  -0.012081220701 0.00315090  0.00006335  0.0014538 0.0000
  9  -2123.6466362659   0.031214109795 0.00251638  0.00004397  0.0011608 0.0000
 10  -2123.6567179112  -0.010081645276 0.00506201  0.00009032  0.0008962 0.0000
                      *** Initiating the SOSCF procedure ***
                           *** Shutting down DIIS ***
                      *** Re-Reading the Fockian *** 
                      *** Removing any level shift *** 
ITER      Energy       Delta-E        Grad      Rot      Max-DP    RMS-DP
 11  -2123.54620784   0.1105100740  0.000205  0.000205  0.000242  0.000005
               *** Restarting incremental Fock matrix formation ***
 12  -2123.61248154  -0.0662737077  0.000878  0.005898  0.001287  0.000033
 13  -2123.61257713  -0.0000955836  0.001064  0.028870  0.006079  0.000128
 14  -2123.61274072  -0.0001635907  0.000346  0.002032  0.000615  0.000012
 15  -2123.61275663  -0.0000159158  0.000178  0.003318  0.000879  0.000019
 16  -2123.61276691  -0.0000102764  0.000165  0.003275  0.000511  0.000012
 17  -2123.61277054  -0.0000036336  0.000152  0.002163  0.000358  0.000008
 18  -2123.61277256  -0.0000020141  0.000078  0.000977  0.000316  0.000005
 19  -2123.61277351  -0.0000009482  0.000047  0.000801  0.000176  0.000004
 20  -2123.61277383  -0.0000003275  0.000027  0.000522  0.000103  0.000002
 21  -2123.61277402  -0.0000001899  0.000027  0.000630  0.000127  0.000002
 22  -2123.61277416  -0.0000001373  0.000021  0.000588  0.000107  0.000002
 23  -2123.61277424  -0.0000000790  0.000012  0.000389  0.000070  0.000001
 24  -2123.61277428  -0.0000000426  0.000007  0.000285  0.000047  0.000001
 25  -2123.61277431  -0.0000000265  0.000008  0.000190  0.000032  0.000001
 26  -2123.61277432  -0.0000000143  0.000006  0.000184  0.000030  0.000001
 27  -2123.61277433  -0.0000000072  0.000004  0.000145  0.000025  0.000001
                  ***Gradient check signals convergence***
              ***Rediagonalizing the Fockian in SOSCF/NRSCF***

               *****************************************************
               *                     SUCCESS                       *
               *           SCF CONVERGED AFTER  28 CYCLES          *
               *****************************************************


----------------
TOTAL SCF ENERGY
----------------

Total Energy       :        -2123.61277433 Eh          -57786.44140 eV

Components:
Nuclear Repulsion  :         6230.29414021 Eh          169534.92254 eV
Electronic Energy  :        -8353.90691454 Eh         -227321.36394 eV
One Electron Energy:       -15301.40841699 Eh         -416372.49099 eV
Two Electron Energy:         6947.50150245 Eh          189051.12706 eV

Virial components:
Potential Energy   :        -4245.75351397 Eh         -115532.82669 eV
Kinetic Energy     :         2122.14073964 Eh           57746.38530 eV
Virial Ratio       :            2.00069366


---------------
SCF CONVERGENCE
---------------

  Last Energy change         ...   -2.6430e-09  Tolerance :   1.0000e-08
  Last MAX-Density change    ...    1.4129e-05  Tolerance :   1.0000e-07
  Last RMS-Density change    ...    3.2119e-07  Tolerance :   5.0000e-09
  Last Orbital Gradient      ...    2.4679e-06  Tolerance :   1.0000e-05
  Last Orbital Rotation      ...    8.8868e-05  Tolerance :   1.0000e-05

             **** THE GBW FILE WAS UPDATED (/scratch/allen/tmpyp4_amber_gaff2/conf1/conf1/Conf37.orca.gbw) ****
             **** DENSITY /scratch/allen/tmpyp4_amber_gaff2/conf1/conf1/Conf37.orca.scfp WAS UPDATED ****
             **** ENERGY FILE WAS UPDATED (/scratch/allen/tmpyp4_amber_gaff2/conf1/conf1/Conf37.orca.en.tmp) ****
             **** THE GBW FILE WAS UPDATED (/scratch/allen/tmpyp4_amber_gaff2/conf1/conf1/Conf37.orca.gbw) ****
             **** DENSITY /scratch/allen/tmpyp4_amber_gaff2/conf1/conf1/Conf37.orca.scfp WAS UPDATED ****
----------------
ORBITAL ENERGIES
----------------

  NO   OCC          E(Eh)            E(eV) 
   0   2.0000     -15.668618      -426.3648 
   1   2.0000     -15.635173      -425.4547 
   2   2.0000     -15.630682      -425.3325 
   3   2.0000     -15.595180      -424.3664 
   4   2.0000     -15.523944      -422.4280 
   5   2.0000     -15.516346      -422.2212 
   6   2.0000     -15.451442      -420.4551 
   7   2.0000     -15.441941      -420.1966 
   8   2.0000     -11.321032      -308.0609 
   9   2.0000     -11.320331      -308.0419 
  10   2.0000     -11.318749      -307.9988 
  11   2.0000     -11.300067      -307.4905 
  12   2.0000     -11.297567      -307.4224 
  13   2.0000     -11.293416      -307.3095 
  14   2.0000     -11.289532      -307.2038 
  15   2.0000     -11.288206      -307.1677 
  16   2.0000     -11.286098      -307.1103 
  17   2.0000     -11.275978      -306.8349 
  18   2.0000     -11.271559      -306.7147 
  19   2.0000     -11.260168      -306.4047 
  20   2.0000     -11.258160      -306.3501 
  21   2.0000     -11.255527      -306.2785 
  22   2.0000     -11.254583      -306.2528 
  23   2.0000     -11.238774      -305.8226 
  24   2.0000     -11.235413      -305.7311 
  25   2.0000     -11.232049      -305.6396 
  26   2.0000     -11.231245      -305.6177 
  27   2.0000     -11.228830      -305.5520 
  28   2.0000     -11.228735      -305.5494 
  29   2.0000     -11.208434      -304.9970 
  30   2.0000     -11.207313      -304.9665 
  31   2.0000     -11.204401      -304.8872 
  32   2.0000     -11.198626      -304.7301 
  33   2.0000     -11.196790      -304.6801 
  34   2.0000     -11.190770      -304.5163 
  35   2.0000     -11.189928      -304.4934 
  36   2.0000     -11.186513      -304.4005 
  37   2.0000     -11.183997      -304.3320 
  38   2.0000     -11.183015      -304.3053 
  39   2.0000     -11.172559      -304.0208 
  40   2.0000     -11.170626      -303.9682 
  41   2.0000     -11.169891      -303.9482 
  42   2.0000     -11.166092      -303.8448 
  43   2.0000     -11.162553      -303.7485 
  44   2.0000     -11.160604      -303.6955 
  45   2.0000     -11.159248      -303.6586 
  46   2.0000     -11.156989      -303.5971 
  47   2.0000     -11.152746      -303.4816 
  48   2.0000     -11.149114      -303.3828 
  49   2.0000     -11.142314      -303.1978 
  50   2.0000     -11.134101      -302.9743 
  51   2.0000     -11.126007      -302.7540 
  52   2.0000      -1.350880       -36.7593 
  53   2.0000      -1.322252       -35.9803 
  54   2.0000      -1.318574       -35.8802 
  55   2.0000      -1.288696       -35.0672 
  56   2.0000      -1.224175       -33.3115 
  57   2.0000      -1.211011       -32.9533 
  58   2.0000      -1.169994       -31.8372 
  59   2.0000      -1.153110       -31.3777 
  60   2.0000      -1.135659       -30.9028 
  61   2.0000      -1.110994       -30.2317 
  62   2.0000      -1.108084       -30.1525 
  63   2.0000      -1.083840       -29.4928 
  64   2.0000      -1.073256       -29.2048 
  65   2.0000      -1.046374       -28.4733 
  66   2.0000      -1.043284       -28.3892 
  67   2.0000      -1.035876       -28.1876 
  68   2.0000      -1.016827       -27.6693 
  69   2.0000      -1.013911       -27.5899 
  70   2.0000      -1.009848       -27.4794 
  71   2.0000      -0.992333       -27.0028 
  72   2.0000      -0.987377       -26.8679 
  73   2.0000      -0.978166       -26.6172 
  74   2.0000      -0.972736       -26.4695 
  75   2.0000      -0.960237       -26.1294 
  76   2.0000      -0.952105       -25.9081 
  77   2.0000      -0.947363       -25.7791 
  78   2.0000      -0.935573       -25.4582 
  79   2.0000      -0.920502       -25.0481 
  80   2.0000      -0.902929       -24.5699 
  81   2.0000      -0.892321       -24.2813 
  82   2.0000      -0.874283       -23.7905 
  83   2.0000      -0.871276       -23.7086 
  84   2.0000      -0.867327       -23.6012 
  85   2.0000      -0.856164       -23.2974 
  86   2.0000      -0.842898       -22.9364 
  87   2.0000      -0.837013       -22.7763 
  88   2.0000      -0.823324       -22.4038 
  89   2.0000      -0.798327       -21.7236 
  90   2.0000      -0.793306       -21.5869 
  91   2.0000      -0.747447       -20.3391 
  92   2.0000      -0.739621       -20.1261 
  93   2.0000      -0.732081       -19.9209 
  94   2.0000      -0.723138       -19.6776 
  95   2.0000      -0.721251       -19.6262 
  96   2.0000      -0.714642       -19.4464 
  97   2.0000      -0.708541       -19.2804 
  98   2.0000      -0.704592       -19.1729 
  99   2.0000      -0.696029       -18.9399 
 100   2.0000      -0.695290       -18.9198 
 101   2.0000      -0.683046       -18.5866 
 102   2.0000      -0.678668       -18.4675 
 103   2.0000      -0.677060       -18.4237 
 104   2.0000      -0.676973       -18.4214 
 105   2.0000      -0.672411       -18.2972 
 106   2.0000      -0.667121       -18.1533 
 107   2.0000      -0.661645       -18.0043 
 108   2.0000      -0.655247       -17.8302 
 109   2.0000      -0.653951       -17.7949 
 110   2.0000      -0.650293       -17.6954 
 111   2.0000      -0.644444       -17.5362 
 112   2.0000      -0.641465       -17.4551 
 113   2.0000      -0.638231       -17.3671 
 114   2.0000      -0.637970       -17.3600 
 115   2.0000      -0.627511       -17.0755 
 116   2.0000      -0.626522       -17.0485 
 117   2.0000      -0.617238       -16.7959 
 118   2.0000      -0.613311       -16.6890 
 119   2.0000      -0.611834       -16.6489 
 120   2.0000      -0.610504       -16.6127 
 121   2.0000      -0.604419       -16.4471 
 122   2.0000      -0.600743       -16.3470 
 123   2.0000      -0.587402       -15.9840 
 124   2.0000      -0.583342       -15.8735 
 125   2.0000      -0.581350       -15.8193 
 126   2.0000      -0.579593       -15.7715 
 127   2.0000      -0.577244       -15.7076 
 128   2.0000      -0.564963       -15.3734 
 129   2.0000      -0.558793       -15.2055 
 130   2.0000      -0.552875       -15.0445 
 131   2.0000      -0.548110       -14.9148 
 132   2.0000      -0.541959       -14.7475 
 133   2.0000      -0.538279       -14.6473 
 134   2.0000      -0.537731       -14.6324 
 135   2.0000      -0.535384       -14.5685 
 136   2.0000      -0.526570       -14.3287 
 137   2.0000      -0.524072       -14.2607 
 138   2.0000      -0.516560       -14.0563 
 139   2.0000      -0.514554       -14.0017 
 140   2.0000      -0.511934       -13.9304 
 141   2.0000      -0.511179       -13.9099 
 142   2.0000      -0.508740       -13.8435 
 143   2.0000      -0.503265       -13.6945 
 144   2.0000      -0.501369       -13.6429 
 145   2.0000      -0.497599       -13.5404 
 146   2.0000      -0.493962       -13.4414 
 147   2.0000      -0.485258       -13.2045 
 148   2.0000      -0.481889       -13.1129 
 149   2.0000      -0.467520       -12.7219 
 150   2.0000      -0.465018       -12.6538 
 151   2.0000      -0.456848       -12.4315 
 152   2.0000      -0.449667       -12.2361 
 153   2.0000      -0.445768       -12.1300 
 154   2.0000      -0.442665       -12.0455 
 155   2.0000      -0.438707       -11.9378 
 156   2.0000      -0.430335       -11.7100 
 157   2.0000      -0.422133       -11.4868 
 158   2.0000      -0.402451       -10.9513 
 159   2.0000      -0.387855       -10.5541 
 160   2.0000      -0.380435       -10.3522 
 161   2.0000      -0.378130       -10.2894 
 162   2.0000      -0.370110       -10.0712 
 163   2.0000      -0.357397        -9.7253 
 164   2.0000      -0.354980        -9.6595 
 165   2.0000      -0.339320        -9.2334 
 166   2.0000      -0.337243        -9.1768 
 167   2.0000      -0.328590        -8.9414 
 168   2.0000      -0.326629        -8.8880 
 169   2.0000      -0.302807        -8.2398 
 170   2.0000      -0.299835        -8.1589 
 171   2.0000      -0.286620        -7.7993 
 172   2.0000      -0.283410        -7.7120 
 173   2.0000      -0.261619        -7.1190 
 174   2.0000      -0.244078        -6.6417 
 175   2.0000      -0.189660        -5.1609 
 176   2.0000      -0.179941        -4.8964 
 177   2.0000      -0.073817        -2.0087 
 178   2.0000      -0.057683        -1.5696 
 179   0.0000       0.028829         0.7845 
 180   0.0000       0.067255         1.8301 
 181   0.0000       0.091720         2.4958 
 182   0.0000       0.107462         2.9242 
 183   0.0000       0.113596         3.0911 
 184   0.0000       0.136397         3.7116 
 185   0.0000       0.140000         3.8096 
 186   0.0000       0.146753         3.9933 
 187   0.0000       0.162765         4.4291 
 188   0.0000       0.164477         4.4756 
 189   0.0000       0.166195         4.5224 
 190   0.0000       0.166414         4.5283 
 191   0.0000       0.184431         5.0186 
 192   0.0000       0.186269         5.0686 
 193   0.0000       0.189665         5.1610 
 194   0.0000       0.204301         5.5593 
 195   0.0000       0.206276         5.6131 
 196   0.0000       0.207609         5.6493 
 197   0.0000       0.209303         5.6954 
 198   0.0000       0.221976         6.0403 
 199   0.0000       0.224475         6.1083 
 200   0.0000       0.228637         6.2215 
 201   0.0000       0.238213         6.4821 
 202   0.0000       0.239787         6.5249 
 203   0.0000       0.240479         6.5438 
 204   0.0000       0.249926         6.8008 
 205   0.0000       0.256044         6.9673 
 206   0.0000       0.256529         6.9805 
 207   0.0000       0.258337         7.0297 
 208   0.0000       0.259521         7.0619 
 209   0.0000       0.262429         7.1411 
 210   0.0000       0.263654         7.1744 
 211   0.0000       0.270287         7.3549 
 212   0.0000       0.270833         7.3697 
 213   0.0000       0.272501         7.4151 
 214   0.0000       0.274685         7.4745 
 215   0.0000       0.276046         7.5116 
 216   0.0000       0.278528         7.5791 
 217   0.0000       0.282117         7.6768 
 218   0.0000       0.285404         7.7662 
 219   0.0000       0.288433         7.8487 
 220   0.0000       0.290045         7.8925 
 221   0.0000       0.292847         7.9688 
 222   0.0000       0.294880         8.0241 
 223   0.0000       0.296801         8.0764 
 224   0.0000       0.296957         8.0806 
 225   0.0000       0.298520         8.1231 
 226   0.0000       0.306378         8.3370 
 227   0.0000       0.308078         8.3832 
 228   0.0000       0.309891         8.4326 
 229   0.0000       0.323997         8.8164 
 230   0.0000       0.324599         8.8328 
 231   0.0000       0.328354         8.9350 
 232   0.0000       0.330880         9.0037 
 233   0.0000       0.335179         9.1207 
 234   0.0000       0.349649         9.5144 
 235   0.0000       0.351875         9.5750 
 236   0.0000       0.363663         9.8958 
 237   0.0000       0.379719        10.3327 
 238   0.0000       0.394520        10.7354 
 239   0.0000       0.397229        10.8091 
 240   0.0000       0.400787        10.9060 
 241   0.0000       0.412816        11.2333 
 242   0.0000       0.417773        11.3682 
 243   0.0000       0.420115        11.4319 
 244   0.0000       0.429339        11.6829 
 245   0.0000       0.433595        11.7987 
 246   0.0000       0.435308        11.8453 
 247   0.0000       0.440853        11.9962 
 248   0.0000       0.441980        12.0269 
 249   0.0000       0.447877        12.1873 
 250   0.0000       0.451882        12.2963 
 251   0.0000       0.458983        12.4896 
 252   0.0000       0.464695        12.6450 
 253   0.0000       0.468137        12.7386 
 254   0.0000       0.471177        12.8214 
 255   0.0000       0.472955        12.8697 
 256   0.0000       0.480248        13.0682 
 257   0.0000       0.482257        13.1229 
 258   0.0000       0.487115        13.2551 
 259   0.0000       0.498482        13.5644 
 260   0.0000       0.503625        13.7043 
 261   0.0000       0.504994        13.7416 
 262   0.0000       0.506767        13.7898 
 263   0.0000       0.507425        13.8077 
 264   0.0000       0.514147        13.9906 
 265   0.0000       0.519476        14.1357 
 266   0.0000       0.524722        14.2784 
 267   0.0000       0.526064        14.3149 
 268   0.0000       0.532698        14.4954 
 269   0.0000       0.537060        14.6142 
 270   0.0000       0.540474        14.7071 
 271   0.0000       0.547701        14.9037 
 272   0.0000       0.551433        15.0053 
 273   0.0000       0.558649        15.2016 
 274   0.0000       0.560434        15.2502 
 275   0.0000       0.564758        15.3678 
 276   0.0000       0.570390        15.5211 
 277   0.0000       0.572358        15.5747 
 278   0.0000       0.578151        15.7323 
 279   0.0000       0.586290        15.9538 
 280   0.0000       0.588830        16.0229 
 281   0.0000       0.592655        16.1270 
 282   0.0000       0.593089        16.1388 
 283   0.0000       0.595907        16.2154 
 284   0.0000       0.598276        16.2799 
 285   0.0000       0.600181        16.3317 
 286   0.0000       0.607625        16.5343 
 287   0.0000       0.612825        16.6758 
 288   0.0000       0.615212        16.7408 
 289   0.0000       0.619668        16.8620 
 290   0.0000       0.627156        17.0658 
 291   0.0000       0.630595        17.1594 
 292   0.0000       0.633869        17.2485 
 293   0.0000       0.636658        17.3243 
 294   0.0000       0.645809        17.5734 
 295   0.0000       0.648647        17.6506 
 296   0.0000       0.654029        17.7970 
 297   0.0000       0.656704        17.8698 
 298   0.0000       0.664743        18.0886 
 299   0.0000       0.667979        18.1766 
 300   0.0000       0.669883        18.2285 
 301   0.0000       0.673117        18.3165 
 302   0.0000       0.678191        18.4545 
 303   0.0000       0.680353        18.5133 
 304   0.0000       0.681076        18.5330 
 305   0.0000       0.685870        18.6635 
 306   0.0000       0.689619        18.7655 
 307   0.0000       0.690966        18.8021 
 308   0.0000       0.696314        18.9477 
 309   0.0000       0.698011        18.9939 
 310   0.0000       0.702634        19.1196 
 311   0.0000       0.703516        19.1436 
 312   0.0000       0.706131        19.2148 
 313   0.0000       0.710361        19.3299 
 314   0.0000       0.711319        19.3560 
 315   0.0000       0.714994        19.4560 
 316   0.0000       0.717612        19.5272 
 317   0.0000       0.718547        19.5527 
 318   0.0000       0.719744        19.5852 
 319   0.0000       0.724645        19.7186 
 320   0.0000       0.725814        19.7504 
 321   0.0000       0.730933        19.8897 
 322   0.0000       0.732608        19.9353 
 323   0.0000       0.735223        20.0064 
 324   0.0000       0.736903        20.0521 
 325   0.0000       0.740284        20.1442 
 326   0.0000       0.743175        20.2228 
 327   0.0000       0.744120        20.2485 
 328   0.0000       0.749121        20.3846 
 329   0.0000       0.749850        20.4044 
 330   0.0000       0.754624        20.5344 
 331   0.0000       0.756699        20.5908 
 332   0.0000       0.760676        20.6990 
 333   0.0000       0.761983        20.7346 
 334   0.0000       0.767983        20.8979 
 335   0.0000       0.772786        21.0286 
 336   0.0000       0.774387        21.0721 
 337   0.0000       0.780373        21.2350 
 338   0.0000       0.783531        21.3210 
 339   0.0000       0.789309        21.4782 
 340   0.0000       0.791048        21.5255 
 341   0.0000       0.795118        21.6363 
 342   0.0000       0.796984        21.6870 
 343   0.0000       0.803692        21.8696 
 344   0.0000       0.805045        21.9064 
 345   0.0000       0.807296        21.9676 
 346   0.0000       0.808353        21.9964 
 347   0.0000       0.810606        22.0577 
 348   0.0000       0.814553        22.1651 
 349   0.0000       0.819114        22.2892 
 350   0.0000       0.819691        22.3049 
 351   0.0000       0.823487        22.4082 
 352   0.0000       0.824588        22.4382 
 353   0.0000       0.825596        22.4656 
 354   0.0000       0.828110        22.5340 
 355   0.0000       0.831832        22.6353 
 356   0.0000       0.833399        22.6779 
 357   0.0000       0.836554        22.7638 
 358   0.0000       0.837222        22.7820 
 359   0.0000       0.838174        22.8079 
 360   0.0000       0.839233        22.8367 
 361   0.0000       0.843508        22.9530 
 362   0.0000       0.844570        22.9819 
 363   0.0000       0.846418        23.0322 
 364   0.0000       0.847218        23.0540 
 365   0.0000       0.853100        23.2140 
 366   0.0000       0.856415        23.3042 
 367   0.0000       0.860119        23.4050 
 368   0.0000       0.863621        23.5003 
 369   0.0000       0.865152        23.5420 
 370   0.0000       0.867323        23.6011 
 371   0.0000       0.872138        23.7321 
 372   0.0000       0.873908        23.7802 
 373   0.0000       0.877010        23.8647 
 374   0.0000       0.880823        23.9684 
 375   0.0000       0.883926        24.0528 
 376   0.0000       0.885889        24.1063 
 377   0.0000       0.888578        24.1794 
 378   0.0000       0.888723        24.1834 
 379   0.0000       0.893870        24.3234 
 380   0.0000       0.897674        24.4270 
 381   0.0000       0.899483        24.4762 
 382   0.0000       0.901254        24.5244 
 383   0.0000       0.901892        24.5417 
 384   0.0000       0.903078        24.5740 
 385   0.0000       0.904511        24.6130 
 386   0.0000       0.907286        24.6885 
 387   0.0000       0.908911        24.7327 
 388   0.0000       0.910694        24.7813 
 389   0.0000       0.916576        24.9413 
 390   0.0000       0.920382        25.0449 
 391   0.0000       0.923249        25.1229 
 392   0.0000       0.924858        25.1667 
 393   0.0000       0.925897        25.1949 
 394   0.0000       0.926992        25.2247 
 395   0.0000       0.930461        25.3191 
 396   0.0000       0.933723        25.4079 
 397   0.0000       0.936549        25.4848 
 398   0.0000       0.940397        25.5895 
 399   0.0000       0.941594        25.6221 
 400   0.0000       0.944148        25.6916 
 401   0.0000       0.947302        25.7774 
 402   0.0000       0.953002        25.9325 
 403   0.0000       0.956521        26.0283 
 404   0.0000       0.959820        26.1180 
 405   0.0000       0.960793        26.1445 
 406   0.0000       0.964080        26.2339 
 407   0.0000       0.967229        26.3196 
 408   0.0000       0.969210        26.3735 
 409   0.0000       0.977008        26.5858 
 410   0.0000       0.980153        26.6713 
 411   0.0000       0.986014        26.8308 
 412   0.0000       0.987487        26.8709 
 413   0.0000       0.994084        27.0504 
 414   0.0000       0.996711        27.1219 
 415   0.0000       0.998393        27.1677 
 416   0.0000       1.003178        27.2979 
 417   0.0000       1.011320        27.5194 
 418   0.0000       1.016138        27.6505 
 419   0.0000       1.020047        27.7569 
 420   0.0000       1.026911        27.9437 
 421   0.0000       1.031114        28.0580 
 422   0.0000       1.033374        28.1195 
 423   0.0000       1.042863        28.3778 
 424   0.0000       1.048626        28.5346 
 425   0.0000       1.049898        28.5692 
 426   0.0000       1.058622        28.8066 
 427   0.0000       1.064062        28.9546 
 428   0.0000       1.070675        29.1346 
 429   0.0000       1.077997        29.3338 
 430   0.0000       1.079541        29.3758 
 431   0.0000       1.083696        29.4889 
 432   0.0000       1.088054        29.6075 
 433   0.0000       1.090421        29.6719 
 434   0.0000       1.099694        29.9242 
 435   0.0000       1.101191        29.9649 
 436   0.0000       1.105617        30.0854 
 437   0.0000       1.111345        30.2412 
 438   0.0000       1.114007        30.3137 
 439   0.0000       1.117547        30.4100 
 440   0.0000       1.120154        30.4809 
 441   0.0000       1.122661        30.5492 
 442   0.0000       1.124726        30.6053 
 443   0.0000       1.128170        30.6991 
 444   0.0000       1.133586        30.8465 
 445   0.0000       1.135937        30.9104 
 446   0.0000       1.140317        31.0296 
 447   0.0000       1.141889        31.0724 
 448   0.0000       1.144354        31.1394 
 449   0.0000       1.149713        31.2853 
 450   0.0000       1.152027        31.3482 
 451   0.0000       1.155963        31.4554 
 452   0.0000       1.158402        31.5217 
 453   0.0000       1.163182        31.6518 
 454   0.0000       1.165341        31.7105 
 455   0.0000       1.169889        31.8343 
 456   0.0000       1.172549        31.9067 
 457   0.0000       1.176287        32.0084 
 458   0.0000       1.179841        32.1051 
 459   0.0000       1.185530        32.2599 
 460   0.0000       1.190959        32.4077 
 461   0.0000       1.197060        32.5736 
 462   0.0000       1.201088        32.6833 
 463   0.0000       1.205864        32.8132 
 464   0.0000       1.207444        32.8562 
 465   0.0000       1.209883        32.9226 
 466   0.0000       1.216197        33.0944 
 467   0.0000       1.218173        33.1482 
 468   0.0000       1.220938        33.2234 
 469   0.0000       1.225657        33.3518 
 470   0.0000       1.229021        33.4434 
 471   0.0000       1.231031        33.4981 
 472   0.0000       1.234550        33.5938 
 473   0.0000       1.235167        33.6106 
 474   0.0000       1.243000        33.8237 
 475   0.0000       1.244351        33.8605 
 476   0.0000       1.248815        33.9820 
 477   0.0000       1.250606        34.0307 
 478   0.0000       1.251729        34.0613 
 479   0.0000       1.254246        34.1298 
 480   0.0000       1.258879        34.2558 
 481   0.0000       1.264386        34.4057 
 482   0.0000       1.264906        34.4198 
 483   0.0000       1.268952        34.5299 
 484   0.0000       1.272468        34.6256 
 485   0.0000       1.277540        34.7636 
 486   0.0000       1.281604        34.8742 
 487   0.0000       1.284080        34.9416 
 488   0.0000       1.287103        35.0238 
 489   0.0000       1.290373        35.1128 
 490   0.0000       1.293733        35.2043 
 491   0.0000       1.297350        35.3027 
 492   0.0000       1.300259        35.3818 
 493   0.0000       1.309146        35.6237 
 494   0.0000       1.311369        35.6842 
 495   0.0000       1.315180        35.7879 
 496   0.0000       1.322050        35.9748 
 497   0.0000       1.323176        36.0054 
 498   0.0000       1.325802        36.0769 
 499   0.0000       1.329645        36.1815 
 500   0.0000       1.331002        36.2184 
 501   0.0000       1.335500        36.3408 
 502   0.0000       1.338426        36.4204 
 503   0.0000       1.342013        36.5180 
 504   0.0000       1.346087        36.6289 
 505   0.0000       1.350918        36.7604 
 506   0.0000       1.352538        36.8044 
 507   0.0000       1.357071        36.9278 
 508   0.0000       1.359244        36.9869 
 509   0.0000       1.362600        37.0782 
[...]
      pz      :     0.022079  p :     0.079723
      px      :     0.043528
      py      :     0.014116
 77 H s       :     0.885766  s :     0.885766
      pz      :     0.047883  p :     0.079181
      px      :     0.015020
      py      :     0.016279
 78 H s       :     0.886127  s :     0.886127
      pz      :     0.025834  p :     0.079142
      px      :     0.020482
      py      :     0.032825
 79 H s       :     0.910255  s :     0.910255
      pz      :     0.021890  p :     0.086423
      px      :     0.021688
      py      :     0.042845
 80 H s       :     0.866144  s :     0.866144
      pz      :     0.039249  p :     0.084630
      px      :     0.030181
      py      :     0.015199
 81 H s       :     0.887018  s :     0.887018
      pz      :     0.037797  p :     0.084066
      px      :     0.016180
      py      :     0.030090
 82 H s       :     0.915738  s :     0.915738
      pz      :     0.021987  p :     0.086761
      px      :     0.031577
      py      :     0.033197
 83 H s       :     0.873209  s :     0.873209
      pz      :     0.039274  p :     0.084063
      px      :     0.015269
      py      :     0.029520
 84 H s       :     0.886785  s :     0.886785
      pz      :     0.035777  p :     0.083515
      px      :     0.031703
      py      :     0.016034
 85 H s       :     0.893056  s :     0.893056
      pz      :     0.022493  p :     0.079778
      px      :     0.014075
      py      :     0.043210
 86 H s       :     0.890938  s :     0.890938
      pz      :     0.024729  p :     0.078836
      px      :     0.032983
      py      :     0.021124
 87 H s       :     0.889993  s :     0.889993
      pz      :     0.047996  p :     0.078727
      px      :     0.015593
      py      :     0.015138
 88 H s       :     0.911331  s :     0.911331
      pz      :     0.021715  p :     0.086995
      px      :     0.042842
      py      :     0.022438
 89 H s       :     0.871786  s :     0.871786
      pz      :     0.037922  p :     0.083827
      px      :     0.030466
      py      :     0.015439


                      *****************************
                      * MAYER POPULATION ANALYSIS *
                      *****************************

  NA   - Mulliken gross atomic population
  ZA   - Total nuclear charge
  QA   - Mulliken gross atomic charge
  VA   - Mayer's total valence
  BVA  - Mayer's bonded valence
  FA   - Mayer's free valence

  ATOM       NA         ZA         QA         VA         BVA        FA
  0 C      5.7920     6.0000     0.2080     3.8393     3.8393    -0.0000
  1 N      7.4536     7.0000    -0.4536     3.3343     3.3343     0.0000
  2 C      6.0635     6.0000    -0.0635     3.9202     3.9202    -0.0000
  3 N      7.3364     7.0000    -0.3364     3.4564     3.4564    -0.0000
  4 C      6.0490     6.0000    -0.0490     4.0115     4.0115    -0.0000
  5 N      7.5635     7.0000    -0.5635     3.0931     3.0931    -0.0000
  6 C      6.1054     6.0000    -0.1054     3.9987     3.9987    -0.0000
  7 N      7.3398     7.0000    -0.3398     3.4356     3.4356    -0.0000
  8 C      5.7942     6.0000     0.2058     3.8391     3.8391    -0.0000
  9 N      7.5625     7.0000    -0.5625     3.0788     3.0788    -0.0000
 10 C      5.8816     6.0000     0.1184     3.9070     3.9070    -0.0000
 11 N      7.4382     7.0000    -0.4382     3.3794     3.3794     0.0000
 12 C      6.0836     6.0000    -0.0836     3.9073     3.9073    -0.0000
 13 N      7.4321     7.0000    -0.4321     3.4160     3.4160    -0.0000
 14 C      5.7624     6.0000     0.2376     3.7821     3.7821     0.0000
 15 N      7.4410     7.0000    -0.4410     3.3716     3.3716    -0.0000
 16 C      5.7720     6.0000     0.2280     3.7815     3.7815    -0.0000
 17 C      6.1154     6.0000    -0.1154     4.0047     4.0047     0.0000
 18 C      6.2013     6.0000    -0.2013     3.7688     3.7688    -0.0000
 19 C      5.7698     6.0000     0.2302     3.8605     3.8605    -0.0000
 20 C      5.7877     6.0000     0.2123     3.8284     3.8284     0.0000
 21 C      6.0956     6.0000    -0.0956     3.8927     3.8927    -0.0000
 22 C      6.0907     6.0000    -0.0907     3.9828     3.9828    -0.0000
 23 C      6.0415     6.0000    -0.0415     3.9923     3.9923    -0.0000
 24 C      5.8038     6.0000     0.1962     3.8218     3.8218    -0.0000
 25 C      5.8856     6.0000     0.1144     3.8911     3.8911     0.0000
 26 C      6.0775     6.0000    -0.0775     3.9092     3.9092    -0.0000
 27 C      5.7864     6.0000     0.2136     3.8668     3.8668    -0.0000
 28 C      6.0598     6.0000    -0.0598     3.9885     3.9885    -0.0000
 29 C      6.1805     6.0000    -0.1805     3.7436     3.7436     0.0000
 30 C      5.7563     6.0000     0.2437     3.7989     3.7989     0.0000
 31 C      5.7744     6.0000     0.2256     3.8200     3.8200     0.0000
 32 C      6.0626     6.0000    -0.0626     3.9220     3.9220    -0.0000
 33 C      6.0656     6.0000    -0.0656     3.9756     3.9756     0.0000
 34 C      6.0507     6.0000    -0.0507     3.9858     3.9858    -0.0000
 35 C      5.7778     6.0000     0.2222     3.8190     3.8190    -0.0000
 36 C      5.8903     6.0000     0.1097     3.8790     3.8790     0.0000
 37 C      6.0650     6.0000    -0.0650     3.9176     3.9176    -0.0000
 38 C      5.7673     6.0000     0.2327     3.8000     3.8000    -0.0000
 39 C      6.0587     6.0000    -0.0587     3.9852     3.9852    -0.0000
 40 C      6.1831     6.0000    -0.1831     3.7308     3.7308     0.0000
 41 C      5.7752     6.0000     0.2248     3.8853     3.8853     0.0000
 42 C      5.8015     6.0000     0.1985     3.8263     3.8263    -0.0000
 43 C      6.0725     6.0000    -0.0725     3.9006     3.9006     0.0000
 44 C      6.0897     6.0000    -0.0897     3.9849     3.9849    -0.0000
 45 C      6.0594     6.0000    -0.0594     3.9925     3.9925    -0.0000
 46 C      5.7904     6.0000     0.2096     3.8279     3.8279    -0.0000
 47 C      5.8845     6.0000     0.1155     3.8932     3.8932     0.0000
 48 C      6.0686     6.0000    -0.0686     3.9085     3.9085    -0.0000
 49 C      5.7640     6.0000     0.2360     3.8915     3.8915    -0.0000
 50 C      6.0480     6.0000    -0.0480     3.9905     3.9905     0.0000
 51 C      6.1909     6.0000    -0.1909     3.7360     3.7360    -0.0000
 52 H      0.9584     1.0000     0.0416     0.9859     0.9859     0.0000
 53 H      1.0161     1.0000    -0.0161     0.9982     0.9982    -0.0000
 54 H      0.9469     1.0000     0.0531     1.0137     1.0137    -0.0000
 55 H      0.9594     1.0000     0.0406     0.9868     0.9868    -0.0000
 56 H      0.9492     1.0000     0.0508     0.9698     0.9698    -0.0000
 57 H      0.9507     1.0000     0.0493     0.9831     0.9831    -0.0000
 58 H      0.9513     1.0000     0.0487     0.9848     0.9848    -0.0000
 59 H      0.9994     1.0000     0.0006     1.0032     1.0032     0.0000
 60 H      0.9517     1.0000     0.0483     1.0125     1.0125     0.0000
 61 H      0.8286     1.0000     0.1714     1.0421     1.0421     0.0000
 62 H      0.8251     1.0000     0.1749     1.0435     1.0435    -0.0000
 63 H      0.9445     1.0000     0.0555     0.9853     0.9853    -0.0000
 64 H      1.0081     1.0000    -0.0081     0.9983     0.9983     0.0000
 65 H      0.9526     1.0000     0.0474     1.0094     1.0094    -0.0000
 66 H      0.9438     1.0000     0.0562     0.9854     0.9854    -0.0000
 67 H      0.9376     1.0000     0.0624     0.9719     0.9719    -0.0000
 68 H      0.9425     1.0000     0.0575     0.9868     0.9868     0.0000
 69 H      0.9431     1.0000     0.0569     0.9828     0.9828     0.0000
 70 H      1.0284     1.0000    -0.0284     0.9935     0.9935    -0.0000
 71 H      0.9547     1.0000     0.0453     1.0061     1.0061    -0.0000
 72 H      0.9323     1.0000     0.0677     0.9839     0.9839    -0.0000
 73 H      1.0093     1.0000    -0.0093     1.0004     1.0004     0.0000
 74 H      0.9429     1.0000     0.0571     1.0100     1.0100    -0.0000
 75 H      0.9330     1.0000     0.0670     0.9843     0.9843    -0.0000
 76 H      0.9282     1.0000     0.0718     0.9720     0.9720     0.0000
 77 H      0.9344     1.0000     0.0656     0.9854     0.9854    -0.0000
 78 H      0.9351     1.0000     0.0649     0.9852     0.9852    -0.0000
 79 H      1.0159     1.0000    -0.0159     0.9980     0.9980     0.0000
 80 H      0.9421     1.0000     0.0579     1.0072     1.0072     0.0000
 81 H      0.9461     1.0000     0.0539     0.9856     0.9856    -0.0000
 82 H      1.0245     1.0000    -0.0245     0.9936     0.9936    -0.0000
 83 H      0.9578     1.0000     0.0422     1.0085     1.0085    -0.0000
 84 H      0.9461     1.0000     0.0539     0.9853     0.9853    -0.0000
 85 H      0.9396     1.0000     0.0604     0.9716     0.9716    -0.0000
 86 H      0.9443     1.0000     0.0557     0.9839     0.9839     0.0000
 87 H      0.9431     1.0000     0.0569     0.9856     0.9856     0.0000
 88 H      1.0160     1.0000    -0.0160     0.9962     0.9962     0.0000
 89 H      0.9544     1.0000     0.0456     1.0074     1.0074     0.0000

  Mayer bond orders larger than 0.100000
B(  0-C ,  1-N ) :   1.0954 B(  0-C , 17-C ) :   1.6926 B(  0-C , 52-H ) :   0.9679 
B(  1-N ,  8-C ) :   1.0892 B(  1-N , 10-C ) :   0.9754 B(  2-C , 12-C ) :   1.5133 
B(  2-C , 16-C ) :   1.3507 B(  2-C , 53-H ) :   0.9758 B(  3-N , 14-C ) :   1.2172 
B(  3-N , 16-C ) :   1.1912 B(  3-N , 61-H ) :   0.8990 B(  4-C ,  6-C ) :   1.2174 
B(  4-C , 17-C ) :   1.2189 B(  4-C , 18-C ) :   1.4129 B(  5-N , 19-C ) :   1.4477 
B(  5-N , 27-C ) :   1.3827 B(  6-C ,  8-C ) :   1.6987 B(  6-C , 54-H ) :   0.9600 
B(  7-N , 30-C ) :   1.1955 B(  7-N , 38-C ) :   1.1928 B(  7-N , 62-H ) :   0.8971 
B(  8-C , 55-H ) :   0.9679 B(  9-N , 41-C ) :   1.3969 B(  9-N , 49-C ) :   1.4236 
B( 10-C , 56-H ) :   0.9769 B( 10-C , 57-H ) :   0.9821 B( 10-C , 58-H ) :   0.9843 
B( 11-N , 20-C ) :   1.1296 B( 11-N , 24-C ) :   1.1102 B( 11-N , 25-C ) :   0.9598 
B( 12-C , 14-C ) :   1.3515 B( 12-C , 59-H ) :   0.9742 B( 13-N , 31-C ) :   1.1520 
B( 13-N , 35-C ) :   1.1488 B( 13-N , 36-C ) :   0.9459 B( 14-C , 18-C ) :   1.1397 
B( 15-N , 42-C ) :   1.1091 B( 15-N , 46-C ) :   1.1215 B( 15-N , 47-C ) :   0.9617 
B( 16-C , 51-C ) :   1.1760 B( 17-C , 60-H ) :   0.9627 B( 18-C , 19-C ) :   1.1460 
B( 19-C , 21-C ) :   1.2398 B( 20-C , 28-C ) :   1.6275 B( 20-C , 63-H ) :   0.9703 
B( 21-C , 26-C ) :   1.6149 B( 21-C , 64-H ) :   0.9694 B( 22-C , 23-C ) :   1.2885 
B( 22-C , 28-C ) :   1.2661 B( 22-C , 29-C ) :   1.2238 B( 23-C , 24-C ) :   1.6196 
B( 23-C , 65-H ) :   0.9704 B( 24-C , 66-H ) :   0.9694 B( 25-C , 67-H ) :   0.9760 
B( 25-C , 68-H ) :   0.9828 B( 25-C , 69-H ) :   0.9823 B( 26-C , 27-C ) :   1.2358 
B( 26-C , 70-H ) :   0.9713 B( 27-C , 29-C ) :   1.2170 B( 28-C , 71-H ) :   0.9719 
B( 29-C , 30-C ) :   1.2355 B( 30-C , 32-C ) :   1.2885 B( 31-C , 39-C ) :   1.5986 
B( 31-C , 72-H ) :   0.9685 B( 32-C , 37-C ) :   1.5703 B( 32-C , 73-H ) :   0.9784 
B( 33-C , 34-C ) :   1.2995 B( 33-C , 39-C ) :   1.2948 B( 33-C , 40-C ) :   1.1938 
B( 34-C , 35-C ) :   1.5958 B( 34-C , 74-H ) :   0.9698 B( 35-C , 75-H ) :   0.9685 
B( 36-C , 76-H ) :   0.9766 B( 36-C , 77-H ) :   0.9817 B( 36-C , 78-H ) :   0.9825 
B( 37-C , 38-C ) :   1.2927 B( 37-C , 79-H ) :   0.9768 B( 38-C , 40-C ) :   1.2266 
B( 39-C , 80-H ) :   0.9708 B( 40-C , 41-C ) :   1.2435 B( 41-C , 43-C ) :   1.1912 
B( 42-C , 50-C ) :   1.6335 B( 42-C , 81-H ) :   0.9697 B( 43-C , 48-C ) :   1.6611 
B( 43-C , 82-H ) :   0.9725 B( 44-C , 45-C ) :   1.2649 B( 44-C , 50-C ) :   1.2709 
B( 44-C , 51-C ) :   1.2597 B( 45-C , 46-C ) :   1.6347 B( 45-C , 83-H ) :   0.9717 
B( 46-C , 84-H ) :   0.9700 B( 47-C , 85-H ) :   0.9762 B( 47-C , 86-H ) :   0.9829 
B( 47-C , 87-H ) :   0.9825 B( 48-C , 49-C ) :   1.1942 B( 48-C , 88-H ) :   0.9746 
B( 49-C , 51-C ) :   1.2373 B( 50-C , 89-H ) :   0.9710 

-------
TIMINGS
-------

Total SCF time: 0 days 0 hours 30 min 29 sec 

Total time                  ....    1829.177 sec
Sum of individual times     ....    1824.584 sec  ( 99.7%)

Fock matrix formation       ....    1801.367 sec  ( 98.5%)
Diagonalization             ....       6.887 sec  (  0.4%)
Density matrix formation    ....       0.684 sec  (  0.0%)
Population analysis         ....       0.525 sec  (  0.0%)
Initial guess               ....       2.058 sec  (  0.1%)
Orbital Transformation      ....       0.000 sec  (  0.0%)
Orbital Orthonormalization  ....       0.000 sec  (  0.0%)
DIIS solution               ....       3.547 sec  (  0.2%)
SOSCF solution              ....       8.451 sec  (  0.5%)

Maximum memory used throughout the entire SCF-calculation: 302.6 MB


           ************************************************************
           *        Program running with 16 parallel MPI-processes    *
           *              working on a common directory               *
           ************************************************************

------------------------------------------------------------------------------
                                ORCA  MP2 
------------------------------------------------------------------------------

Freezing NCore=104 chemical core electrons

----------
MP2 ENERGY (disk based algorithm)
----------

Dimension of the basis                    ...  918
Memory devoted to MP2                     ... 2000 MB   
Data format for buffers                   ... DOUBLE
Compression type for matrix containers    ... UNCOMPRESSED

-------------------------------
PARTIAL EXCHANGE TRANSFORMATION
-------------------------------

Transformation type                        ... one-operator
Generation of integrals (i,mue|j,nue)      ... ON
Generation of integrals (mue,kappa|nue,tau)... OFF
Generation of integrals (i,mue|a,nue)      ... OFF
Dimension of the basis                     ...  918
Number of internal MOs                     ...  127 (  52- 178)
Pair cutoff                                ... 2.500e-12 Eh
Number of AO pairs in the trafo            ... 421821
Total Number of distinct AO pairs          ... 421821
Memory devoted for trafo                   ... 2000.0 MB 
Max. Number of MO pairs treated together   ...  311      
Number Format for Storage                  ... Double (8 Byte)
Integral package used                      ... LIBINT

Starting integral evaluation:
    ... done with AO integral generation
Closing buffer AOK     (38.26 GB; CompressionRatio= 1.32)
Collecting buffer AOK 
Number of MO pairs included in the trafo   ... 8128
------------------------
SORTING OF (i,mue|j,nue)
------------------------

IBATCH = 1 of  2
IBATCH = 2 of  2
Closing buffer KAO     (51.03 GB; CompressionRatio= 1.00)
Collecting buffer KAO 
N(AO-Batches) Done                         ...  85771456 
N(AO-Batches) Skipped                      ...  82519723 
N(IJ)-pairs Skipped                        ...         0 
TOTAL TIME for half transformation         ...  3241.948 sec
AO-integral generation                     ...   211.198 sec
Half transformation                        ...   372.133 sec
K-integral sorting                         ...  2474.816 sec
Process 10:   Internal MO 132
Process 13:   Internal MO 156
Process  4:   Internal MO  84
Process  7:   Internal MO 108

Finished integral transformation - now doing MP2 part

OPERATOR COMBINATION   0   0: ij=( 52..178, 52..178)
Process  1:   Internal MO  60
Process  2:   Internal MO  69
Process  0:   Internal MO  54
Process  0:   Internal MO  57
Process  3:   Internal MO  78
Process  1:   Internal MO  63
Process  5:   Internal MO  93
Process  8:   Internal MO 117
Process  2:   Internal MO  72
Process 11:   Internal MO 141
Process  1:   Internal MO  66
Process  6:   Internal MO 102
Process 14:   Internal MO 165
Process  2:   Internal MO  75
Process  9:   Internal MO 126
Process  3:   Internal MO  81
Process 12:   Internal MO 150
Process  7:   Internal MO 111
Process  4:   Internal MO  87
Process  5:   Internal MO  96
Process 15:   Internal MO 174
Process 10:   Internal MO 135
Process  6:   Internal MO 105
Process  8:   Internal MO 120
Process  4:   Internal MO  90
Process  5:   Internal MO  99
Process 11:   Internal MO 144
Process  9:   Internal MO 129
Process  7:   Internal MO 114
Process 13:   Internal MO 159
Process 14:   Internal MO 168
Process 12:   Internal MO 153
Process 10:   Internal MO 138
Process  8:   Internal MO 123
Process 15:   Internal MO 177
Process 11:   Internal MO 147
Process 13:   Internal MO 162
Process 14:   Internal MO 171
-----------------------------------------------
 MP2 CORRELATION ENERGY   :     -7.284012887 Eh
-----------------------------------------------


-------
TIMINGS
-------
Total time                : 3791.428 sec
Integral trafo            : 3244.120 sec ( 85.6%)
K(i,j)                    :   27.150 sec (  0.7%)
T(i,j)                    :    1.958 sec (  0.1%)

---------------------------------------
MP2 TOTAL ENERGY:    -2130.896787221 Eh
---------------------------------------

Maximum memory used throughout the entire MP2-calculation: 2275.3 MB

-------------------------   --------------------
FINAL SINGLE POINT ENERGY     -2130.896787221461
-------------------------   --------------------


                            ***************************************
                            *     ORCA property calculations      *
                            ***************************************


  WARNING: The energy has been calculated at the MP2 level but the densities
           used in the property calculations are still SCF densities
           MP2 response densities have not been calculated 
           use %mp2 Density relaxed end
           or  %mp2 Density unrelaxed end

                                    ---------------------
                                    Active property flags
                                    ---------------------
   (+) Dipole Moment


------------------------------------------------------------------------------
                       ORCA ELECTRIC PROPERTIES CALCULATION
------------------------------------------------------------------------------

Dipole Moment Calculation                       ... on
Quadrupole Moment Calculation                   ... off
Polarizability Calculation                      ... off
GBWName                                         ... /scratch/allen/tmpyp4_amber_gaff2/conf1/conf1/Conf37.orca.gbw
Electron density                                ... /scratch/allen/tmpyp4_amber_gaff2/conf1/conf1/Conf37.orca.scfp
The origin for moment calculation is the CENTER OF MASS  = (-0.000447, -0.004470  0.003490)

-------------
DIPOLE MOMENT
-------------
                                X             Y             Z
Electronic contribution:      2.10915      -3.44065      -0.11860
Nuclear contribution   :     -0.04966       0.15460       0.14345
                        -----------------------------------------
Total Dipole Moment    :      2.05949      -3.28605       0.02486
                        -----------------------------------------
Magnitude (a.u.)       :      3.87817
Magnitude (Debye)      :      9.85753



--------------------
Rotational spectrum 
--------------------
 
Rotational constants in cm-1:     0.001501     0.001476     0.000761 
Rotational constants in MHz :    45.009986    44.255695    22.809130 

 Dipole components along the rotational axes: 
x,y,z [a.u.] :     2.791798     2.691712     0.027929 
x,y,z [Debye]:     7.096187     6.841787     0.070990 

 

Timings for individual modules:

Sum of individual times         ...     5644.962 sec (=  94.083 min)
GTO integral calculation        ...        3.276 sec (=   0.055 min)   0.1 %
SCF iterations                  ...     1830.281 sec (=  30.505 min)  32.4 %
MP2 module                      ...     3811.405 sec (=  63.523 min)  67.5 %
                             ****ORCA TERMINATED NORMALLY****
TOTAL RUN TIME: 0 days 1 hours 34 minutes 8 seconds 447 msec
# of primitive gaussian functions

