
                                 *****************
                                 * O   R   C   A *
                                 *****************

                                            #,                                       
                                            ###                                      
                                            ####                                     
                                            #####                                    
                                            ######                                   
                                           ########,                                 
                                     ,,################,,,,,                         
                               ,,#################################,,                 
                          ,,##########################################,,             
                       ,#########################################, ''#####,          
                    ,#############################################,,   '####,        
                  ,##################################################,,,,####,       
                ,###########''''           ''''###############################       
              ,#####''   ,,,,##########,,,,          '''####'''          '####       
            ,##' ,,,,###########################,,,                        '##       
           ' ,,###''''                  '''############,,,                           
         ,,##''                                '''############,,,,        ,,,,,,###''
      ,#''                                            '''#######################'''  
     '                                                          ''''####''''         
             ,#######,   #######,   ,#######,      ##                                
            ,#'     '#,  ##    ##  ,#'     '#,    #''#        ######   ,####,        
            ##       ##  ##   ,#'  ##            #'  '#       #        #'  '#        
            ##       ##  #######   ##           ,######,      #####,   #    #        
            '#,     ,#'  ##    ##  '#,     ,#' ,#      #,         ##   #,  ,#        
             '#######'   ##     ##  '#######'  #'      '#     #####' # '####'        



                  #######################################################
                  #                        -***-                        #
                  #          Department of theory and spectroscopy      #
                  #    Directorship and core code : Frank Neese         #
                  #        Max Planck Institute fuer Kohlenforschung    #
                  #                Kaiser Wilhelm Platz 1               #
                  #                 D-45470 Muelheim/Ruhr               #
                  #                      Germany                        #
                  #                                                     #
                  #                  All rights reserved                #
                  #                        -***-                        #
                  #######################################################


                         Program Version 5.0.4 -  RELEASE  -


 With contributions from (in alphabetic order):
   Daniel Aravena         : Magnetic Suceptibility
   Michael Atanasov       : Ab Initio Ligand Field Theory (pilot matlab implementation)
   Alexander A. Auer      : GIAO ZORA, VPT2 properties, NMR spectrum
   Ute Becker             : Parallelization
   Giovanni Bistoni       : ED, misc. LED, open-shell LED, HFLD
   Martin Brehm           : Molecular dynamics
   Dmytro Bykov           : SCF Hessian
   Vijay G. Chilkuri      : MRCI spin determinant printing, contributions to CSF-ICE
   Dipayan Datta          : RHF DLPNO-CCSD density
   Achintya Kumar Dutta   : EOM-CC, STEOM-CC
   Dmitry Ganyushin       : Spin-Orbit,Spin-Spin,Magnetic field MRCI
   Miquel Garcia          : C-PCM and meta-GGA Hessian, CC/C-PCM, Gaussian charge scheme
   Yang Guo               : DLPNO-NEVPT2, F12-NEVPT2, CIM, IAO-localization
   Andreas Hansen         : Spin unrestricted coupled pair/coupled cluster methods
   Benjamin Helmich-Paris : MC-RPA, TRAH-SCF, COSX integrals
   Lee Huntington         : MR-EOM, pCC
   Robert Izsak           : Overlap fitted RIJCOSX, COSX-SCS-MP3, EOM
   Marcus Kettner         : VPT2
   Christian Kollmar      : KDIIS, OOCD, Brueckner-CCSD(T), CCSD density, CASPT2, CASPT2-K
   Simone Kossmann        : Meta GGA functionals, TD-DFT gradient, OOMP2, MP2 Hessian
   Martin Krupicka        : Initial AUTO-CI
   Lucas Lang             : DCDCAS
   Marvin Lechner         : AUTO-CI (C++ implementation), FIC-MRCC
   Dagmar Lenk            : GEPOL surface, SMD
   Dimitrios Liakos       : Extrapolation schemes; Compound Job, initial MDCI parallelization
   Dimitrios Manganas     : Further ROCIS development; embedding schemes
   Dimitrios Pantazis     : SARC Basis sets
   Anastasios Papadopoulos: AUTO-CI, single reference methods and gradients
   Taras Petrenko         : DFT Hessian,TD-DFT gradient, ASA, ECA, R-Raman, ABS, FL, XAS/XES, NRVS
   Peter Pinski           : DLPNO-MP2, DLPNO-MP2 Gradient
   Christoph Reimann      : Effective Core Potentials
   Marius Retegan         : Local ZFS, SOC
   Christoph Riplinger    : Optimizer, TS searches, QM/MM, DLPNO-CCSD(T), (RO)-DLPNO pert. Triples
   Tobias Risthaus        : Range-separated hybrids, TD-DFT gradient, RPA, STAB
   Michael Roemelt        : Original ROCIS implementation
   Masaaki Saitow         : Open-shell DLPNO-CCSD energy and density
   Barbara Sandhoefer     : DKH picture change effects
   Avijit Sen             : IP-ROCIS
   Kantharuban Sivalingam : CASSCF convergence, NEVPT2, FIC-MRCI
   Bernardo de Souza      : ESD, SOC TD-DFT
   Georgi Stoychev        : AutoAux, RI-MP2 NMR, DLPNO-MP2 response
   Willem Van den Heuvel  : Paramagnetic NMR
   Boris Wezisla          : Elementary symmetry handling
   Frank Wennmohs         : Technical directorship


 We gratefully acknowledge several colleagues who have allowed us to
 interface, adapt or use parts of their codes:
   Stefan Grimme, W. Hujo, H. Kruse, P. Pracht,  : VdW corrections, initial TS optimization,
                  C. Bannwarth, S. Ehlert          DFT functionals, gCP, sTDA/sTD-DF
   Ed Valeev, F. Pavosevic, A. Kumar             : LibInt (2-el integral package), F12 methods
   Garnet Chan, S. Sharma, J. Yang, R. Olivares  : DMRG
   Ulf Ekstrom                                   : XCFun DFT Library
   Mihaly Kallay                                 : mrcc  (arbitrary order and MRCC methods)
   Jiri Pittner, Ondrej Demel                    : Mk-CCSD
   Frank Weinhold                                : gennbo (NPA and NBO analysis)
   Christopher J. Cramer and Donald G. Truhlar   : smd solvation model
   Lars Goerigk                                  : TD-DFT with DH, B97 family of functionals
   V. Asgeirsson, H. Jonsson                     : NEB implementation
   FAccTs GmbH                                   : IRC, NEB, NEB-TS, DLPNO-Multilevel, CI-OPT
                                                   MM, QMMM, 2- and 3-layer-ONIOM, Crystal-QMMM,
                                                   LR-CPCM, SF, NACMEs, symmetry and pop. for TD-DFT,
                                                   nearIR, NL-DFT gradient (VV10), updates on ESD,
                                                   ML-optimized integration grids
   S Lehtola, MJT Oliveira, MAL Marques          : LibXC Library
   Liviu Ungur et al                             : ANISO software


 Your calculation uses the libint2 library for the computation of 2-el integrals
 For citations please refer to: http://libint.valeyev.net

 Your ORCA version has been built with support for libXC version: 5.1.0
 For citations please refer to: https://tddft.org/programs/libxc/

 This ORCA versions uses:
   CBLAS   interface :  Fast vector & matrix operations
   LAPACKE interface :  Fast linear algebra routines
   SCALAPACK package :  Parallel linear algebra routines
   Shared memory     :  Shared parallel matrices
   BLAS/LAPACK       :  OpenBLAS 0.3.15  USE64BITINT DYNAMIC_ARCH NO_AFFINITY Sandybridge SINGLE_THREADED
        Core in use  :  Sandybridge
   Copyright (c) 2011-2014, The OpenBLAS Project


================================================================================

----- Orbital basis set information -----
Your calculation utilizes the basis: cc-pVDZ 
       H, B-Ne : Obtained from the ccRepo (grant-hill.group.shef.ac.uk/ccrepo) Feb. 2017
                 T. H. Dunning, Jr., J. Chem. Phys. 90, 1007 (1989)
            He : Obtained from the ccRepo (grant-hill.group.shef.ac.uk/ccrepo) Feb. 2017
                 D. E. Woon, T. H. Dunning, Jr., J. Chem. Phys. 100, 2975 (1994)
  Li-Be, Na-Mg : Obtained from the ccRepo (grant-hill.group.shef.ac.uk/ccrepo) Feb. 2017
                 B. P. Prascher, D. E. Woon, K. A. Peterson, T. H. Dunning, Jr., A. K. Wilson, Theor. Chem. Acc. 128, 69 (2011)
         Al-Ar : Obtained from the ccRepo (grant-hill.group.shef.ac.uk/ccrepo) Feb. 2017
                 D. E. Woon, T. H. Dunning, Jr., J. Chem. Phys. 98, 1358 (1993)
            Ca : Obtained from the Peterson Research Group Website (tyr0.chem.wsu.edu/~kipeters) Feb. 2017
                 J. Koput, K. A. Peterson, J. Phys. Chem. 106, 9595 (2002)
         Sc-Zn : Obtained from the ccRepo (grant-hill.group.shef.ac.uk/ccrepo) Feb. 2017
                 N. B. Balabanov, K. A. Peterson, J. Chem. Phys. 123, 064107 (2005)
                 N. B. Balabanov, K. A. Peterson, J. Chem. Phys. 125, 074110 (2006)
         Ga-Kr : Obtained from the ccRepo (grant-hill.group.shef.ac.uk/ccrepo) Feb. 2017
                 A. K. Wilson, D. E. Woon, K. A. Peterson, T. H. Dunning, Jr., J. Chem. Phys. 110, 7667 (1999)

================================================================================
                                        WARNINGS
                       Please study these warnings very carefully!
================================================================================


WARNING: No MP2 level density has been requested!
         To caclulate MP2 level properties use
         %mp2 Density relaxed end
         or
         %mp2 Density unrelaxed end

WARNING: Post HF methods need fully converged wavefunctions
  ===> : Setting SCFConvForced true
         You can overwrite this default with %scf ConvForced false 


INFO   : the flag for use of the SHARK integral package has been found!

================================================================================
                                       INPUT FILE
================================================================================
NAME = /scratch/allen/tmpyp4_amber_gaff2/2.Mdgx/conf11/conf11/Conf57.orca
|  1> ! PAL2
|  2> ! mp2 cc-pvdz TightSCF  NoKeepInts
|  3> 
|  4> %scf
|  5>   MaxCore 2000
|  6> end
|  7> %mp2
|  8>   MaxCore 2000
|  9> end
| 10> * xyz 0 1
| 11>    C       -3.44300         6.23500        -0.86100
| 12>    C        1.47400         4.04100         0.05700
| 13>    C       -2.80200         4.09300         0.04900
| 14>    C       -3.76800         4.28600         1.04800
| 15>    C       -4.53500         5.43400         1.05900
| 16>    C       -5.22800         7.59100         0.13400
| 17>    C        0.13200         4.30700         0.06100
| 18>    C       -0.56900         3.05600         0.04700
| 19>    C        1.64900         2.61800         0.02300
| 20>    C       -2.65600         5.10100        -0.91700
| 21>    N       -4.36500         6.39000         0.11600
| 22>    N        0.38800         2.06700         0.02500
| 23>    N       -2.01000         0.39500        -0.07500
| 24>    N       -0.38800        -2.07400        -0.02700
| 25>    N        2.01000        -0.40100         0.06500
| 26>    C       -1.96000         2.86100         0.02400
| 27>    C       -2.62300         1.61500        -0.01800
| 28>    C       -5.57300        -4.32900         1.06600
| 29>    C       -4.07300         1.47100         0.05600
| 30>    C       -4.10600        -2.75600        -0.02600
| 31>    C       -4.99500        -2.75700        -1.11100
| 32>    C       -6.13200        -3.54200        -1.07600
| 33>    C       -7.65100        -5.11300         0.04000
| 34>    C       -4.32400         0.14100         0.03700
| 35>    C       -3.02500        -0.52000        -0.04800
| 36>    C       -4.42200        -3.56600         1.07500
| 37>    N       -6.40700        -4.31300         0.00100
| 38>    C       -2.86700        -1.92200        -0.04000
| 39>    C       -1.65000        -2.62400        -0.02700
| 40>    C        3.56800        -6.14200        -1.04000
| 41>    C       -1.47600        -4.04900        -0.03400
| 42>    C        2.80300        -4.09900        -0.00800
| 43>    C        3.65700        -4.38400         1.06900
| 44>    C        4.42700        -5.53000         1.05900
| 45>    C        5.24500        -7.58800         0.01400
| 46>    C       -0.13400        -4.31500        -0.02200
| 47>    C        0.56800        -3.06400        -0.02700
| 48>    C        2.77500        -5.01200        -1.07400
| 49>    N        4.37600        -6.39100         0.01700
| 50>    C        1.95900        -2.86900        -0.00900
| 51>    C        2.62100        -1.62200         0.00900
| 52>    C        5.54300         4.33900        -1.13000
| 53>    C        4.07000        -1.47900        -0.09400
| 54>    C        4.10400         2.75100        -0.02100
| 55>    C        5.02700         2.72900         1.03600
| 56>    C        6.16600         3.50900         0.97800
| 57>    C        7.61900         5.15300        -0.11500
| 58>    C        4.32100        -0.14800        -0.09200
| 59>    C        3.02500         0.51400         0.01500
| 60>    C        4.38700         3.58200        -1.11500
| 61>    C        2.86600         1.91600         0.01300
| 62>    N        6.41300         4.29600        -0.09500
| 63>    H       -3.35600         7.04200        -1.57700
| 64>    H        2.27400         4.76600         0.08100
| 65>    H       -3.93500         3.54000         1.81600
| 66>    H       -5.29800         5.62300         1.80400
| 67>    H       -6.15300         7.37200        -0.40500
| 68>    H       -5.44900         7.85000         1.16900
| 69>    H       -4.69800         8.41100        -0.35100
| 70>    H       -0.33200         5.28200         0.06900
| 71>    H       -1.91700         5.01700        -1.70600
| 72>    H        0.18200         1.07200         0.00500
| 73>    H       -0.18300        -1.08000        -0.02100
| 74>    H       -5.86400        -4.96200         1.89500
| 75>    H       -4.79400         2.27200         0.13900
| 76>    H       -4.80000        -2.16000        -1.99400
| 77>    H       -6.84100        -3.58200        -1.89300
| 78>    H       -8.42800        -4.53600         0.54600
| 79>    H       -7.95600        -5.33700        -0.98100
| 80>    H       -7.45600        -6.03700         0.58400
| 81>    H       -5.28700        -0.34400         0.10000
| 82>    H       -3.78000        -3.60100         1.94700
| 83>    H        3.58700        -6.86800        -1.84300
| 84>    H       -2.27600        -4.77400        -0.05000
| 85>    H        3.71400        -3.72400         1.92600
| 86>    H        5.09200        -5.79500         1.87100
| 87>    H        6.20500        -7.32900        -0.43900
| 88>    H        5.39300        -7.91700         1.04200
| 89>    H        4.75900        -8.37300        -0.56400
| 90>    H        0.32900        -5.29000        -0.00800
| 91>    H        2.14600        -4.84200        -1.94000
| 92>    H        5.80800         4.98600        -1.95600
| 93>    H        4.78800        -2.28100        -0.18500
| 94>    H        4.86000         2.11400         1.91200
| 95>    H        6.90100         3.53100         1.77200
| 96>    H        7.38300         6.10900         0.35600
| 97>    H        8.41400         4.65200         0.43500
| 98>    H        7.92100         5.31000        -1.15000
| 99>    H        5.28300         0.33600        -0.17900
|100>    H        3.72000         3.63200        -1.96700
|101> *
|102> 
|103>                          ****END OF INPUT****
================================================================================

                       ****************************
                       * Single Point Calculation *
                       ****************************

---------------------------------
CARTESIAN COORDINATES (ANGSTROEM)
---------------------------------
  C     -3.443000    6.235000   -0.861000
  C      1.474000    4.041000    0.057000
  C     -2.802000    4.093000    0.049000
  C     -3.768000    4.286000    1.048000
  C     -4.535000    5.434000    1.059000
  C     -5.228000    7.591000    0.134000
  C      0.132000    4.307000    0.061000
  C     -0.569000    3.056000    0.047000
  C      1.649000    2.618000    0.023000
  C     -2.656000    5.101000   -0.917000
  N     -4.365000    6.390000    0.116000
  N      0.388000    2.067000    0.025000
  N     -2.010000    0.395000   -0.075000
  N     -0.388000   -2.074000   -0.027000
  N      2.010000   -0.401000    0.065000
  C     -1.960000    2.861000    0.024000
  C     -2.623000    1.615000   -0.018000
  C     -5.573000   -4.329000    1.066000
  C     -4.073000    1.471000    0.056000
  C     -4.106000   -2.756000   -0.026000
  C     -4.995000   -2.757000   -1.111000
  C     -6.132000   -3.542000   -1.076000
  C     -7.651000   -5.113000    0.040000
  C     -4.324000    0.141000    0.037000
  C     -3.025000   -0.520000   -0.048000
  C     -4.422000   -3.566000    1.075000
  N     -6.407000   -4.313000    0.001000
  C     -2.867000   -1.922000   -0.040000
  C     -1.650000   -2.624000   -0.027000
  C      3.568000   -6.142000   -1.040000
  C     -1.476000   -4.049000   -0.034000
  C      2.803000   -4.099000   -0.008000
  C      3.657000   -4.384000    1.069000
  C      4.427000   -5.530000    1.059000
  C      5.245000   -7.588000    0.014000
  C     -0.134000   -4.315000   -0.022000
  C      0.568000   -3.064000   -0.027000
  C      2.775000   -5.012000   -1.074000
  N      4.376000   -6.391000    0.017000
  C      1.959000   -2.869000   -0.009000
  C      2.621000   -1.622000    0.009000
  C      5.543000    4.339000   -1.130000
  C      4.070000   -1.479000   -0.094000
  C      4.104000    2.751000   -0.021000
  C      5.027000    2.729000    1.036000
  C      6.166000    3.509000    0.978000
  C      7.619000    5.153000   -0.115000
  C      4.321000   -0.148000   -0.092000
  C      3.025000    0.514000    0.015000
  C      4.387000    3.582000   -1.115000
  C      2.866000    1.916000    0.013000
  N      6.413000    4.296000   -0.095000
  H     -3.356000    7.042000   -1.577000
  H      2.274000    4.766000    0.081000
  H     -3.935000    3.540000    1.816000
  H     -5.298000    5.623000    1.804000
  H     -6.153000    7.372000   -0.405000
  H     -5.449000    7.850000    1.169000
  H     -4.698000    8.411000   -0.351000
  H     -0.332000    5.282000    0.069000
  H     -1.917000    5.017000   -1.706000
  H      0.182000    1.072000    0.005000
  H     -0.183000   -1.080000   -0.021000
  H     -5.864000   -4.962000    1.895000
  H     -4.794000    2.272000    0.139000
  H     -4.800000   -2.160000   -1.994000
  H     -6.841000   -3.582000   -1.893000
  H     -8.428000   -4.536000    0.546000
  H     -7.956000   -5.337000   -0.981000
  H     -7.456000   -6.037000    0.584000
  H     -5.287000   -0.344000    0.100000
  H     -3.780000   -3.601000    1.947000
  H      3.587000   -6.868000   -1.843000
  H     -2.276000   -4.774000   -0.050000
  H      3.714000   -3.724000    1.926000
  H      5.092000   -5.795000    1.871000
  H      6.205000   -7.329000   -0.439000
  H      5.393000   -7.917000    1.042000
  H      4.759000   -8.373000   -0.564000
  H      0.329000   -5.290000   -0.008000
  H      2.146000   -4.842000   -1.940000
  H      5.808000    4.986000   -1.956000
  H      4.788000   -2.281000   -0.185000
  H      4.860000    2.114000    1.912000
  H      6.901000    3.531000    1.772000
  H      7.383000    6.109000    0.356000
  H      8.414000    4.652000    0.435000
  H      7.921000    5.310000   -1.150000
  H      5.283000    0.336000   -0.179000
  H      3.720000    3.632000   -1.967000

----------------------------
CARTESIAN COORDINATES (A.U.)
----------------------------
  NO LB      ZA    FRAG     MASS         X           Y           Z
   0 C     6.0000    0    12.011   -6.506327   11.782442   -1.627054
   1 C     6.0000    0    12.011    2.785456    7.636383    0.107714
   2 C     6.0000    0    12.011   -5.295013    7.734649    0.092597
   3 C     6.0000    0    12.011   -7.120488    8.099366    1.980433
   4 C     6.0000    0    12.011   -8.569908   10.268772    2.001220
   5 C     6.0000    0    12.011   -9.879488   14.344911    0.253223
   6 C     6.0000    0    12.011    0.249444    8.139050    0.115273
   7 C     6.0000    0    12.011   -1.075254    5.775003    0.088817
   8 C     6.0000    0    12.011    3.116158    4.947303    0.043464
   9 C     6.0000    0    12.011   -5.019113    9.639493   -1.732879
  10 N     7.0000    0    14.007   -8.248655   12.075350    0.219208
  11 N     7.0000    0    14.007    0.733214    3.906064    0.047243
  12 N     7.0000    0    14.007   -3.798350    0.746442   -0.141729
  13 N     7.0000    0    14.007   -0.733214   -3.919292   -0.051023
  14 N     7.0000    0    14.007    3.798350   -0.757780    0.122832
  15 C     6.0000    0    12.011   -3.703863    5.406506    0.045353
  16 C     6.0000    0    12.011   -4.956752    3.051908   -0.034015
  17 C     6.0000    0    12.011  -10.531444   -8.180624    2.014448
  18 C     6.0000    0    12.011   -7.696855    2.779787    0.105825
  19 C     6.0000    0    12.011   -7.759216   -5.208085   -0.049133
  20 C     6.0000    0    12.011   -9.439182   -5.209975   -2.099486
  21 C     6.0000    0    12.011  -11.587801   -6.693410   -2.033345
  22 C     6.0000    0    12.011  -14.458295   -9.662170    0.075589
  23 C     6.0000    0    12.011   -8.171176    0.266451    0.069920
  24 C     6.0000    0    12.011   -5.716422   -0.982658   -0.090707
  25 C     6.0000    0    12.011   -8.356369   -6.738763    2.031456
  26 N     7.0000    0    14.007  -12.107475   -8.150389    0.001890
  27 C     6.0000    0    12.011   -5.417845   -3.632054   -0.075589
  28 C     6.0000    0    12.011   -3.118048   -4.958641   -0.051023
  29 C     6.0000    0    12.011    6.742543  -11.606698   -1.965315
  30 C     6.0000    0    12.011   -2.789236   -7.651501   -0.064251
  31 C     6.0000    0    12.011    5.296902   -7.745987   -0.015118
  32 C     6.0000    0    12.011    6.910728   -8.284559    2.020117
  33 C     6.0000    0    12.011    8.365818  -10.450186    2.001220
  34 C     6.0000    0    12.011    9.911614  -14.339242    0.026456
  35 C     6.0000    0    12.011   -0.253223   -8.154168   -0.041574
  36 C     6.0000    0    12.011    1.073364   -5.790121   -0.051023
  37 C     6.0000    0    12.011    5.243990   -9.471307   -2.029566
  38 N     7.0000    0    14.007    8.269442  -12.077240    0.032125
  39 C     6.0000    0    12.011    3.701973   -5.421624   -0.017008
  40 C     6.0000    0    12.011    4.952972   -3.065136    0.017008
  41 C     6.0000    0    12.011   10.474752    8.199522   -2.135391
  42 C     6.0000    0    12.011    7.691185   -2.794905   -0.177634
  43 C     6.0000    0    12.011    7.755436    5.198637   -0.039684
  44 C     6.0000    0    12.011    9.499653    5.157063    1.957756
  45 C     6.0000    0    12.011   11.652051    6.631049    1.848152
  46 C     6.0000    0    12.011   14.397823    9.737759   -0.217319
  47 C     6.0000    0    12.011    8.165507   -0.279679   -0.173855
  48 C     6.0000    0    12.011    5.716422    0.971319    0.028346
  49 C     6.0000    0    12.011    8.290229    6.768999   -2.107045
  50 C     6.0000    0    12.011    5.415955    3.620715    0.024566
  51 N     7.0000    0    14.007   12.118814    8.118263   -0.179524
  52 H     1.0000    0     1.008   -6.341921   13.307451   -2.980098
  53 H     1.0000    0     1.008    4.297237    9.006435    0.153068
  54 H     1.0000    0     1.008   -7.436072    6.689631    3.431743
  55 H     1.0000    0     1.008  -10.011769   10.625930    3.409066
  56 H     1.0000    0     1.008  -11.627485   13.931061   -0.765339
  57 H     1.0000    0     1.008  -10.297118   14.834350    2.209090
  58 H     1.0000    0     1.008   -8.877933   15.894487   -0.663294
  59 H     1.0000    0     1.008   -0.627389    9.981533    0.130391
  60 H     1.0000    0     1.008   -3.622605    9.480756   -3.223873
  61 H     1.0000    0     1.008    0.343930    2.025786    0.009449
  62 H     1.0000    0     1.008   -0.345820   -2.040904   -0.039684
  63 H     1.0000    0     1.008  -11.081354   -9.376821    3.581031
  64 H     1.0000    0     1.008   -9.059347    4.293458    0.262672
  65 H     1.0000    0     1.008   -9.070685   -4.081808   -3.768114
  66 H     1.0000    0     1.008  -12.927616   -6.768999   -3.577252
  67 H     1.0000    0     1.008  -15.926612   -8.571798    1.031790
  68 H     1.0000    0     1.008  -15.034661  -10.085468   -1.853821
  69 H     1.0000    0     1.008  -14.089798  -11.408277    1.103600
  70 H     1.0000    0     1.008   -9.990982   -0.650066    0.188973
  71 H     1.0000    0     1.008   -7.143165   -6.804904    3.679297
  72 H     1.0000    0     1.008    6.778448  -12.978639   -3.482765
  73 H     1.0000    0     1.008   -4.301017   -9.021553   -0.094486
  74 H     1.0000    0     1.008    7.018443   -7.037340    3.639613
  75 H     1.0000    0     1.008    9.622485  -10.950963    3.535678
  76 H     1.0000    0     1.008   11.725751  -13.849803   -0.829590
  77 H     1.0000    0     1.008   10.191293  -14.960962    1.969095
  78 H     1.0000    0     1.008    8.993207  -15.822677   -1.065806
  79 H     1.0000    0     1.008    0.621720   -9.996651   -0.015118
  80 H     1.0000    0     1.008    4.055352   -9.150054   -3.666069
  81 H     1.0000    0     1.008   10.975529    9.422175   -3.696304
  82 H     1.0000    0     1.008    9.048009   -4.310465   -0.349599
  83 H     1.0000    0     1.008    9.184069    3.994881    3.613156
  84 H     1.0000    0     1.008   13.041000    6.672623    3.348595
  85 H     1.0000    0     1.008   13.951848   11.544337    0.672743
  86 H     1.0000    0     1.008   15.900156    8.791006    0.822031
  87 H     1.0000    0     1.008   14.968521   10.034446   -2.173185
  88 H     1.0000    0     1.008    9.983423    0.634948   -0.338261
  89 H     1.0000    0     1.008    7.029781    6.863485   -3.717091

--------------------------------
INTERNAL COORDINATES (ANGSTROEM)
--------------------------------
 C      0   0   0     0.000000000000     0.00000000     0.00000000
 C      1   0   0     5.461982149367     0.00000000     0.00000000
 C      1   2   0     2.413948011039    48.78877519     0.00000000
 C      3   1   2     1.402998930862    87.90984725   134.97704582
 C      4   3   1     1.380693304105   120.16815780     0.14587937
 C      5   4   3     2.447145888581   152.52193656     1.58544058
 C      2   1   3     1.368114030335    16.12724360   344.14706092
 C      7   2   1     1.434084376876   108.05010202   141.39188700
 C      2   1   3     1.434123425651   120.29391013    28.36287580
 C      1   2   3     1.381470593245    33.30517292   319.42423556
 N      1   2   3     1.352271422459   122.57470567    57.10248026
 N      9   2   1     1.376127174356   106.58526707   347.47045431
 N     12   9   2     2.925062050624   168.53581413   171.12065651
 N     13  12   9     2.954513327098    91.55032014    11.12112580
 N     14  13  12     2.925371258490    88.43092389   359.84326247
 C      8   7   2     1.404790019896   127.24786865   181.11170171
 C     13  12   9     1.366535034311    81.72106996   188.00453233
 C     14  13  12     5.758810554272    80.56209567   166.76250791
 C     17  13  12     1.459010623676   111.08861209   183.82872609
 C     18  14  13     2.412235892279    27.27532823    36.33507194
 C     20  18  14     1.402692767501    87.95206320   148.94598259
 C     21  20  18     1.382106725257   120.14573887   359.70382047
 C     18  14  13     2.446510985056   144.15733107    82.80075377
 C     19  17  13     1.353610726908   106.29293361   359.75308708
 C     13  12   9     1.366813447402   172.21332906    33.46711076
 C     18  14  13     1.380960173213    15.08449437   309.23336894
 N     22  21  20     1.352773077792   120.73759875     0.27865223
 C     25  13  17     1.410897586645   125.60330303   182.37774668
 C     14  13  12     1.376642291955    80.24689249   177.85461986
 C     14  13  12     5.764089607215   164.51507311   312.20821879
 C     29  14  13     1.435600919476   106.58649366   178.76395472
 C     30  14  13     2.413316804732    27.10625047    82.12560436
 C     32  30  14     1.403734305344    87.90059683   149.76154742
 C     33  32  30     1.380694028378   120.14881443   359.74174632
 C     34  33  32     2.448777858443   152.49203239     2.45173620
 C     31  29  14     1.368160809262   108.16950133     0.70383075
 C     14  13  12     1.376239804685   169.26375223   353.09862627
 C     30  14  13     1.380907310430    14.68948582   353.70041132
 N     34  33  32     1.352658863128   120.85575621     0.19603406
 C     37  14  29     1.404717053360   126.01551127   180.90772073
 C     15  14  13     1.366491126938    81.61824056   183.09049352
 C      2   1   3     4.249062720177   141.90146923   158.45069763
 C     41  15  14     1.459677704153   111.05201287   175.08990246
 C     42   2   1     2.412953791518    41.78584867   197.77392044
 C     44  42   2     1.403446472082    87.95153797   233.97558675
 C     45  44  42     1.381696421071   120.11137308     0.19721020
 C     42   2   1     2.450019795838   135.97209175   108.08876954
 C     43  41  15     1.354461516618   106.26758155     0.30894352
 C     15  14  13     1.367461151185   171.87382904   332.35056460
 C     42   2   1     1.381886391857    32.59078432   246.62919963
 C      9   2   1     1.404988612053   126.98745415   168.47479184
 N     42   2   1     1.352765315936   113.57249190   135.82535873
 H      1   2   3     1.082346524917   109.77456514   199.63939471
 H      2   1   3     1.079907866440   113.63761800   198.17343782
 H      4   3   1     1.083618475295   121.06841905   179.52468103
 H      5   4   3     1.083012003627   122.81676278   179.44667555
 H      6   5   4     1.092752030426   104.44843900   100.09425489
 H      6   5   4     1.089562756339    84.71576372   209.57147210
 H      6   5   4     1.090194936697   133.90512073   322.41725147
 H      7   2   1     1.079807853278   126.66122480   321.63030078
 H     10   1   2     1.084296085025   118.77394535   284.44603041
 H     12   9   2     1.016297692608   125.29023241   180.00180175
 H     14  13  12     1.014936943854    44.97226959   359.42596618
 H     18  14  13     1.082871645210   128.03556573   234.20482432
 H     19  17  13     1.080893611786   126.41830519   178.11313280
 H     21  20  18     1.083569563987   121.05669627   180.67006309
 H     22  21  20     1.082483256222   122.73097286   180.59748951
 H     23  18  14     1.092105306278   103.92715769   234.93429879
 H     23  18  14     1.088871893291   134.19244188    12.25587044
 H     23  18  14     1.089833473518    84.85857450   125.45241208
 H     24  19  17     1.080075460327   127.28078426   178.44613241
 H     26  18  14     1.083408048706   118.76995697   244.94906660
 H     30  14  13     1.082703098730   127.99711412   279.66882698
 H     31  29  14     1.079759695488   125.22293469   180.92530585
 H     33  32  30     1.083188810873   121.01964473   180.74284758
 H     34  33  32     1.082494341787   122.70821597   180.59516895
 H     35  34  33     1.092652735319   105.73575241    97.19771933
 H     35  34  33     1.089462711615    84.05943581   206.43036958
 H     35  34  33     1.089268102902   133.08365142   318.50306270
 H     36  31  29     1.079439669458   126.61599965   178.98859863
 H     38  30  73     1.083742127999   118.77264435   359.90091293
 H     42   2   1     1.082178358682   119.31790784   352.45688918
 H     43  41  15     1.080281907652   126.36969097   182.06329380
 H     45  44  42     1.083277434455   121.10105945   179.58025624
 H     46  45  44     1.082194529648   122.72144639   179.46906377
 H     47  42   2     1.091546151109   106.65128841   315.16475048
 H     47  42   2     1.088818625851   132.46019523    94.52397119
 H     47  42   2     1.089531091801    83.63838232   206.04504406
 H     48  43  41     1.080402239909   127.23657387   181.62955349
 H     50  42   2     1.083186502870   118.77001737    94.71359229

---------------------------
INTERNAL COORDINATES (A.U.)
---------------------------
 C      0   0   0     0.000000000000     0.00000000     0.00000000
 C      1   0   0    10.321650410670     0.00000000     0.00000000
 C      1   2   0     4.561700642388    48.78877519     0.00000000
 C      3   1   2     2.651283745514    87.90984725   134.97704582
 C      4   3   1     2.609132219697   120.16815780     0.14587937
 C      5   4   3     4.624435539170   152.52193656     1.58544058
 C      2   1   3     2.585360837309    16.12724360   344.14706092
 C      7   2   1     2.710026725231   108.05010202   141.39188700
 C      2   1   3     2.710100516721   120.29391013    28.36287580
 C      1   2   3     2.610601083298    33.30517292   319.42423556
 N      1   2   3     2.555422647176   122.57470567    57.10248026
 N      9   2   1     2.600503484979   106.58526707   347.47045431
 N     12   9   2     5.527566200405   168.53581413   171.12065651
 N     13  12   9     5.583221047236    91.55032014    11.12112580
 N     14  13  12     5.528150518591    88.43092389   359.84326247
 C      8   7   2     2.654668413270   127.24786865   181.11170171
 C     13  12   9     2.582376967257    81.72106996   188.00453233
 C     14  13  12    10.882574804710    80.56209567   166.76250791
 C     17  13  12     2.757130505230   111.08861209   183.82872609
 C     18  14  13     4.558465206823    27.27532823    36.33507194
 C     20  18  14     2.650705180609    87.95206320   148.94598259
 C     21  20  18     2.611803198586   120.14573887   359.70382047
 C     18  14  13     4.623235745386   144.15733107    82.80075377
 C     19  17  13     2.557953565794   106.29293361   359.75308708
 C     13  12   9     2.582903091751   172.21332906    33.46711076
 C     18  14  13     2.609636529225    15.08449437   309.23336894
 N     22  21  20     2.556370638369   120.73759875     0.27865223
 C     25  13  17     2.666210041769   125.60330303   182.37774668
 C     14  13  12     2.601476916169    80.24689249   177.85461986
 C     14  13  12    10.892550769017   164.51507311   312.20821879
 C     29  14  13     2.712892575415   106.58649366   178.76395472
 C     30  14  13     4.560507835333    27.10625047    82.12560436
 C     32  30  14     2.652673401891    87.90059683   149.76154742
 C     33  32  30     2.609133588376   120.14881443   359.74174632
 C     34  33  32     4.627519515267   152.49203239     2.45173620
 C     31  29  14     2.585449236669   108.16950133     0.70383075
 C     14  13  12     2.600716325456   169.26375223   353.09862627
 C     30  14  13     2.609536633043    14.68948582   353.70041132
 N     34  33  32     2.556154803934   120.85575621     0.19603406
 C     37  14  29     2.654530526499   126.01551127   180.90772073
 C     15  14  13     2.582293994346    81.61824056   183.09049352
 C      2   1   3     8.029564866989   141.90146923   158.45069763
 C     41  15  14     2.758391104639   111.05201287   175.08990246
 C     42   2   1     4.559821839776    41.78584867   197.77392044
 C     44  42   2     2.652129475853    87.95153797   233.97558675
 C     45  44  42     2.611027836043   120.11137308     0.19721020
 C     42   2   1     4.629866436820   135.97209175   108.08876954
 C     43  41  15     2.559561325344   106.26758155     0.30894352
 C     15  14  13     2.584127074516   171.87382904   332.35056460
 C     42   2   1     2.611386828803    32.59078432   246.62919963
 C      9   2   1     2.655043698059   126.98745415   168.47479184
 N     42   2   1     2.556355970587   113.57249190   135.82535873
 H      1   2   3     2.045338514095   109.77456514   199.63939471
 H      2   1   3     2.040730117440   113.63761800   198.17343782
 H      4   3   1     2.047742151964   121.06841905   179.52468103
 H      5   4   3     2.046596086604   122.81676278   179.44667555
 H      6   5   4     2.065002069791   104.44843900   100.09425489
 H      6   5   4     2.058975215200    84.71576372   209.57147210
 H      6   5   4     2.060169862945   133.90512073   322.41725147
 H      7   2   1     2.040541119952   126.66122480   321.63030078
 H     10   1   2     2.049022648780   118.77394535   284.44603041
 H     12   9   2     1.920524309565   125.29023241   180.00180175
 H     14  13  12     1.917952867083    44.97226959   359.42596618
 H     18  14  13     2.046330847636   128.03556573   234.20482432
 H     19  17  13     2.042592906181   126.41830519   178.11313280
 H     21  20  18     2.047649722989   121.05669627   180.67006309
 H     22  21  20     2.045596898814   122.73097286   180.59748951
 H     23  18  14     2.063779938267   103.92715769   234.93429879
 H     23  18  14     2.057669673245   134.19244188    12.25587044
 H     23  18  14     2.059486796529    84.85857450   125.45241208
 H     24  19  17     2.041046823986   127.28078426   178.44613241
 H     26  18  14     2.047344503340   118.76995697   244.94906660
 H     30  14  13     2.046012340948   127.99711412   279.66882698
 H     31  29  14     2.040450114918   125.22293469   180.92530585
 H     33  32  30     2.046930203877   121.01964473   180.74284758
 H     34  33  32     2.045617847496   122.70821597   180.59516895
 H     35  34  33     2.064814429233   105.73575241    97.19771933
 H     35  34  33     2.058786158072    84.05943581   206.43036958
 H     35  34  33     2.058418400901   133.08365142   318.50306270
 H     36  31  29     2.039845353366   126.61599965   178.98859863
 H     38  30  73     2.047975821711   118.77264435   359.90091293
 H     42   2   1     2.045020725966   119.31790784   352.45688918
 H     43  41  15     2.041436952892   126.36969097   182.06329380
 H     45  44  42     2.047097678177   121.10105945   179.58025624
 H     46  45  44     2.045051284662   122.72144639   179.46906377
 H     47  42   2     2.062723288131   106.65128841   315.16475048
 H     47  42   2     2.057569012371   132.46019523    94.52397119
 H     47  42   2     2.058915377895    83.63838232   206.04504406
 H     48  43  41     2.041664347903   127.23657387   181.62955349
 H     50  42   2     2.046925842384   118.77001737    94.71359229

---------------------
BASIS SET INFORMATION
---------------------
There are 3 groups of distinct atoms

 Group   1 Type C   : 17s4p1d contracted to 3s2p1d pattern {881/31/1}
 Group   2 Type N   : 17s4p1d contracted to 3s2p1d pattern {881/31/1}
 Group   3 Type H   : 4s1p contracted to 2s1p pattern {31/1}

Atom   0C    basis set group =>   1
Atom   1N    basis set group =>   2
Atom   2C    basis set group =>   1
Atom   3N    basis set group =>   2
Atom   4C    basis set group =>   1
Atom   5N    basis set group =>   2
Atom   6C    basis set group =>   1
Atom   7N    basis set group =>   2
Atom   8C    basis set group =>   1
Atom   9N    basis set group =>   2
Atom  10C    basis set group =>   1
Atom  11N    basis set group =>   2
Atom  12C    basis set group =>   1
Atom  13N    basis set group =>   2
Atom  14C    basis set group =>   1
Atom  15N    basis set group =>   2
Atom  16C    basis set group =>   1
Atom  17C    basis set group =>   1
Atom  18C    basis set group =>   1
Atom  19C    basis set group =>   1
Atom  20C    basis set group =>   1
Atom  21C    basis set group =>   1
Atom  22C    basis set group =>   1
Atom  23C    basis set group =>   1
Atom  24C    basis set group =>   1
Atom  25C    basis set group =>   1
Atom  26C    basis set group =>   1
Atom  27C    basis set group =>   1
Atom  28C    basis set group =>   1
Atom  29C    basis set group =>   1
Atom  30C    basis set group =>   1
Atom  31C    basis set group =>   1
Atom  32C    basis set group =>   1
Atom  33C    basis set group =>   1
Atom  34C    basis set group =>   1
Atom  35C    basis set group =>   1
Atom  36C    basis set group =>   1
Atom  37C    basis set group =>   1
Atom  38C    basis set group =>   1
Atom  39C    basis set group =>   1
Atom  40C    basis set group =>   1
Atom  41C    basis set group =>   1
Atom  42C    basis set group =>   1
Atom  43C    basis set group =>   1
Atom  44C    basis set group =>   1
Atom  45C    basis set group =>   1
Atom  46C    basis set group =>   1
Atom  47C    basis set group =>   1
Atom  48C    basis set group =>   1
Atom  49C    basis set group =>   1
Atom  50C    basis set group =>   1
Atom  51C    basis set group =>   1
Atom  52H    basis set group =>   3
Atom  53H    basis set group =>   3
Atom  54H    basis set group =>   3
Atom  55H    basis set group =>   3
Atom  56H    basis set group =>   3
Atom  57H    basis set group =>   3
Atom  58H    basis set group =>   3
Atom  59H    basis set group =>   3
Atom  60H    basis set group =>   3
Atom  61H    basis set group =>   3
Atom  62H    basis set group =>   3
Atom  63H    basis set group =>   3
Atom  64H    basis set group =>   3
Atom  65H    basis set group =>   3
Atom  66H    basis set group =>   3
Atom  67H    basis set group =>   3
Atom  68H    basis set group =>   3
Atom  69H    basis set group =>   3
Atom  70H    basis set group =>   3
Atom  71H    basis set group =>   3
Atom  72H    basis set group =>   3
Atom  73H    basis set group =>   3
Atom  74H    basis set group =>   3
Atom  75H    basis set group =>   3
Atom  76H    basis set group =>   3
Atom  77H    basis set group =>   3
Atom  78H    basis set group =>   3
Atom  79H    basis set group =>   3
Atom  80H    basis set group =>   3
Atom  81H    basis set group =>   3
Atom  82H    basis set group =>   3
Atom  83H    basis set group =>   3
Atom  84H    basis set group =>   3
Atom  85H    basis set group =>   3
Atom  86H    basis set group =>   3
Atom  87H    basis set group =>   3
Atom  88H    basis set group =>   3
Atom  89H    basis set group =>   3


           ************************************************************
           *        Program running with 16 parallel MPI-processes    *
           *              working on a common directory               *
           ************************************************************
------------------------------------------------------------------------------
                           ORCA GTO INTEGRAL CALCULATION
------------------------------------------------------------------------------
------------------------------------------------------------------------------
                   ___                                                        
                  /   \      - P O W E R E D   B Y -                         
                 /     \                                                     
                 |  |  |   _    _      __       _____    __    __             
                 |  |  |  | |  | |    /  \     |  _  \  |  |  /  |          
                  \  \/   | |  | |   /    \    | | | |  |  | /  /          
                 / \  \   | |__| |  /  /\  \   | |_| |  |  |/  /          
                |  |  |   |  __  | /  /__\  \  |    /   |      \           
                |  |  |   | |  | | |   __   |  |    \   |  |\   \          
                \     /   | |  | | |  |  |  |  | |\  \  |  | \   \       
                 \___/    |_|  |_| |__|  |__|  |_| \__\ |__|  \__/        
                                                                              
                      - O R C A' S   B I G   F R I E N D -                    
                                      &                                       
                       - I N T E G R A L  F E E D E R -                       
                                                                              
 v1 FN, 2020, v2 2021                                                         
------------------------------------------------------------------------------


Reading SHARK input file /scratch/allen/tmpyp4_amber_gaff2/conf1/conf1/Conf57.orca.SHARKINP.tmp ... ok
----------------------
SHARK INTEGRAL PACKAGE
----------------------

Number of atoms                             ...     90
Number of basis functions                   ...   1230
Number of shells                            ...    738
Maximum angular momentum                    ...      2
Integral batch strategy                     ... SHARK/LIBINT Hybrid
RI-J (if used) integral strategy            ... SPLIT-RIJ (Revised 2003 algorithm where possible)
Printlevel                                  ...      1
Contraction scheme used                     ... PARTIAL GENERAL contraction
Coulomb Range Separation                    ... NOT USED
Exchange Range Separation                   ... NOT USED
Finite Nucleus Model                        ... NOT USED
Auxiliary Coulomb fitting basis             ... NOT available
Auxiliary J/K fitting basis                 ... NOT available
Auxiliary Correlation fitting basis         ... NOT available
Auxiliary 'external' fitting basis          ... NOT available
Integral threshold                          ...     2.500000e-11
Primitive cut-off                           ...     2.500000e-12
Primitive pair pre-selection threshold      ...     2.500000e-12

Calculating pre-screening integrals         ... done (  0.1 sec) Dimension = 738
Calculating pre-screening integrals (ORCA)  ... done (  0.3 sec) Dimension = 426
Organizing shell pair data                  ... done (  0.5 sec)
Shell pair information
Total number of shell pairs                 ...    272691
Shell pairs after pre-screening             ...     71602
Total number of primitive shell pairs       ...    422091
Primitive shell pairs kept                  ...     92373
          la=0 lb=0:  29415 shell pairs
          la=1 lb=0:  25960 shell pairs
          la=1 lb=1:   4701 shell pairs
          la=2 lb=0:   7869 shell pairs
          la=2 lb=1:   3126 shell pairs
          la=2 lb=2:    531 shell pairs

Calculating one electron integrals          ... done (  0.2 sec)
Calculating Nuclear repulsion               ... done (  0.0 sec) ENN=   6225.716171043367 Eh

SHARK setup successfully completed in   1.7 seconds

Maximum memory used throughout the entire GTOINT-calculation: 98.9 MB


           ************************************************************
           *        Program running with 16 parallel MPI-processes    *
           *              working on a common directory               *
           ************************************************************
-------------------------------------------------------------------------------
                                 ORCA SCF
-------------------------------------------------------------------------------

------------
SCF SETTINGS
------------
Hamiltonian:
 Ab initio Hamiltonian  Method          .... Hartree-Fock(GTOs)


General Settings:
 Integral files         IntName         .... /scratch/allen/tmpyp4_amber_gaff2/conf1/conf1/Conf57.orca
 Hartree-Fock type      HFTyp           .... RHF
 Total Charge           Charge          ....    0
 Multiplicity           Mult            ....    1
 Number of Electrons    NEL             ....  358
 Basis Dimension        Dim             ....  918
 Nuclear Repulsion      ENuc            ....   6225.7161710434 Eh

Convergence Acceleration:
 DIIS                   CNVDIIS         .... on
   Start iteration      DIISMaxIt       ....    12
   Startup error        DIISStart       ....  0.200000
   # of expansion vecs  DIISMaxEq       ....     5
   Bias factor          DIISBfac        ....   1.050
   Max. coefficient     DIISMaxC        ....  10.000
 Trust-Rad. Augm. Hess. CNVTRAH         .... auto
   Auto Start mean grad. ratio tolernc. ....  1.125000
   Auto Start start iteration           ....    20
   Auto Start num. interpolation iter.  ....    10
   Max. Number of Micro iterations      ....    16
   Max. Number of Macro iterations      .... Maxiter - #DIIS iter
   Number of Davidson start vectors     ....     2
   Converg. threshold I  (grad. norm)   ....   1.000e-05
   Converg. threshold II (energy diff.) ....   1.000e-08
   Grad. Scal. Fac. for Micro threshold ....   0.100
   Minimum threshold for Micro iter.    ....   0.010
   NR start threshold (gradient norm)   ....   0.001
   Initial trust radius                 ....   0.400
   Minimum AH scaling param. (alpha)    ....   1.000
   Maximum AH scaling param. (alpha)    .... 1000.000
   Orbital update algorithm             .... Taylor
   White noise on init. David. guess    .... on
   Maximum white noise                  ....   0.010
   Quad. conv. algorithm                .... NR
 SOSCF                  CNVSOSCF        .... on
   Start iteration      SOSCFMaxIt      ....   150
   Startup grad/error   SOSCFStart      ....  0.003300
 Level Shifting         CNVShift        .... on
   Level shift para.    LevelShift      ....    0.2500
   Turn off err/grad.   ShiftErr        ....    0.0010
 Zerner damping         CNVZerner       .... off
 Static damping         CNVDamp         .... on
   Fraction old density DampFac         ....    0.7000
   Max. Damping (<1)    DampMax         ....    0.9800
   Min. Damping (>=0)   DampMin         ....    0.0000
   Turn off err/grad.   DampErr         ....    0.1000
 Fernandez-Rico         CNVRico         .... off

SCF Procedure:
 Maximum # iterations   MaxIter         ....   125
 SCF integral mode      SCFMode         .... Direct
   Integral package                     .... SHARK and LIBINT hybrid scheme
 Reset frequency        DirectResetFreq ....    20
 Integral Threshold     Thresh          ....  2.500e-11 Eh
 Primitive CutOff       TCut            ....  2.500e-12 Eh

Convergence Tolerance:
 Convergence Check Mode ConvCheckMode   .... Total+1el-Energy
 Convergence forced     ConvForced      .... 1
 Energy Change          TolE            ....  1.000e-08 Eh
 1-El. energy change                    ....  1.000e-05 Eh
 Orbital Gradient       TolG            ....  1.000e-05
 Orbital Rotation angle TolX            ....  1.000e-05
 DIIS Error             TolErr          ....  5.000e-07


Diagonalization of the overlap matrix:
Smallest eigenvalue                        ... 2.247e-04
Time for diagonalization                   ...    0.381 sec
Threshold for overlap eigenvalues          ... 1.000e-08
Number of eigenvalues below threshold      ... 0
Time for construction of square roots      ...    0.186 sec
Total time needed                          ...    0.572 sec

Time for model grid setup =    1.000 sec

------------------------------
INITIAL GUESS: MODEL POTENTIAL
------------------------------
Loading Hartree-Fock densities                     ... done
Calculating cut-offs                               ... done
Initializing the effective Hamiltonian             ... done
Setting up the integral package (SHARK)            ... done
Starting the Coulomb interaction                   ... done (   1.1 sec)
Reading the grid                                   ... done
Mapping shells                                     ... done
Starting the XC term evaluation                    ... done (   0.2 sec)
Transforming the Hamiltonian                       ... done (   0.2 sec)
Diagonalizing the Hamiltonian                      ... done (   0.3 sec)
Back transforming the eigenvectors                 ... done (   0.1 sec)
Now organizing SCF variables                       ... done
                      ------------------
                      INITIAL GUESS DONE (   2.9 sec)
                      ------------------
--------------
SCF ITERATIONS
--------------
ITER       Energy         Delta-E        Max-DP      RMS-DP      [F,P]     Damp
               ***  Starting incremental Fock matrix formation  ***
  0  -2121.6726021851   0.000000000000 0.06901507  0.00121183  0.2330091 0.7000
  1  -2122.3376115266  -0.665009341459 0.05235688  0.00098396  0.1441692 0.7000
                               ***Turning on DIIS***
  2  -2122.7506151558  -0.413003629241 0.11622955  0.00222848  0.0802549 0.0000
  3  -2117.7344630313   5.016152124523 0.03076398  0.00068536  0.0442549 0.0000
  4  -2123.4110018534  -5.676538822141 0.00890785  0.00022931  0.0069190 0.0000
  5  -2123.5905557337  -0.179553880262 0.00515811  0.00013597  0.0048891 0.0000
  6  -2123.5736704265   0.016885307161 0.00336486  0.00008842  0.0019546 0.0000
  7  -2123.6791280608  -0.105457634289 0.00283232  0.00007006  0.0014961 0.0000
  8  -2123.6983665994  -0.019238538582 0.00277353  0.00006607  0.0013958 0.0000
  9  -2123.6619946596   0.036371939796 0.00222793  0.00004501  0.0011003 0.0000
 10  -2123.6770827519  -0.015088092265 0.00459552  0.00008855  0.0008366 0.0000
                      *** Initiating the SOSCF procedure ***
                           *** Shutting down DIIS ***
                      *** Re-Reading the Fockian *** 
                      *** Removing any level shift *** 
ITER      Energy       Delta-E        Grad      Rot      Max-DP    RMS-DP
 11  -2123.55709751   0.1199852459  0.000341  0.000341  0.000293  0.000007
               *** Restarting incremental Fock matrix formation ***
 12  -2123.62334249  -0.0662449854  0.000994  0.006753  0.001100  0.000027
 13  -2123.62340641  -0.0000639163  0.001036  0.026261  0.003988  0.000084
 14  -2123.62348130  -0.0000748894  0.000448  0.002692  0.000523  0.000011
 15  -2123.62349174  -0.0000104418  0.000121  0.001442  0.000467  0.000007
 16  -2123.62349491  -0.0000031737  0.000097  0.002077  0.000536  0.000010
 17  -2123.62349715  -0.0000022363  0.000092  0.002023  0.000430  0.000007
 18  -2123.62349812  -0.0000009677  0.000050  0.001218  0.000265  0.000005
 19  -2123.62349886  -0.0000007392  0.000053  0.000810  0.000183  0.000004
 20  -2123.62349918  -0.0000003199  0.000025  0.000543  0.000100  0.000002
 21  -2123.62349926  -0.0000000878  0.000027  0.000295  0.000047  0.000001
 22  -2123.62349933  -0.0000000690  0.000016  0.000337  0.000072  0.000002
 23  -2123.62349939  -0.0000000533  0.000011  0.000180  0.000052  0.000001
 24  -2123.62349940  -0.0000000183  0.000005  0.000112  0.000032  0.000001
 25  -2123.62349942  -0.0000000124  0.000004  0.000077  0.000019  0.000000
 26  -2123.62349943  -0.0000000124  0.000003  0.000049  0.000016  0.000000
                  ***Gradient check signals convergence***
              ***Rediagonalizing the Fockian in SOSCF/NRSCF***

               *****************************************************
               *                     SUCCESS                       *
               *           SCF CONVERGED AFTER  27 CYCLES          *
               *****************************************************


----------------
TOTAL SCF ENERGY
----------------

Total Energy       :        -2123.62349943 Eh          -57786.73324 eV

Components:
Nuclear Repulsion  :         6225.71617104 Eh          169410.34967 eV
Electronic Energy  :        -8349.33967047 Eh         -227197.08291 eV
One Electron Energy:       -15292.54297096 Eh         -416131.24994 eV
Two Electron Energy:         6943.20330049 Eh          188934.16703 eV

Virial components:
Potential Energy   :        -4245.63485794 Eh         -115529.59790 eV
Kinetic Energy     :         2122.01135851 Eh           57742.86466 eV
Virial Ratio       :            2.00075972


---------------
SCF CONVERGENCE
---------------

  Last Energy change         ...    4.8749e-10  Tolerance :   1.0000e-08
  Last MAX-Density change    ...    1.6165e-05  Tolerance :   1.0000e-07
  Last RMS-Density change    ...    2.0586e-07  Tolerance :   5.0000e-09
  Last Orbital Gradient      ...    1.9546e-06  Tolerance :   1.0000e-05
  Last Orbital Rotation      ...    5.1515e-05  Tolerance :   1.0000e-05

             **** THE GBW FILE WAS UPDATED (/scratch/allen/tmpyp4_amber_gaff2/conf1/conf1/Conf57.orca.gbw) ****
             **** DENSITY /scratch/allen/tmpyp4_amber_gaff2/conf1/conf1/Conf57.orca.scfp WAS UPDATED ****
             **** ENERGY FILE WAS UPDATED (/scratch/allen/tmpyp4_amber_gaff2/conf1/conf1/Conf57.orca.en.tmp) ****
             **** THE GBW FILE WAS UPDATED (/scratch/allen/tmpyp4_amber_gaff2/conf1/conf1/Conf57.orca.gbw) ****
             **** DENSITY /scratch/allen/tmpyp4_amber_gaff2/conf1/conf1/Conf57.orca.scfp WAS UPDATED ****
----------------
ORBITAL ENERGIES
----------------

  NO   OCC          E(Eh)            E(eV) 
   0   2.0000     -15.641885      -425.6373 
   1   2.0000     -15.637892      -425.5287 
   2   2.0000     -15.629813      -425.3088 
   3   2.0000     -15.621753      -425.0895 
   4   2.0000     -15.519122      -422.2968 
   5   2.0000     -15.516493      -422.2252 
   6   2.0000     -15.444964      -420.2788 
   7   2.0000     -15.443724      -420.2451 
   8   2.0000     -11.304409      -307.6086 
   9   2.0000     -11.301687      -307.5345 
  10   2.0000     -11.298053      -307.4357 
  11   2.0000     -11.296748      -307.4001 
  12   2.0000     -11.295885      -307.3767 
  13   2.0000     -11.293890      -307.3224 
  14   2.0000     -11.292290      -307.2788 
  15   2.0000     -11.292279      -307.2785 
  16   2.0000     -11.286888      -307.1318 
  17   2.0000     -11.286455      -307.1201 
  18   2.0000     -11.281568      -306.9871 
  19   2.0000     -11.280409      -306.9555 
  20   2.0000     -11.246187      -306.0243 
  21   2.0000     -11.241202      -305.8887 
  22   2.0000     -11.236347      -305.7565 
  23   2.0000     -11.235466      -305.7326 
  24   2.0000     -11.234232      -305.6990 
  25   2.0000     -11.233522      -305.6797 
  26   2.0000     -11.232732      -305.6582 
  27   2.0000     -11.228421      -305.5409 
  28   2.0000     -11.227692      -305.5210 
  29   2.0000     -11.227515      -305.5162 
  30   2.0000     -11.221922      -305.3640 
  31   2.0000     -11.221212      -305.3447 
  32   2.0000     -11.200495      -304.7810 
  33   2.0000     -11.200231      -304.7738 
  34   2.0000     -11.194523      -304.6185 
  35   2.0000     -11.193943      -304.6027 
  36   2.0000     -11.173769      -304.0537 
  37   2.0000     -11.173050      -304.0341 
  38   2.0000     -11.172702      -304.0247 
  39   2.0000     -11.171304      -303.9866 
  40   2.0000     -11.170056      -303.9527 
  41   2.0000     -11.168873      -303.9205 
  42   2.0000     -11.167804      -303.8914 
  43   2.0000     -11.166484      -303.8555 
  44   2.0000     -11.160125      -303.6824 
  45   2.0000     -11.158741      -303.6448 
  46   2.0000     -11.152962      -303.4875 
  47   2.0000     -11.151017      -303.4346 
  48   2.0000     -11.145089      -303.2733 
  49   2.0000     -11.143142      -303.2203 
  50   2.0000     -11.141754      -303.1825 
  51   2.0000     -11.138686      -303.0991 
  52   2.0000      -1.328035       -36.1377 
  53   2.0000      -1.324515       -36.0419 
  54   2.0000      -1.317574       -35.8530 
  55   2.0000      -1.311411       -35.6853 
  56   2.0000      -1.217860       -33.1397 
  57   2.0000      -1.213032       -33.0083 
  58   2.0000      -1.162226       -31.6258 
  59   2.0000      -1.157204       -31.4891 
  60   2.0000      -1.116565       -30.3833 
  61   2.0000      -1.112426       -30.2706 
  62   2.0000      -1.106576       -30.1115 
  63   2.0000      -1.101502       -29.9734 
  64   2.0000      -1.051929       -28.6244 
  65   2.0000      -1.048380       -28.5279 
  66   2.0000      -1.042160       -28.3586 
  67   2.0000      -1.036794       -28.2126 
  68   2.0000      -1.026847       -27.9419 
  69   2.0000      -1.009822       -27.4787 
  70   2.0000      -1.009596       -27.4725 
  71   2.0000      -0.998084       -27.1593 
  72   2.0000      -0.981941       -26.7200 
  73   2.0000      -0.976114       -26.5614 
  74   2.0000      -0.968938       -26.3661 
  75   2.0000      -0.960627       -26.1400 
  76   2.0000      -0.952438       -25.9172 
  77   2.0000      -0.943553       -25.6754 
  78   2.0000      -0.940613       -25.5954 
  79   2.0000      -0.923531       -25.1305 
  80   2.0000      -0.893411       -24.3110 
  81   2.0000      -0.878638       -23.9089 
  82   2.0000      -0.875343       -23.8193 
  83   2.0000      -0.869483       -23.6598 
  84   2.0000      -0.864625       -23.5276 
  85   2.0000      -0.857013       -23.3205 
  86   2.0000      -0.848028       -23.0760 
  87   2.0000      -0.844318       -22.9751 
  88   2.0000      -0.821887       -22.3647 
  89   2.0000      -0.798574       -21.7303 
  90   2.0000      -0.797976       -21.7140 
  91   2.0000      -0.739513       -20.1232 
  92   2.0000      -0.729628       -19.8542 
  93   2.0000      -0.728813       -19.8320 
  94   2.0000      -0.721063       -19.6211 
  95   2.0000      -0.720424       -19.6037 
  96   2.0000      -0.712234       -19.3809 
  97   2.0000      -0.709912       -19.3177 
  98   2.0000      -0.698886       -19.0177 
  99   2.0000      -0.692390       -18.8409 
 100   2.0000      -0.684111       -18.6156 
 101   2.0000      -0.680879       -18.5277 
 102   2.0000      -0.679101       -18.4793 
 103   2.0000      -0.674076       -18.3426 
 104   2.0000      -0.668187       -18.1823 
 105   2.0000      -0.667332       -18.1590 
 106   2.0000      -0.662157       -18.0182 
 107   2.0000      -0.659786       -17.9537 
 108   2.0000      -0.656829       -17.8732 
 109   2.0000      -0.655268       -17.8308 
 110   2.0000      -0.652321       -17.7506 
 111   2.0000      -0.651078       -17.7167 
 112   2.0000      -0.648410       -17.6441 
 113   2.0000      -0.644835       -17.5469 
 114   2.0000      -0.635000       -17.2792 
 115   2.0000      -0.623966       -16.9790 
 116   2.0000      -0.618454       -16.8290 
 117   2.0000      -0.615281       -16.7426 
 118   2.0000      -0.611410       -16.6373 
 119   2.0000      -0.609192       -16.5770 
 120   2.0000      -0.608375       -16.5547 
 121   2.0000      -0.605075       -16.4649 
 122   2.0000      -0.602112       -16.3843 
 123   2.0000      -0.593741       -16.1565 
 124   2.0000      -0.587020       -15.9736 
 125   2.0000      -0.584091       -15.8939 
 126   2.0000      -0.579120       -15.7587 
 127   2.0000      -0.574317       -15.6280 
 128   2.0000      -0.570759       -15.5312 
 129   2.0000      -0.561787       -15.2870 
 130   2.0000      -0.553755       -15.0685 
 131   2.0000      -0.543111       -14.7788 
 132   2.0000      -0.540577       -14.7099 
 133   2.0000      -0.535673       -14.5764 
 134   2.0000      -0.533735       -14.5237 
 135   2.0000      -0.530856       -14.4453 
 136   2.0000      -0.524575       -14.2744 
 137   2.0000      -0.523904       -14.2561 
 138   2.0000      -0.517785       -14.0896 
 139   2.0000      -0.515969       -14.0402 
 140   2.0000      -0.510840       -13.9007 
 141   2.0000      -0.505674       -13.7601 
 142   2.0000      -0.503895       -13.7117 
 143   2.0000      -0.502612       -13.6768 
 144   2.0000      -0.499102       -13.5813 
 145   2.0000      -0.498471       -13.5641 
 146   2.0000      -0.497386       -13.5346 
 147   2.0000      -0.493180       -13.4201 
 148   2.0000      -0.491457       -13.3732 
 149   2.0000      -0.469266       -12.7694 
 150   2.0000      -0.460495       -12.5307 
 151   2.0000      -0.451738       -12.2924 
 152   2.0000      -0.448301       -12.1989 
 153   2.0000      -0.446631       -12.1534 
 154   2.0000      -0.445270       -12.1164 
 155   2.0000      -0.439705       -11.9650 
 156   2.0000      -0.435464       -11.8496 
 157   2.0000      -0.431976       -11.7547 
 158   2.0000      -0.392061       -10.6685 
 159   2.0000      -0.383008       -10.4222 
 160   2.0000      -0.377703       -10.2778 
 161   2.0000      -0.373543       -10.1646 
 162   2.0000      -0.362053        -9.8520 
 163   2.0000      -0.358897        -9.7661 
 164   2.0000      -0.353740        -9.6258 
 165   2.0000      -0.348260        -9.4766 
 166   2.0000      -0.337151        -9.1744 
 167   2.0000      -0.332594        -9.0503 
 168   2.0000      -0.329423        -8.9641 
 169   2.0000      -0.300362        -8.1733 
 170   2.0000      -0.295213        -8.0332 
 171   2.0000      -0.289411        -7.8753 
 172   2.0000      -0.287489        -7.8230 
 173   2.0000      -0.255579        -6.9547 
 174   2.0000      -0.248459        -6.7609 
 175   2.0000      -0.188238        -5.1222 
 176   2.0000      -0.178162        -4.8480 
 177   2.0000      -0.067009        -1.8234 
 178   2.0000      -0.054544        -1.4842 
 179   0.0000       0.030849         0.8394 
 180   0.0000       0.070748         1.9251 
 181   0.0000       0.092786         2.5248 
 182   0.0000       0.097404         2.6505 
 183   0.0000       0.132279         3.5995 
 184   0.0000       0.135010         3.6738 
 185   0.0000       0.140896         3.8340 
 186   0.0000       0.146488         3.9862 
 187   0.0000       0.160541         4.3685 
 188   0.0000       0.161073         4.3830 
 189   0.0000       0.163190         4.4406 
 190   0.0000       0.167184         4.5493 
 191   0.0000       0.170870         4.6496 
 192   0.0000       0.200637         5.4596 
 193   0.0000       0.202921         5.5218 
 194   0.0000       0.203981         5.5506 
 195   0.0000       0.206528         5.6199 
 196   0.0000       0.207110         5.6357 
 197   0.0000       0.210366         5.7244 
 198   0.0000       0.210744         5.7346 
 199   0.0000       0.214352         5.8328 
 200   0.0000       0.234924         6.3926 
 201   0.0000       0.238056         6.4778 
 202   0.0000       0.241369         6.5680 
 203   0.0000       0.244959         6.6657 
 204   0.0000       0.252789         6.8787 
 205   0.0000       0.255119         6.9422 
 206   0.0000       0.258074         7.0226 
 207   0.0000       0.258585         7.0365 
 208   0.0000       0.261521         7.1163 
 209   0.0000       0.264271         7.1912 
 210   0.0000       0.267908         7.2901 
 211   0.0000       0.270010         7.3474 
 212   0.0000       0.273487         7.4420 
 213   0.0000       0.275758         7.5038 
 214   0.0000       0.277939         7.5631 
 215   0.0000       0.279815         7.6142 
 216   0.0000       0.280224         7.6253 
 217   0.0000       0.282419         7.6850 
 218   0.0000       0.287399         7.8205 
 219   0.0000       0.289572         7.8797 
 220   0.0000       0.291428         7.9301 
 221   0.0000       0.292153         7.9499 
 222   0.0000       0.293430         7.9846 
 223   0.0000       0.295276         8.0349 
 224   0.0000       0.298552         8.1240 
 225   0.0000       0.300744         8.1837 
 226   0.0000       0.302346         8.2273 
 227   0.0000       0.304893         8.2966 
 228   0.0000       0.307689         8.3727 
 229   0.0000       0.311076         8.4648 
 230   0.0000       0.315570         8.5871 
 231   0.0000       0.318082         8.6555 
 232   0.0000       0.325490         8.8570 
 233   0.0000       0.328683         8.9439 
 234   0.0000       0.331626         9.0240 
 235   0.0000       0.338059         9.1991 
 236   0.0000       0.356362         9.6971 
 237   0.0000       0.388021        10.5586 
 238   0.0000       0.394227        10.7275 
 239   0.0000       0.401250        10.9186 
 240   0.0000       0.406284        11.0555 
 241   0.0000       0.410728        11.1765 
 242   0.0000       0.421152        11.4601 
 243   0.0000       0.424548        11.5525 
 244   0.0000       0.432245        11.7620 
 245   0.0000       0.432387        11.7658 
 246   0.0000       0.435746        11.8573 
 247   0.0000       0.438863        11.9421 
 248   0.0000       0.440521        11.9872 
 249   0.0000       0.443366        12.0646 
 250   0.0000       0.444605        12.0983 
 251   0.0000       0.448148        12.1947 
 252   0.0000       0.455867        12.4048 
 253   0.0000       0.468393        12.7456 
 254   0.0000       0.471365        12.8265 
 255   0.0000       0.474453        12.9105 
 256   0.0000       0.481526        13.1030 
 257   0.0000       0.486308        13.2331 
 258   0.0000       0.490830        13.3562 
 259   0.0000       0.497960        13.5502 
 260   0.0000       0.500880        13.6296 
 261   0.0000       0.502866        13.6837 
 262   0.0000       0.505968        13.7681 
 263   0.0000       0.511123        13.9084 
 264   0.0000       0.511713        13.9244 
 265   0.0000       0.514740        14.0068 
 266   0.0000       0.516953        14.0670 
 267   0.0000       0.522517        14.2184 
 268   0.0000       0.535847        14.5811 
 269   0.0000       0.538402        14.6507 
 270   0.0000       0.540747        14.7145 
 271   0.0000       0.546013        14.8578 
 272   0.0000       0.548006        14.9120 
 273   0.0000       0.553636        15.0652 
 274   0.0000       0.559782        15.2325 
 275   0.0000       0.562898        15.3172 
 276   0.0000       0.572941        15.5905 
 277   0.0000       0.575872        15.6703 
 278   0.0000       0.582736        15.8570 
 279   0.0000       0.585364        15.9286 
 280   0.0000       0.589803        16.0493 
 281   0.0000       0.591933        16.1073 
 282   0.0000       0.594743        16.1838 
 283   0.0000       0.595906        16.2154 
 284   0.0000       0.600478        16.3398 
 285   0.0000       0.602691        16.4001 
 286   0.0000       0.606010        16.4904 
 287   0.0000       0.607498        16.5309 
 288   0.0000       0.610770        16.6199 
 289   0.0000       0.615085        16.7373 
 290   0.0000       0.615773        16.7560 
 291   0.0000       0.627799        17.0833 
 292   0.0000       0.639879        17.4120 
 293   0.0000       0.640493        17.4287 
 294   0.0000       0.641796        17.4641 
 295   0.0000       0.651381        17.7250 
 296   0.0000       0.657493        17.8913 
 297   0.0000       0.660758        17.9801 
 298   0.0000       0.661842        18.0096 
 299   0.0000       0.662713        18.0333 
 300   0.0000       0.670844        18.2546 
 301   0.0000       0.672252        18.2929 
 302   0.0000       0.677827        18.4446 
 303   0.0000       0.679874        18.5003 
 304   0.0000       0.683099        18.5881 
 305   0.0000       0.684798        18.6343 
 306   0.0000       0.690635        18.7931 
 307   0.0000       0.695468        18.9246 
 308   0.0000       0.698554        19.0086 
 309   0.0000       0.702091        19.1049 
 310   0.0000       0.704404        19.1678 
 311   0.0000       0.705667        19.2022 
 312   0.0000       0.706799        19.2330 
 313   0.0000       0.708846        19.2887 
 314   0.0000       0.712083        19.3768 
 315   0.0000       0.714766        19.4498 
 316   0.0000       0.716477        19.4963 
 317   0.0000       0.718357        19.5475 
 318   0.0000       0.719554        19.5801 
 319   0.0000       0.721674        19.6377 
 320   0.0000       0.722796        19.6683 
 321   0.0000       0.727799        19.8044 
 322   0.0000       0.730902        19.8889 
 323   0.0000       0.734878        19.9970 
 324   0.0000       0.738888        20.1062 
 325   0.0000       0.742111        20.1939 
 326   0.0000       0.745753        20.2930 
 327   0.0000       0.747040        20.3280 
 328   0.0000       0.748037        20.3551 
 329   0.0000       0.749246        20.3880 
 330   0.0000       0.753253        20.4971 
 331   0.0000       0.754358        20.5271 
 332   0.0000       0.758261        20.6333 
 333   0.0000       0.761950        20.7337 
 334   0.0000       0.764698        20.8085 
 335   0.0000       0.771618        20.9968 
 336   0.0000       0.774092        21.0641 
 337   0.0000       0.776504        21.1298 
 338   0.0000       0.784110        21.3367 
 339   0.0000       0.789424        21.4813 
 340   0.0000       0.790930        21.5223 
 341   0.0000       0.793094        21.5812 
 342   0.0000       0.798537        21.7293 
 343   0.0000       0.799825        21.7643 
 344   0.0000       0.805004        21.9053 
 345   0.0000       0.806067        21.9342 
 346   0.0000       0.807587        21.9755 
 347   0.0000       0.812885        22.1197 
 348   0.0000       0.814639        22.1675 
 349   0.0000       0.816017        22.2050 
 350   0.0000       0.821194        22.3458 
 351   0.0000       0.822544        22.3826 
 352   0.0000       0.825838        22.4722 
 353   0.0000       0.830547        22.6003 
 354   0.0000       0.832285        22.6476 
 355   0.0000       0.832360        22.6497 
 356   0.0000       0.834524        22.7085 
 357   0.0000       0.835641        22.7389 
 358   0.0000       0.837128        22.7794 
 359   0.0000       0.839321        22.8391 
 360   0.0000       0.841089        22.8872 
 361   0.0000       0.841285        22.8925 
 362   0.0000       0.843717        22.9587 
 363   0.0000       0.843923        22.9643 
 364   0.0000       0.845828        23.0161 
 365   0.0000       0.849183        23.1074 
 366   0.0000       0.850109        23.1327 
 367   0.0000       0.851273        23.1643 
 368   0.0000       0.859028        23.3753 
 369   0.0000       0.860154        23.4060 
 370   0.0000       0.866512        23.5790 
 371   0.0000       0.868715        23.6389 
 372   0.0000       0.871103        23.7039 
 373   0.0000       0.878124        23.8950 
 374   0.0000       0.879008        23.9190 
 375   0.0000       0.882334        24.0095 
 376   0.0000       0.883843        24.0506 
 377   0.0000       0.888603        24.1801 
 378   0.0000       0.892429        24.2842 
 379   0.0000       0.896199        24.3868 
 380   0.0000       0.898736        24.4559 
 381   0.0000       0.899925        24.4882 
 382   0.0000       0.901042        24.5186 
 383   0.0000       0.903442        24.5839 
 384   0.0000       0.903865        24.5954 
 385   0.0000       0.907324        24.6895 
 386   0.0000       0.909020        24.7357 
 387   0.0000       0.909938        24.7607 
 388   0.0000       0.912920        24.8418 
 389   0.0000       0.914560        24.8865 
 390   0.0000       0.916596        24.9418 
 391   0.0000       0.918546        24.9949 
 392   0.0000       0.921573        25.0773 
 393   0.0000       0.924636        25.1606 
 394   0.0000       0.928420        25.2636 
 395   0.0000       0.933322        25.3970 
 396   0.0000       0.934823        25.4378 
 397   0.0000       0.937504        25.5108 
 398   0.0000       0.937893        25.5214 
 399   0.0000       0.939007        25.5517 
 400   0.0000       0.944330        25.6965 
 401   0.0000       0.945836        25.7375 
 402   0.0000       0.949445        25.8357 
 403   0.0000       0.952324        25.9141 
 404   0.0000       0.952644        25.9227 
 405   0.0000       0.955280        25.9945 
 406   0.0000       0.960052        26.1244 
 407   0.0000       0.965475        26.2719 
 408   0.0000       0.967982        26.3401 
 409   0.0000       0.971216        26.4281 
 410   0.0000       0.976310        26.5668 
 411   0.0000       0.977686        26.6042 
 412   0.0000       0.983931        26.7741 
 413   0.0000       0.986461        26.8430 
 414   0.0000       0.989509        26.9259 
 415   0.0000       0.990268        26.9466 
 416   0.0000       0.994014        27.0485 
 417   0.0000       1.003106        27.2959 
 418   0.0000       1.007477        27.4149 
 419   0.0000       1.014462        27.6049 
 420   0.0000       1.022044        27.8112 
 421   0.0000       1.030186        28.0328 
 422   0.0000       1.032793        28.1037 
 423   0.0000       1.037577        28.2339 
 424   0.0000       1.041283        28.3348 
 425   0.0000       1.046710        28.4824 
 426   0.0000       1.051461        28.6117 
 427   0.0000       1.066603        29.0237 
 428   0.0000       1.070951        29.1421 
 429   0.0000       1.071534        29.1579 
 430   0.0000       1.075862        29.2757 
 431   0.0000       1.079397        29.3719 
 432   0.0000       1.084318        29.5058 
 433   0.0000       1.090763        29.6812 
 434   0.0000       1.095274        29.8039 
 435   0.0000       1.099350        29.9148 
 436   0.0000       1.108780        30.1714 
 437   0.0000       1.112186        30.2641 
 438   0.0000       1.116256        30.3749 
 439   0.0000       1.117784        30.4164 
 440   0.0000       1.120831        30.4994 
 441   0.0000       1.124327        30.5945 
 442   0.0000       1.130298        30.7570 
 443   0.0000       1.132023        30.8039 
 444   0.0000       1.134231        30.8640 
 445   0.0000       1.135804        30.9068 
 446   0.0000       1.136582        30.9280 
 447   0.0000       1.142428        31.0871 
 448   0.0000       1.144383        31.1402 
 449   0.0000       1.146100        31.1870 
 450   0.0000       1.147220        31.2174 
 451   0.0000       1.150694        31.3120 
 452   0.0000       1.153930        31.4000 
 453   0.0000       1.158305        31.5191 
 454   0.0000       1.160617        31.5820 
 455   0.0000       1.168022        31.7835 
 456   0.0000       1.174874        31.9700 
 457   0.0000       1.176698        32.0196 
 458   0.0000       1.178659        32.0729 
 459   0.0000       1.186002        32.2728 
 460   0.0000       1.189416        32.3656 
 461   0.0000       1.191666        32.4269 
 462   0.0000       1.204163        32.7669 
 463   0.0000       1.205446        32.8019 
 464   0.0000       1.206799        32.8387 
 465   0.0000       1.210696        32.9447 
 466   0.0000       1.213032        33.0083 
 467   0.0000       1.217001        33.1163 
 468   0.0000       1.223550        33.2945 
 469   0.0000       1.227458        33.4008 
 470   0.0000       1.233798        33.5734 
 471   0.0000       1.235946        33.6318 
 472   0.0000       1.238331        33.6967 
 473   0.0000       1.241152        33.7735 
 474   0.0000       1.242591        33.8126 
 475   0.0000       1.246257        33.9124 
 476   0.0000       1.248470        33.9726 
 477   0.0000       1.250462        34.0268 
 478   0.0000       1.252805        34.0905 
 479   0.0000       1.254356        34.1328 
 480   0.0000       1.257293        34.2127 
 481   0.0000       1.266678        34.4681 
 482   0.0000       1.268081        34.5062 
 483   0.0000       1.272497        34.6264 
 484   0.0000       1.273900        34.6646 
 485   0.0000       1.279020        34.8039 
 486   0.0000       1.282385        34.8955 
 487   0.0000       1.284508        34.9532 
 488   0.0000       1.287364        35.0310 
 489   0.0000       1.289990        35.1024 
 490   0.0000       1.291471        35.1427 
 491   0.0000       1.294175        35.2163 
 492   0.0000       1.302345        35.4386 
 493   0.0000       1.308694        35.6114 
 494   0.0000       1.313005        35.7287 
 495   0.0000       1.315323        35.7918 
 496   0.0000       1.319465        35.9045 
 497   0.0000       1.321753        35.9667 
 498   0.0000       1.324722        36.0475 
 499   0.0000       1.329444        36.1760 
 500   0.0000       1.335107        36.3301 
 501   0.0000       1.337969        36.4080 
 502   0.0000       1.342352        36.5273 
 503   0.0000       1.345415        36.6106 
 504   0.0000       1.348752        36.7014 
 505   0.0000       1.352095        36.7924 
 506   0.0000       1.353411        36.8282 
 507   0.0000       1.356346        36.9081 
 508   0.0000       1.360834        37.0302 
 509   0.0000       1.362958        37.0880 
 510   0.0000       1.364264        37.1235 
 511   0.0000       1.367762        37.2187 
[...]
      pz      :     0.021979  p :     0.079576
      px      :     0.043312
      py      :     0.014285
 77 H s       :     0.888868  s :     0.888868
      pz      :     0.047642  p :     0.078908
      px      :     0.015013
      py      :     0.016254
 78 H s       :     0.889240  s :     0.889240
      pz      :     0.025712  p :     0.078852
      px      :     0.020553
      py      :     0.032588
 79 H s       :     0.909268  s :     0.909268
      pz      :     0.022107  p :     0.086684
      px      :     0.021762
      py      :     0.042815
 80 H s       :     0.870409  s :     0.870409
      pz      :     0.038898  p :     0.084143
      px      :     0.029936
      py      :     0.015309
 81 H s       :     0.887151  s :     0.887151
      pz      :     0.037756  p :     0.083877
      px      :     0.016140
      py      :     0.029982
 82 H s       :     0.915028  s :     0.915028
      pz      :     0.022085  p :     0.086861
      px      :     0.031386
      py      :     0.033390
 83 H s       :     0.872486  s :     0.872486
      pz      :     0.039279  p :     0.084001
      px      :     0.015250
      py      :     0.029473
 84 H s       :     0.886900  s :     0.886900
      pz      :     0.035806  p :     0.083724
      px      :     0.031736
      py      :     0.016181
 85 H s       :     0.893479  s :     0.893479
      pz      :     0.022504  p :     0.079747
      px      :     0.014082
      py      :     0.043161
 86 H s       :     0.890629  s :     0.890629
      pz      :     0.024730  p :     0.078873
      px      :     0.033004
      py      :     0.021138
 87 H s       :     0.890094  s :     0.890094
      pz      :     0.047970  p :     0.078713
      px      :     0.015609
      py      :     0.015134
 88 H s       :     0.913549  s :     0.913549
      pz      :     0.021971  p :     0.086932
      px      :     0.042577
      py      :     0.022385
 89 H s       :     0.872389  s :     0.872389
      pz      :     0.037903  p :     0.083894
      px      :     0.030494
      py      :     0.015498


                      *****************************
                      * MAYER POPULATION ANALYSIS *
                      *****************************

  NA   - Mulliken gross atomic population
  ZA   - Total nuclear charge
  QA   - Mulliken gross atomic charge
  VA   - Mayer's total valence
  BVA  - Mayer's bonded valence
  FA   - Mayer's free valence

  ATOM       NA         ZA         QA         VA         BVA        FA
  0 C      5.7919     6.0000     0.2081     3.8297     3.8297     0.0000
  1 N      7.4441     7.0000    -0.4441     3.3625     3.3625    -0.0000
  2 C      6.0635     6.0000    -0.0635     3.9184     3.9184    -0.0000
  3 N      7.3370     7.0000    -0.3370     3.4466     3.4466    -0.0000
  4 C      6.0607     6.0000    -0.0607     3.9822     3.9822     0.0000
  5 N      7.5634     7.0000    -0.5634     3.0857     3.0857     0.0000
  6 C      6.0736     6.0000    -0.0736     3.9973     3.9973     0.0000
  7 N      7.3382     7.0000    -0.3382     3.4407     3.4407     0.0000
  8 C      5.7946     6.0000     0.2054     3.8306     3.8306    -0.0000
  9 N      7.5632     7.0000    -0.5632     3.0828     3.0828    -0.0000
 10 C      5.8849     6.0000     0.1151     3.8969     3.8969    -0.0000
 11 N      7.4376     7.0000    -0.4376     3.3831     3.3831     0.0000
 12 C      6.0739     6.0000    -0.0739     3.9180     3.9180    -0.0000
 13 N      7.4383     7.0000    -0.4383     3.3864     3.3864    -0.0000
 14 C      5.7559     6.0000     0.2441     3.7866     3.7866    -0.0000
 15 N      7.4406     7.0000    -0.4406     3.3724     3.3724    -0.0000
 16 C      5.7675     6.0000     0.2325     3.7903     3.7903    -0.0000
 17 C      6.0789     6.0000    -0.0789     4.0010     4.0010     0.0000
 18 C      6.2160     6.0000    -0.2160     3.7595     3.7595     0.0000
 19 C      5.7588     6.0000     0.2412     3.8657     3.8657     0.0000
 20 C      5.7914     6.0000     0.2086     3.8259     3.8259     0.0000
 21 C      6.0874     6.0000    -0.0874     3.9078     3.9078    -0.0000
 22 C      6.0877     6.0000    -0.0877     3.9837     3.9837    -0.0000
 23 C      6.0473     6.0000    -0.0473     3.9906     3.9906     0.0000
 24 C      5.7963     6.0000     0.2037     3.8231     3.8231     0.0000
 25 C      5.8860     6.0000     0.1140     3.8902     3.8902     0.0000
 26 C      6.0719     6.0000    -0.0719     3.9077     3.9077    -0.0000
 27 C      5.7786     6.0000     0.2214     3.8808     3.8808    -0.0000
 28 C      6.0540     6.0000    -0.0540     3.9878     3.9878    -0.0000
 29 C      6.1848     6.0000    -0.1848     3.7364     3.7364    -0.0000
 30 C      5.7628     6.0000     0.2372     3.7945     3.7945    -0.0000
 31 C      5.7865     6.0000     0.2135     3.8255     3.8255     0.0000
 32 C      6.0651     6.0000    -0.0651     3.9182     3.9182    -0.0000
 33 C      6.0781     6.0000    -0.0781     3.9829     3.9829    -0.0000
 34 C      6.0507     6.0000    -0.0507     3.9906     3.9906    -0.0000
 35 C      5.7917     6.0000     0.2083     3.8239     3.8239    -0.0000
 36 C      5.8868     6.0000     0.1132     3.8890     3.8890     0.0000
 37 C      6.0665     6.0000    -0.0665     3.9175     3.9175    -0.0000
 38 C      5.7643     6.0000     0.2357     3.7986     3.7986     0.0000
 39 C      6.0605     6.0000    -0.0605     3.9899     3.9899     0.0000
 40 C      6.1886     6.0000    -0.1886     3.7388     3.7388     0.0000
 41 C      5.7776     6.0000     0.2224     3.8822     3.8822    -0.0000
 42 C      5.7973     6.0000     0.2027     3.8273     3.8273    -0.0000
 43 C      6.0732     6.0000    -0.0732     3.9028     3.9028    -0.0000
 44 C      6.0888     6.0000    -0.0888     3.9849     3.9849     0.0000
 45 C      6.0537     6.0000    -0.0537     3.9929     3.9929     0.0000
 46 C      5.7953     6.0000     0.2047     3.8259     3.8259     0.0000
 47 C      5.8845     6.0000     0.1155     3.8934     3.8934     0.0000
 48 C      6.0730     6.0000    -0.0730     3.9050     3.9050    -0.0000
 49 C      5.7718     6.0000     0.2282     3.8851     3.8851    -0.0000
 50 C      6.0521     6.0000    -0.0521     3.9902     3.9902     0.0000
 51 C      6.1890     6.0000    -0.1890     3.7365     3.7365     0.0000
 52 H      0.9485     1.0000     0.0515     0.9852     0.9852     0.0000
 53 H      1.0143     1.0000    -0.0143     0.9988     0.9988    -0.0000
 54 H      0.9498     1.0000     0.0502     1.0092     1.0092     0.0000
 55 H      0.9488     1.0000     0.0512     0.9861     0.9861    -0.0000
 56 H      0.9422     1.0000     0.0578     0.9710     0.9710    -0.0000
 57 H      0.9445     1.0000     0.0555     0.9838     0.9838    -0.0000
 58 H      0.9457     1.0000     0.0543     0.9852     0.9852    -0.0000
 59 H      1.0099     1.0000    -0.0099     1.0000     1.0000    -0.0000
 60 H      0.9539     1.0000     0.0461     1.0085     1.0085     0.0000
 61 H      0.8273     1.0000     0.1727     1.0425     1.0425    -0.0000
 62 H      0.8269     1.0000     0.1731     1.0434     1.0434     0.0000
 63 H      0.9437     1.0000     0.0563     0.9854     0.9854    -0.0000
 64 H      1.0168     1.0000    -0.0168     0.9967     0.9967    -0.0000
 65 H      0.9527     1.0000     0.0473     1.0089     1.0089     0.0000
 66 H      0.9426     1.0000     0.0574     0.9851     0.9851     0.0000
 67 H      0.9374     1.0000     0.0626     0.9719     0.9719     0.0000
 68 H      0.9419     1.0000     0.0581     0.9868     0.9868     0.0000
 69 H      0.9416     1.0000     0.0584     0.9829     0.9829    -0.0000
 70 H      1.0251     1.0000    -0.0251     0.9942     0.9942    -0.0000
 71 H      0.9528     1.0000     0.0472     1.0066     1.0066    -0.0000
 72 H      0.9414     1.0000     0.0586     0.9848     0.9848     0.0000
 73 H      1.0134     1.0000    -0.0134     0.9990     0.9990    -0.0000
 74 H      0.9513     1.0000     0.0487     1.0099     1.0099    -0.0000
 75 H      0.9423     1.0000     0.0577     0.9853     0.9853    -0.0000
 76 H      0.9362     1.0000     0.0638     0.9717     0.9717    -0.0000
 77 H      0.9404     1.0000     0.0596     0.9851     0.9851    -0.0000
 78 H      0.9412     1.0000     0.0588     0.9848     0.9848    -0.0000
 79 H      1.0145     1.0000    -0.0145     0.9991     0.9991    -0.0000
 80 H      0.9508     1.0000     0.0492     1.0071     1.0071    -0.0000
 81 H      0.9464     1.0000     0.0536     0.9855     0.9855     0.0000
 82 H      1.0235     1.0000    -0.0235     0.9942     0.9942    -0.0000
 83 H      0.9567     1.0000     0.0433     1.0091     1.0091     0.0000
 84 H      0.9464     1.0000     0.0536     0.9855     0.9855    -0.0000
 85 H      0.9405     1.0000     0.0595     0.9716     0.9716     0.0000
 86 H      0.9436     1.0000     0.0564     0.9840     0.9840     0.0000
 87 H      0.9432     1.0000     0.0568     0.9856     0.9856     0.0000
 88 H      1.0205     1.0000    -0.0205     0.9948     0.9948    -0.0000
 89 H      0.9556     1.0000     0.0444     1.0071     1.0071     0.0000

  Mayer bond orders larger than 0.100000
B(  0-C ,  1-N ) :   1.1117 B(  0-C , 17-C ) :   1.6488 B(  0-C , 52-H ) :   0.9694 
B(  1-N ,  8-C ) :   1.1075 B(  1-N , 10-C ) :   0.9653 B(  2-C , 12-C ) :   1.5310 
B(  2-C , 16-C ) :   1.3302 B(  2-C , 53-H ) :   0.9774 B(  3-N , 14-C ) :   1.2062 
B(  3-N , 16-C ) :   1.1949 B(  3-N , 61-H ) :   0.8983 B(  4-C ,  6-C ) :   1.2515 
B(  4-C , 17-C ) :   1.2544 B(  4-C , 18-C ) :   1.3061 B(  5-N , 19-C ) :   1.4260 
B(  5-N , 27-C ) :   1.3995 B(  6-C ,  8-C ) :   1.6516 B(  6-C , 54-H ) :   0.9697 
B(  7-N , 30-C ) :   1.1944 B(  7-N , 38-C ) :   1.1996 B(  7-N , 62-H ) :   0.8982 
B(  8-C , 55-H ) :   0.9696 B(  9-N , 41-C ) :   1.4070 B(  9-N , 49-C ) :   1.4158 
B( 10-C , 56-H ) :   0.9764 B( 10-C , 57-H ) :   0.9818 B( 10-C , 58-H ) :   0.9837 
B( 11-N , 20-C ) :   1.1258 B( 11-N , 24-C ) :   1.1202 B( 11-N , 25-C ) :   0.9585 
B( 12-C , 14-C ) :   1.3311 B( 12-C , 59-H ) :   0.9760 B( 13-N , 31-C ) :   1.1291 
B( 13-N , 35-C ) :   1.1237 B( 13-N , 36-C ) :   0.9570 B( 14-C , 18-C ) :   1.1809 
B( 15-N , 42-C ) :   1.1150 B( 15-N , 46-C ) :   1.1161 B( 15-N , 47-C ) :   0.9619 
B( 16-C , 51-C ) :   1.1939 B( 17-C , 60-H ) :   0.9706 B( 18-C , 19-C ) :   1.1974 
B( 19-C , 21-C ) :   1.2153 B( 20-C , 28-C ) :   1.6240 B( 20-C , 63-H ) :   0.9703 
B( 21-C , 26-C ) :   1.6389 B( 21-C , 64-H ) :   0.9709 B( 22-C , 23-C ) :   1.2848 
B( 22-C , 28-C ) :   1.2728 B( 22-C , 29-C ) :   1.2278 B( 23-C , 24-C ) :   1.6185 
B( 23-C , 65-H ) :   0.9708 B( 24-C , 66-H ) :   0.9692 B( 25-C , 67-H ) :   0.9761 
B( 25-C , 68-H ) :   0.9829 B( 25-C , 69-H ) :   0.9821 B( 26-C , 27-C ) :   1.2145 
B( 26-C , 70-H ) :   0.9730 B( 27-C , 29-C ) :   1.2295 B( 28-C , 71-H ) :   0.9715 
B( 29-C , 30-C ) :   1.2139 B( 30-C , 32-C ) :   1.3095 B( 31-C , 39-C ) :   1.6243 
B( 31-C , 72-H ) :   0.9694 B( 32-C , 37-C ) :   1.5487 B( 32-C , 73-H ) :   0.9779 
B( 33-C , 34-C ) :   1.2796 B( 33-C , 39-C ) :   1.2736 B( 33-C , 40-C ) :   1.2388 
B( 34-C , 35-C ) :   1.6214 B( 34-C , 74-H ) :   0.9704 B( 35-C , 75-H ) :   0.9694 
B( 36-C , 76-H ) :   0.9764 B( 36-C , 77-H ) :   0.9820 B( 36-C , 78-H ) :   0.9830 
B( 37-C , 38-C ) :   1.3114 B( 37-C , 79-H ) :   0.9776 B( 38-C , 40-C ) :   1.2100 
B( 39-C , 80-H ) :   0.9713 B( 40-C , 41-C ) :   1.2240 B( 41-C , 43-C ) :   1.2082 
B( 42-C , 50-C ) :   1.6328 B( 42-C , 81-H ) :   0.9696 B( 43-C , 48-C ) :   1.6436 
B( 43-C , 82-H ) :   0.9735 B( 44-C , 45-C ) :   1.2704 B( 44-C , 50-C ) :   1.2681 
B( 44-C , 51-C ) :   1.2545 B( 45-C , 46-C ) :   1.6322 B( 45-C , 83-H ) :   0.9713 
B( 46-C , 84-H ) :   0.9702 B( 47-C , 85-H ) :   0.9761 B( 47-C , 86-H ) :   0.9828 
B( 47-C , 87-H ) :   0.9826 B( 48-C , 49-C ) :   1.2085 B( 48-C , 88-H ) :   0.9740 
B( 49-C , 51-C ) :   1.2251 B( 50-C , 89-H ) :   0.9713 

-------
TIMINGS
-------

Total SCF time: 0 days 0 hours 21 min 26 sec 

Total time                  ....    1286.490 sec
Sum of individual times     ....    1282.760 sec  ( 99.7%)

Fock matrix formation       ....    1262.742 sec  ( 98.2%)
Diagonalization             ....       6.562 sec  (  0.5%)
Density matrix formation    ....       0.370 sec  (  0.0%)
Population analysis         ....       0.424 sec  (  0.0%)
Initial guess               ....       1.920 sec  (  0.1%)
Orbital Transformation      ....       0.000 sec  (  0.0%)
Orbital Orthonormalization  ....       0.000 sec  (  0.0%)
DIIS solution               ....       2.877 sec  (  0.2%)
SOSCF solution              ....       6.865 sec  (  0.5%)

Maximum memory used throughout the entire SCF-calculation: 302.6 MB


           ************************************************************
           *        Program running with 16 parallel MPI-processes    *
           *              working on a common directory               *
           ************************************************************

------------------------------------------------------------------------------
                                ORCA  MP2 
------------------------------------------------------------------------------

Freezing NCore=104 chemical core electrons

----------
MP2 ENERGY (disk based algorithm)
----------

Dimension of the basis                    ...  918
Memory devoted to MP2                     ... 2000 MB   
Data format for buffers                   ... DOUBLE
Compression type for matrix containers    ... UNCOMPRESSED

-------------------------------
PARTIAL EXCHANGE TRANSFORMATION
-------------------------------

Transformation type                        ... one-operator
Generation of integrals (i,mue|j,nue)      ... ON
Generation of integrals (mue,kappa|nue,tau)... OFF
Generation of integrals (i,mue|a,nue)      ... OFF
Dimension of the basis                     ...  918
Number of internal MOs                     ...  127 (  52- 178)
Pair cutoff                                ... 2.500e-12 Eh
Number of AO pairs in the trafo            ... 421821
Total Number of distinct AO pairs          ... 421821
Memory devoted for trafo                   ... 2000.0 MB 
Max. Number of MO pairs treated together   ...  311      
Number Format for Storage                  ... Double (8 Byte)
Integral package used                      ... LIBINT

Starting integral evaluation:
    ... done with AO integral generation
Closing buffer AOK     (38.28 GB; CompressionRatio= 1.32)
Collecting buffer AOK 
Number of MO pairs included in the trafo   ... 8128
------------------------
SORTING OF (i,mue|j,nue)
------------------------

IBATCH = 1 of  2
IBATCH = 2 of  2
Closing buffer KAO     (51.03 GB; CompressionRatio= 1.00)
Collecting buffer KAO 
N(AO-Batches) Done                         ...  85287703 
N(AO-Batches) Skipped                      ...  82460697 
N(IJ)-pairs Skipped                        ...         0 
TOTAL TIME for half transformation         ...  2623.485 sec
AO-integral generation                     ...   174.505 sec
Half transformation                        ...   316.466 sec
K-integral sorting                         ...  1984.316 sec

Finished integral transformation - now doing MP2 part

Process 10:   Internal MO 132
OPERATOR COMBINATION   0   0: ij=( 52..178, 52..178)
Process 13:   Internal MO 156
Process  4:   Internal MO  84
Process  1:   Internal MO  60
Process  7:   Internal MO 108
Process  0:   Internal MO  54
Process  0:   Internal MO  57
Process  2:   Internal MO  69
Process  1:   Internal MO  63
Process  5:   Internal MO  93
Process  8:   Internal MO 117
Process  2:   Internal MO  72
Process  1:   Internal MO  66
Process  6:   Internal MO 102
Process 14:   Internal MO 165
Process  3:   Internal MO  78
Process  4:   Internal MO  87
Process 11:   Internal MO 141
Process  2:   Internal MO  75
Process  9:   Internal MO 126
Process  3:   Internal MO  81
Process 12:   Internal MO 150
Process  5:   Internal MO  96
Process 10:   Internal MO 135
Process  4:   Internal MO  90
Process  6:   Internal MO 105
Process  8:   Internal MO 120
Process  7:   Internal MO 111
Process 15:   Internal MO 174
Process  5:   Internal MO  99
Process 13:   Internal MO 159
Process 11:   Internal MO 144
Process  9:   Internal MO 129
Process  7:   Internal MO 114
Process  8:   Internal MO 123
Process 14:   Internal MO 168
Process 12:   Internal MO 153
Process 10:   Internal MO 138
Process 15:   Internal MO 177
Process 11:   Internal MO 147
Process 13:   Internal MO 162
Process 14:   Internal MO 171
-----------------------------------------------
 MP2 CORRELATION ENERGY   :     -7.290070038 Eh
-----------------------------------------------


-------
TIMINGS
-------
Total time                : 2907.479 sec
Integral trafo            : 2625.417 sec ( 90.3%)
K(i,j)                    :    4.364 sec (  0.2%)
T(i,j)                    :    0.090 sec (  0.0%)

---------------------------------------
MP2 TOTAL ENERGY:    -2130.913569466 Eh
---------------------------------------

Maximum memory used throughout the entire MP2-calculation: 2275.2 MB

-------------------------   --------------------
FINAL SINGLE POINT ENERGY     -2130.913569466081
-------------------------   --------------------


                            ***************************************
                            *     ORCA property calculations      *
                            ***************************************


  WARNING: The energy has been calculated at the MP2 level but the densities
           used in the property calculations are still SCF densities
           MP2 response densities have not been calculated 
           use %mp2 Density relaxed end
           or  %mp2 Density unrelaxed end

                                    ---------------------
                                    Active property flags
                                    ---------------------
   (+) Dipole Moment


------------------------------------------------------------------------------
                       ORCA ELECTRIC PROPERTIES CALCULATION
------------------------------------------------------------------------------

Dipole Moment Calculation                       ... on
Quadrupole Moment Calculation                   ... off
Polarizability Calculation                      ... off
GBWName                                         ... /scratch/allen/tmpyp4_amber_gaff2/conf1/conf1/Conf57.orca.gbw
Electron density                                ... /scratch/allen/tmpyp4_amber_gaff2/conf1/conf1/Conf57.orca.scfp
The origin for moment calculation is the CENTER OF MASS  = ( 0.000339, -0.003879  0.003922)

-------------
DIPOLE MOMENT
-------------
                                X             Y             Z
Electronic contribution:      0.30687      -1.22208      -0.13671
Nuclear contribution   :     -0.04759       0.15285       0.16999
                        -----------------------------------------
Total Dipole Moment    :      0.25928      -1.06923       0.03328
                        -----------------------------------------
Magnitude (a.u.)       :      1.10072
Magnitude (Debye)      :      2.79782



--------------------
Rotational spectrum 
--------------------
 
Rotational constants in cm-1:     0.001499     0.001474     0.000762 
Rotational constants in MHz :    44.952609    44.197282    22.839101 

 Dipole components along the rotational axes: 
x,y,z [a.u.] :     0.583939     0.932491     0.032698 
x,y,z [Debye]:     1.484254     2.370204     0.083112 

 

Timings for individual modules:

Sum of individual times         ...     4215.492 sec (=  70.258 min)
GTO integral calculation        ...        2.602 sec (=   0.043 min)   0.1 %
SCF iterations                  ...     1287.369 sec (=  21.456 min)  30.5 %
MP2 module                      ...     2925.520 sec (=  48.759 min)  69.4 %
                             ****ORCA TERMINATED NORMALLY****
TOTAL RUN TIME: 0 days 1 hours 10 minutes 18 seconds 562 msec
# of primitive gaussian functions

