
                                 *****************
                                 * O   R   C   A *
                                 *****************

                                            #,                                       
                                            ###                                      
                                            ####                                     
                                            #####                                    
                                            ######                                   
                                           ########,                                 
                                     ,,################,,,,,                         
                               ,,#################################,,                 
                          ,,##########################################,,             
                       ,#########################################, ''#####,          
                    ,#############################################,,   '####,        
                  ,##################################################,,,,####,       
                ,###########''''           ''''###############################       
              ,#####''   ,,,,##########,,,,          '''####'''          '####       
            ,##' ,,,,###########################,,,                        '##       
           ' ,,###''''                  '''############,,,                           
         ,,##''                                '''############,,,,        ,,,,,,###''
      ,#''                                            '''#######################'''  
     '                                                          ''''####''''         
             ,#######,   #######,   ,#######,      ##                                
            ,#'     '#,  ##    ##  ,#'     '#,    #''#        ######   ,####,        
            ##       ##  ##   ,#'  ##            #'  '#       #        #'  '#        
            ##       ##  #######   ##           ,######,      #####,   #    #        
            '#,     ,#'  ##    ##  '#,     ,#' ,#      #,         ##   #,  ,#        
             '#######'   ##     ##  '#######'  #'      '#     #####' # '####'        



                  #######################################################
                  #                        -***-                        #
                  #          Department of theory and spectroscopy      #
                  #    Directorship and core code : Frank Neese         #
                  #        Max Planck Institute fuer Kohlenforschung    #
                  #                Kaiser Wilhelm Platz 1               #
                  #                 D-45470 Muelheim/Ruhr               #
                  #                      Germany                        #
                  #                                                     #
                  #                  All rights reserved                #
                  #                        -***-                        #
                  #######################################################


                         Program Version 5.0.4 -  RELEASE  -


 With contributions from (in alphabetic order):
   Daniel Aravena         : Magnetic Suceptibility
   Michael Atanasov       : Ab Initio Ligand Field Theory (pilot matlab implementation)
   Alexander A. Auer      : GIAO ZORA, VPT2 properties, NMR spectrum
   Ute Becker             : Parallelization
   Giovanni Bistoni       : ED, misc. LED, open-shell LED, HFLD
   Martin Brehm           : Molecular dynamics
   Dmytro Bykov           : SCF Hessian
   Vijay G. Chilkuri      : MRCI spin determinant printing, contributions to CSF-ICE
   Dipayan Datta          : RHF DLPNO-CCSD density
   Achintya Kumar Dutta   : EOM-CC, STEOM-CC
   Dmitry Ganyushin       : Spin-Orbit,Spin-Spin,Magnetic field MRCI
   Miquel Garcia          : C-PCM and meta-GGA Hessian, CC/C-PCM, Gaussian charge scheme
   Yang Guo               : DLPNO-NEVPT2, F12-NEVPT2, CIM, IAO-localization
   Andreas Hansen         : Spin unrestricted coupled pair/coupled cluster methods
   Benjamin Helmich-Paris : MC-RPA, TRAH-SCF, COSX integrals
   Lee Huntington         : MR-EOM, pCC
   Robert Izsak           : Overlap fitted RIJCOSX, COSX-SCS-MP3, EOM
   Marcus Kettner         : VPT2
   Christian Kollmar      : KDIIS, OOCD, Brueckner-CCSD(T), CCSD density, CASPT2, CASPT2-K
   Simone Kossmann        : Meta GGA functionals, TD-DFT gradient, OOMP2, MP2 Hessian
   Martin Krupicka        : Initial AUTO-CI
   Lucas Lang             : DCDCAS
   Marvin Lechner         : AUTO-CI (C++ implementation), FIC-MRCC
   Dagmar Lenk            : GEPOL surface, SMD
   Dimitrios Liakos       : Extrapolation schemes; Compound Job, initial MDCI parallelization
   Dimitrios Manganas     : Further ROCIS development; embedding schemes
   Dimitrios Pantazis     : SARC Basis sets
   Anastasios Papadopoulos: AUTO-CI, single reference methods and gradients
   Taras Petrenko         : DFT Hessian,TD-DFT gradient, ASA, ECA, R-Raman, ABS, FL, XAS/XES, NRVS
   Peter Pinski           : DLPNO-MP2, DLPNO-MP2 Gradient
   Christoph Reimann      : Effective Core Potentials
   Marius Retegan         : Local ZFS, SOC
   Christoph Riplinger    : Optimizer, TS searches, QM/MM, DLPNO-CCSD(T), (RO)-DLPNO pert. Triples
   Tobias Risthaus        : Range-separated hybrids, TD-DFT gradient, RPA, STAB
   Michael Roemelt        : Original ROCIS implementation
   Masaaki Saitow         : Open-shell DLPNO-CCSD energy and density
   Barbara Sandhoefer     : DKH picture change effects
   Avijit Sen             : IP-ROCIS
   Kantharuban Sivalingam : CASSCF convergence, NEVPT2, FIC-MRCI
   Bernardo de Souza      : ESD, SOC TD-DFT
   Georgi Stoychev        : AutoAux, RI-MP2 NMR, DLPNO-MP2 response
   Willem Van den Heuvel  : Paramagnetic NMR
   Boris Wezisla          : Elementary symmetry handling
   Frank Wennmohs         : Technical directorship


 We gratefully acknowledge several colleagues who have allowed us to
 interface, adapt or use parts of their codes:
   Stefan Grimme, W. Hujo, H. Kruse, P. Pracht,  : VdW corrections, initial TS optimization,
                  C. Bannwarth, S. Ehlert          DFT functionals, gCP, sTDA/sTD-DF
   Ed Valeev, F. Pavosevic, A. Kumar             : LibInt (2-el integral package), F12 methods
   Garnet Chan, S. Sharma, J. Yang, R. Olivares  : DMRG
   Ulf Ekstrom                                   : XCFun DFT Library
   Mihaly Kallay                                 : mrcc  (arbitrary order and MRCC methods)
   Jiri Pittner, Ondrej Demel                    : Mk-CCSD
   Frank Weinhold                                : gennbo (NPA and NBO analysis)
   Christopher J. Cramer and Donald G. Truhlar   : smd solvation model
   Lars Goerigk                                  : TD-DFT with DH, B97 family of functionals
   V. Asgeirsson, H. Jonsson                     : NEB implementation
   FAccTs GmbH                                   : IRC, NEB, NEB-TS, DLPNO-Multilevel, CI-OPT
                                                   MM, QMMM, 2- and 3-layer-ONIOM, Crystal-QMMM,
                                                   LR-CPCM, SF, NACMEs, symmetry and pop. for TD-DFT,
                                                   nearIR, NL-DFT gradient (VV10), updates on ESD,
                                                   ML-optimized integration grids
   S Lehtola, MJT Oliveira, MAL Marques          : LibXC Library
   Liviu Ungur et al                             : ANISO software


 Your calculation uses the libint2 library for the computation of 2-el integrals
 For citations please refer to: http://libint.valeyev.net

 Your ORCA version has been built with support for libXC version: 5.1.0
 For citations please refer to: https://tddft.org/programs/libxc/

 This ORCA versions uses:
   CBLAS   interface :  Fast vector & matrix operations
   LAPACKE interface :  Fast linear algebra routines
   SCALAPACK package :  Parallel linear algebra routines
   Shared memory     :  Shared parallel matrices
   BLAS/LAPACK       :  OpenBLAS 0.3.15  USE64BITINT DYNAMIC_ARCH NO_AFFINITY Sandybridge SINGLE_THREADED
        Core in use  :  Sandybridge
   Copyright (c) 2011-2014, The OpenBLAS Project


================================================================================

----- Orbital basis set information -----
Your calculation utilizes the basis: cc-pVDZ 
       H, B-Ne : Obtained from the ccRepo (grant-hill.group.shef.ac.uk/ccrepo) Feb. 2017
                 T. H. Dunning, Jr., J. Chem. Phys. 90, 1007 (1989)
            He : Obtained from the ccRepo (grant-hill.group.shef.ac.uk/ccrepo) Feb. 2017
                 D. E. Woon, T. H. Dunning, Jr., J. Chem. Phys. 100, 2975 (1994)
  Li-Be, Na-Mg : Obtained from the ccRepo (grant-hill.group.shef.ac.uk/ccrepo) Feb. 2017
                 B. P. Prascher, D. E. Woon, K. A. Peterson, T. H. Dunning, Jr., A. K. Wilson, Theor. Chem. Acc. 128, 69 (2011)
         Al-Ar : Obtained from the ccRepo (grant-hill.group.shef.ac.uk/ccrepo) Feb. 2017
                 D. E. Woon, T. H. Dunning, Jr., J. Chem. Phys. 98, 1358 (1993)
            Ca : Obtained from the Peterson Research Group Website (tyr0.chem.wsu.edu/~kipeters) Feb. 2017
                 J. Koput, K. A. Peterson, J. Phys. Chem. 106, 9595 (2002)
         Sc-Zn : Obtained from the ccRepo (grant-hill.group.shef.ac.uk/ccrepo) Feb. 2017
                 N. B. Balabanov, K. A. Peterson, J. Chem. Phys. 123, 064107 (2005)
                 N. B. Balabanov, K. A. Peterson, J. Chem. Phys. 125, 074110 (2006)
         Ga-Kr : Obtained from the ccRepo (grant-hill.group.shef.ac.uk/ccrepo) Feb. 2017
                 A. K. Wilson, D. E. Woon, K. A. Peterson, T. H. Dunning, Jr., J. Chem. Phys. 110, 7667 (1999)

================================================================================
                                        WARNINGS
                       Please study these warnings very carefully!
================================================================================


WARNING: No MP2 level density has been requested!
         To caclulate MP2 level properties use
         %mp2 Density relaxed end
         or
         %mp2 Density unrelaxed end

WARNING: Post HF methods need fully converged wavefunctions
  ===> : Setting SCFConvForced true
         You can overwrite this default with %scf ConvForced false 


INFO   : the flag for use of the SHARK integral package has been found!

================================================================================
                                       INPUT FILE
================================================================================
NAME = /scratch/allen/tmpyp4_amber_gaff2/2.Mdgx/conf11/conf11/Conf56.orca
|  1> ! PAL2
|  2> ! mp2 cc-pvdz TightSCF  NoKeepInts
|  3> 
|  4> %scf
|  5>   MaxCore 2000
|  6> end
|  7> %mp2
|  8>   MaxCore 2000
|  9> end
| 10> * xyz 0 1
| 11>    C       -3.42200         6.24800        -0.84300
| 12>    C        1.47400         4.04100         0.05700
| 13>    C       -2.80200         4.09300         0.04900
| 14>    C       -3.79000         4.27200         1.03000
| 15>    C       -4.55600         5.42000         1.04100
| 16>    C       -5.22900         7.59100         0.13300
| 17>    C        0.13200         4.30700         0.06100
| 18>    C       -0.56900         3.05600         0.04700
| 19>    C        1.64900         2.61800         0.02300
| 20>    C       -2.63500         5.11500        -0.89900
| 21>    N       -4.36500         6.38900         0.11700
| 22>    N        0.38800         2.06700         0.02500
| 23>    N       -2.01000         0.39500        -0.07500
| 24>    N       -0.38800        -2.07400        -0.02700
| 25>    N        2.01000        -0.40100         0.06500
| 26>    C       -1.96000         2.86100         0.02400
| 27>    C       -2.62300         1.61500        -0.01800
| 28>    C       -5.57300        -4.32900         1.06600
| 29>    C       -4.07300         1.47100         0.05600
| 30>    C       -4.10600        -2.75600        -0.02600
| 31>    C       -4.99500        -2.75700        -1.11100
| 32>    C       -6.13200        -3.54200        -1.07600
| 33>    C       -7.65100        -5.11300         0.04000
| 34>    C       -4.32400         0.14100         0.03700
| 35>    C       -3.02500        -0.52000        -0.04800
| 36>    C       -4.42200        -3.56600         1.07500
| 37>    N       -6.40700        -4.31300         0.00100
| 38>    C       -2.86700        -1.92200        -0.04000
| 39>    C       -1.65000        -2.62400        -0.02700
| 40>    C        3.56800        -6.14200        -1.04000
| 41>    C       -1.47600        -4.04900        -0.03400
| 42>    C        2.80300        -4.09900        -0.00800
| 43>    C        3.65700        -4.38400         1.06900
| 44>    C        4.42700        -5.53000         1.05900
| 45>    C        5.24500        -7.58800         0.01400
| 46>    C       -0.13400        -4.31500        -0.02200
| 47>    C        0.56800        -3.06400        -0.02700
| 48>    C        2.77500        -5.01200        -1.07400
| 49>    N        4.37600        -6.39100         0.01700
| 50>    C        1.95900        -2.86900        -0.00900
| 51>    C        2.62100        -1.62200         0.00900
| 52>    C        5.54300         4.33900        -1.13000
| 53>    C        4.07000        -1.47900        -0.09400
| 54>    C        4.10400         2.75100        -0.02100
| 55>    C        5.02700         2.72900         1.03600
| 56>    C        6.16600         3.50900         0.97800
| 57>    C        7.61900         5.15300        -0.11500
| 58>    C        4.32100        -0.14800        -0.09200
| 59>    C        3.02500         0.51400         0.01500
| 60>    C        4.38700         3.58200        -1.11500
| 61>    C        2.86600         1.91600         0.01300
| 62>    N        6.41300         4.29600        -0.09500
| 63>    H       -3.32000         7.06600        -1.54500
| 64>    H        2.27400         4.76600         0.08100
| 65>    H       -3.97300         3.51500         1.78300
| 66>    H       -5.33500         5.59800         1.77200
| 67>    H       -6.14200         7.38000        -0.42800
| 68>    H       -5.47200         7.83400         1.16700
| 69>    H       -4.68800         8.41700        -0.32800
| 70>    H       -0.33200         5.28200         0.06900
| 71>    H       -1.87900         5.04200        -1.67300
| 72>    H        0.18200         1.07200         0.00500
| 73>    H       -0.18300        -1.08000        -0.02100
| 74>    H       -5.86400        -4.96200         1.89500
| 75>    H       -4.79400         2.27200         0.13900
| 76>    H       -4.80000        -2.16000        -1.99400
| 77>    H       -6.84100        -3.58200        -1.89300
| 78>    H       -8.42800        -4.53600         0.54600
| 79>    H       -7.95600        -5.33700        -0.98100
| 80>    H       -7.45600        -6.03700         0.58400
| 81>    H       -5.28700        -0.34400         0.10000
| 82>    H       -3.78000        -3.60100         1.94700
| 83>    H        3.58700        -6.86800        -1.84300
| 84>    H       -2.27600        -4.77400        -0.05000
| 85>    H        3.71400        -3.72400         1.92600
| 86>    H        5.09200        -5.79500         1.87100
| 87>    H        6.20500        -7.32900        -0.43900
| 88>    H        5.39300        -7.91700         1.04200
| 89>    H        4.75900        -8.37300        -0.56400
| 90>    H        0.32900        -5.29000        -0.00800
| 91>    H        2.14600        -4.84200        -1.94000
| 92>    H        5.80800         4.98600        -1.95600
| 93>    H        4.78800        -2.28100        -0.18500
| 94>    H        4.86000         2.11400         1.91200
| 95>    H        6.90100         3.53100         1.77200
| 96>    H        7.38300         6.10900         0.35600
| 97>    H        8.41400         4.65200         0.43500
| 98>    H        7.92100         5.31000        -1.15000
| 99>    H        5.28300         0.33600        -0.17900
|100>    H        3.72000         3.63200        -1.96700
|101> *
|102> 
|103>                          ****END OF INPUT****
================================================================================

                       ****************************
                       * Single Point Calculation *
                       ****************************

---------------------------------
CARTESIAN COORDINATES (ANGSTROEM)
---------------------------------
  C     -3.422000    6.248000   -0.843000
  C      1.474000    4.041000    0.057000
  C     -2.802000    4.093000    0.049000
  C     -3.790000    4.272000    1.030000
  C     -4.556000    5.420000    1.041000
  C     -5.229000    7.591000    0.133000
  C      0.132000    4.307000    0.061000
  C     -0.569000    3.056000    0.047000
  C      1.649000    2.618000    0.023000
  C     -2.635000    5.115000   -0.899000
  N     -4.365000    6.389000    0.117000
  N      0.388000    2.067000    0.025000
  N     -2.010000    0.395000   -0.075000
  N     -0.388000   -2.074000   -0.027000
  N      2.010000   -0.401000    0.065000
  C     -1.960000    2.861000    0.024000
  C     -2.623000    1.615000   -0.018000
  C     -5.573000   -4.329000    1.066000
  C     -4.073000    1.471000    0.056000
  C     -4.106000   -2.756000   -0.026000
  C     -4.995000   -2.757000   -1.111000
  C     -6.132000   -3.542000   -1.076000
  C     -7.651000   -5.113000    0.040000
  C     -4.324000    0.141000    0.037000
  C     -3.025000   -0.520000   -0.048000
  C     -4.422000   -3.566000    1.075000
  N     -6.407000   -4.313000    0.001000
  C     -2.867000   -1.922000   -0.040000
  C     -1.650000   -2.624000   -0.027000
  C      3.568000   -6.142000   -1.040000
  C     -1.476000   -4.049000   -0.034000
  C      2.803000   -4.099000   -0.008000
  C      3.657000   -4.384000    1.069000
  C      4.427000   -5.530000    1.059000
  C      5.245000   -7.588000    0.014000
  C     -0.134000   -4.315000   -0.022000
  C      0.568000   -3.064000   -0.027000
  C      2.775000   -5.012000   -1.074000
  N      4.376000   -6.391000    0.017000
  C      1.959000   -2.869000   -0.009000
  C      2.621000   -1.622000    0.009000
  C      5.543000    4.339000   -1.130000
  C      4.070000   -1.479000   -0.094000
  C      4.104000    2.751000   -0.021000
  C      5.027000    2.729000    1.036000
  C      6.166000    3.509000    0.978000
  C      7.619000    5.153000   -0.115000
  C      4.321000   -0.148000   -0.092000
  C      3.025000    0.514000    0.015000
  C      4.387000    3.582000   -1.115000
  C      2.866000    1.916000    0.013000
  N      6.413000    4.296000   -0.095000
  H     -3.320000    7.066000   -1.545000
  H      2.274000    4.766000    0.081000
  H     -3.973000    3.515000    1.783000
  H     -5.335000    5.598000    1.772000
  H     -6.142000    7.380000   -0.428000
  H     -5.472000    7.834000    1.167000
  H     -4.688000    8.417000   -0.328000
  H     -0.332000    5.282000    0.069000
  H     -1.879000    5.042000   -1.673000
  H      0.182000    1.072000    0.005000
  H     -0.183000   -1.080000   -0.021000
  H     -5.864000   -4.962000    1.895000
  H     -4.794000    2.272000    0.139000
  H     -4.800000   -2.160000   -1.994000
  H     -6.841000   -3.582000   -1.893000
  H     -8.428000   -4.536000    0.546000
  H     -7.956000   -5.337000   -0.981000
  H     -7.456000   -6.037000    0.584000
  H     -5.287000   -0.344000    0.100000
  H     -3.780000   -3.601000    1.947000
  H      3.587000   -6.868000   -1.843000
  H     -2.276000   -4.774000   -0.050000
  H      3.714000   -3.724000    1.926000
  H      5.092000   -5.795000    1.871000
  H      6.205000   -7.329000   -0.439000
  H      5.393000   -7.917000    1.042000
  H      4.759000   -8.373000   -0.564000
  H      0.329000   -5.290000   -0.008000
  H      2.146000   -4.842000   -1.940000
  H      5.808000    4.986000   -1.956000
  H      4.788000   -2.281000   -0.185000
  H      4.860000    2.114000    1.912000
  H      6.901000    3.531000    1.772000
  H      7.383000    6.109000    0.356000
  H      8.414000    4.652000    0.435000
  H      7.921000    5.310000   -1.150000
  H      5.283000    0.336000   -0.179000
  H      3.720000    3.632000   -1.967000

----------------------------
CARTESIAN COORDINATES (A.U.)
----------------------------
  NO LB      ZA    FRAG     MASS         X           Y           Z
   0 C     6.0000    0    12.011   -6.466643   11.807009   -1.593039
   1 C     6.0000    0    12.011    2.785456    7.636383    0.107714
   2 C     6.0000    0    12.011   -5.295013    7.734649    0.092597
   3 C     6.0000    0    12.011   -7.162062    8.072910    1.946418
   4 C     6.0000    0    12.011   -8.609592   10.242316    1.967205
   5 C     6.0000    0    12.011   -9.881378   14.344911    0.251334
   6 C     6.0000    0    12.011    0.249444    8.139050    0.115273
   7 C     6.0000    0    12.011   -1.075254    5.775003    0.088817
   8 C     6.0000    0    12.011    3.116158    4.947303    0.043464
   9 C     6.0000    0    12.011   -4.979428    9.665949   -1.698864
  10 N     7.0000    0    14.007   -8.248655   12.073460    0.221098
  11 N     7.0000    0    14.007    0.733214    3.906064    0.047243
  12 N     7.0000    0    14.007   -3.798350    0.746442   -0.141729
  13 N     7.0000    0    14.007   -0.733214   -3.919292   -0.051023
  14 N     7.0000    0    14.007    3.798350   -0.757780    0.122832
  15 C     6.0000    0    12.011   -3.703863    5.406506    0.045353
  16 C     6.0000    0    12.011   -4.956752    3.051908   -0.034015
  17 C     6.0000    0    12.011  -10.531444   -8.180624    2.014448
  18 C     6.0000    0    12.011   -7.696855    2.779787    0.105825
  19 C     6.0000    0    12.011   -7.759216   -5.208085   -0.049133
  20 C     6.0000    0    12.011   -9.439182   -5.209975   -2.099486
  21 C     6.0000    0    12.011  -11.587801   -6.693410   -2.033345
  22 C     6.0000    0    12.011  -14.458295   -9.662170    0.075589
  23 C     6.0000    0    12.011   -8.171176    0.266451    0.069920
  24 C     6.0000    0    12.011   -5.716422   -0.982658   -0.090707
  25 C     6.0000    0    12.011   -8.356369   -6.738763    2.031456
  26 N     7.0000    0    14.007  -12.107475   -8.150389    0.001890
  27 C     6.0000    0    12.011   -5.417845   -3.632054   -0.075589
  28 C     6.0000    0    12.011   -3.118048   -4.958641   -0.051023
  29 C     6.0000    0    12.011    6.742543  -11.606698   -1.965315
  30 C     6.0000    0    12.011   -2.789236   -7.651501   -0.064251
  31 C     6.0000    0    12.011    5.296902   -7.745987   -0.015118
  32 C     6.0000    0    12.011    6.910728   -8.284559    2.020117
  33 C     6.0000    0    12.011    8.365818  -10.450186    2.001220
  34 C     6.0000    0    12.011    9.911614  -14.339242    0.026456
  35 C     6.0000    0    12.011   -0.253223   -8.154168   -0.041574
  36 C     6.0000    0    12.011    1.073364   -5.790121   -0.051023
  37 C     6.0000    0    12.011    5.243990   -9.471307   -2.029566
  38 N     7.0000    0    14.007    8.269442  -12.077240    0.032125
  39 C     6.0000    0    12.011    3.701973   -5.421624   -0.017008
  40 C     6.0000    0    12.011    4.952972   -3.065136    0.017008
  41 C     6.0000    0    12.011   10.474752    8.199522   -2.135391
  42 C     6.0000    0    12.011    7.691185   -2.794905   -0.177634
  43 C     6.0000    0    12.011    7.755436    5.198637   -0.039684
  44 C     6.0000    0    12.011    9.499653    5.157063    1.957756
  45 C     6.0000    0    12.011   11.652051    6.631049    1.848152
  46 C     6.0000    0    12.011   14.397823    9.737759   -0.217319
  47 C     6.0000    0    12.011    8.165507   -0.279679   -0.173855
  48 C     6.0000    0    12.011    5.716422    0.971319    0.028346
  49 C     6.0000    0    12.011    8.290229    6.768999   -2.107045
  50 C     6.0000    0    12.011    5.415955    3.620715    0.024566
  51 N     7.0000    0    14.007   12.118814    8.118263   -0.179524
  52 H     1.0000    0     1.008   -6.273891   13.352805   -2.919627
  53 H     1.0000    0     1.008    4.297237    9.006435    0.153068
  54 H     1.0000    0     1.008   -7.507882    6.642387    3.369382
  55 H     1.0000    0     1.008  -10.081689   10.578687    3.348595
  56 H     1.0000    0     1.008  -11.606698   13.946179   -0.808803
  57 H     1.0000    0     1.008  -10.340581   14.804115    2.205310
  58 H     1.0000    0     1.008   -8.859036   15.905825   -0.619830
  59 H     1.0000    0     1.008   -0.627389    9.981533    0.130391
  60 H     1.0000    0     1.008   -3.550795    9.527999   -3.161512
  61 H     1.0000    0     1.008    0.343930    2.025786    0.009449
  62 H     1.0000    0     1.008   -0.345820   -2.040904   -0.039684
  63 H     1.0000    0     1.008  -11.081354   -9.376821    3.581031
  64 H     1.0000    0     1.008   -9.059347    4.293458    0.262672
  65 H     1.0000    0     1.008   -9.070685   -4.081808   -3.768114
  66 H     1.0000    0     1.008  -12.927616   -6.768999   -3.577252
  67 H     1.0000    0     1.008  -15.926612   -8.571798    1.031790
  68 H     1.0000    0     1.008  -15.034661  -10.085468   -1.853821
  69 H     1.0000    0     1.008  -14.089798  -11.408277    1.103600
  70 H     1.0000    0     1.008   -9.990982   -0.650066    0.188973
  71 H     1.0000    0     1.008   -7.143165   -6.804904    3.679297
  72 H     1.0000    0     1.008    6.778448  -12.978639   -3.482765
  73 H     1.0000    0     1.008   -4.301017   -9.021553   -0.094486
  74 H     1.0000    0     1.008    7.018443   -7.037340    3.639613
  75 H     1.0000    0     1.008    9.622485  -10.950963    3.535678
  76 H     1.0000    0     1.008   11.725751  -13.849803   -0.829590
  77 H     1.0000    0     1.008   10.191293  -14.960962    1.969095
  78 H     1.0000    0     1.008    8.993207  -15.822677   -1.065806
  79 H     1.0000    0     1.008    0.621720   -9.996651   -0.015118
  80 H     1.0000    0     1.008    4.055352   -9.150054   -3.666069
  81 H     1.0000    0     1.008   10.975529    9.422175   -3.696304
  82 H     1.0000    0     1.008    9.048009   -4.310465   -0.349599
  83 H     1.0000    0     1.008    9.184069    3.994881    3.613156
  84 H     1.0000    0     1.008   13.041000    6.672623    3.348595
  85 H     1.0000    0     1.008   13.951848   11.544337    0.672743
  86 H     1.0000    0     1.008   15.900156    8.791006    0.822031
  87 H     1.0000    0     1.008   14.968521   10.034446   -2.173185
  88 H     1.0000    0     1.008    9.983423    0.634948   -0.338261
  89 H     1.0000    0     1.008    7.029781    6.863485   -3.717091

--------------------------------
INTERNAL COORDINATES (ANGSTROEM)
--------------------------------
 C      0   0   0     0.000000000000     0.00000000     0.00000000
 C      1   0   0     5.445334241348     0.00000000     0.00000000
 C      1   2   0     2.413314940077    49.15618630     0.00000000
 C      3   1   2     1.403761375733    87.91498733   136.15167906
 C      4   3   1     1.380138036575   120.15032685     0.13482955
 C      5   4   3     2.447577169366   152.55590214     1.64289935
 C      2   1   3     1.368114030335    16.20381919   344.55326640
 C      7   2   1     1.434084376876   108.05010202   142.31907802
 C      2   1   3     1.434123425651   120.52768751    27.80013431
 C      1   2   3     1.380649846992    33.02694188   320.01455614
 N      5   4   3     1.352485859445   120.80550308   359.67566619
 N      9   2   1     1.376127174356   106.58526707   347.62536244
 N     12   9   2     2.925062050624   168.53581413   171.12065651
 N     13  12   9     2.954513327098    91.55032014    11.12112580
 N     14  13  12     2.925371258490    88.43092389   359.84326247
 C      8   7   2     1.404790019896   127.24786865   181.11170171
 C     13  12   9     1.366535034311    81.72106996   188.00453233
 C     14  13  12     5.758810554272    80.56209567   166.76250791
 C     17  13  12     1.459010623676   111.08861209   183.82872609
 C     18  14  13     2.412235892279    27.27532823    36.33507194
 C     20  18  14     1.402692767501    87.95206320   148.94598259
 C     21  20  18     1.382106725257   120.14573887   359.70382047
 C     18  14  13     2.446510985056   144.15733107    82.80075377
 C     19  17  13     1.353610726908   106.29293361   359.75308708
 C     13  12   9     1.366813447402   172.21332906    33.46711076
 C     18  14  13     1.380960173213    15.08449437   309.23336894
 N     22  21  20     1.352773077792   120.73759875     0.27865223
 C     25  13  17     1.410897586645   125.60330303   182.37774668
 C     14  13  12     1.376642291955    80.24689249   177.85461986
 C     14  13  12     5.764089607215   164.51507311   312.20821879
 C     29  14  13     1.435600919476   106.58649366   178.76395472
 C     30  14  13     2.413316804732    27.10625047    82.12560436
 C     32  30  14     1.403734305344    87.90059683   149.76154742
 C     33  32  30     1.380694028378   120.14881443   359.74174632
 C     34  33  32     2.448777858443   152.49203239     2.45173620
 C     31  29  14     1.368160809262   108.16950133     0.70383075
 C     14  13  12     1.376239804685   169.26375223   353.09862627
 C     30  14  13     1.380907310430    14.68948582   353.70041132
 N     34  33  32     1.352658863128   120.85575621     0.19603406
 C     37  14  29     1.404717053360   126.01551127   180.90772073
 C     15  14  13     1.366491126938    81.61824056   183.09049352
 C      2   1   3     4.249062720177   141.85217334   158.30368298
 C     41  15  14     1.459677704153   111.05201287   175.08990246
 C     42   2   1     2.412953791518    41.78584867   197.34514406
 C     44  42   2     1.403446472082    87.95153797   233.97558675
 C     45  44  42     1.381696421071   120.11137308     0.19721020
 C     42   2   1     2.450019795838   135.97209175   107.65999316
 C     43  41  15     1.354461516618   106.26758155     0.30894352
 C     15  14  13     1.367461151185   171.87382904   332.35056460
 C     42   2   1     1.381886391857    32.59078432   246.20042325
 C      9   2   1     1.404988612053   126.98745415   168.62969997
 N     42   2   1     1.352765315936   113.57249190   135.39658235
 H      1   2   3     1.082742813414   109.18734634   199.10437586
 H      2   1   3     1.079907866440   113.43092972   197.76426797
 H      4   3   1     1.083303743186   121.03409905   179.56277608
 H      5   4   3     1.082998614958   122.77330145   179.43450187
 H      6   5   4     1.092158871227   104.42151802   100.08373198
 H      6   5   4     1.089611857498    84.66901494   209.52509824
 H      6   5   4     1.089714641546   133.85014069   322.36956544
 H      7   2   1     1.079807853278   126.66122480   322.55749180
 H     10   1   2     1.084408133500   118.78904870   286.08841068
 H     12   9   2     1.016297692608   125.29023241   180.00180175
 H     14  13  12     1.014936943854    44.97226959   359.42596618
 H     18  14  13     1.082871645210   128.03556573   234.20482432
 H     19  17  13     1.080893611786   126.41830519   178.11313280
 H     21  20  18     1.083569563987   121.05669627   180.67006309
 H     22  21  20     1.082483256222   122.73097286   180.59748951
 H     23  18  14     1.092105306278   103.92715769   234.93429879
 H     23  18  14     1.088871893291   134.19244188    12.25587044
 H     23  18  14     1.089833473518    84.85857450   125.45241208
 H     24  19  17     1.080075460327   127.28078426   178.44613241
 H     26  18  14     1.083408048706   118.76995697   244.94906660
 H     30  14  13     1.082703098730   127.99711412   279.66882698
 H     31  29  14     1.079759695488   125.22293469   180.92530585
 H     33  32  30     1.083188810873   121.01964473   180.74284758
 H     34  33  32     1.082494341787   122.70821597   180.59516895
 H     35  34  33     1.092652735319   105.73575241    97.19771933
 H     35  34  33     1.089462711615    84.05943581   206.43036958
 H     35  34  33     1.089268102902   133.08365142   318.50306270
 H     36  31  29     1.079439669458   126.61599965   178.98859863
 H     38  30  73     1.083742127999   118.77264435   359.90091293
 H     42   2   1     1.082178358682   119.31790784   352.02811280
 H     43  41  15     1.080281907652   126.36969097   182.06329380
 H     45  44  42     1.083277434455   121.10105945   179.58025624
 H     46  45  44     1.082194529648   122.72144639   179.46906377
 H     47  42   2     1.091546151109   106.65128841   315.16475048
 H     47  42   2     1.088818625851   132.46019523    94.52397119
 H     47  42   2     1.089531091801    83.63838232   206.04504406
 H     48  43  41     1.080402239909   127.23657387   181.62955349
 H     50  42   2     1.083186502870   118.77001737    94.71359229

---------------------------
INTERNAL COORDINATES (A.U.)
---------------------------
 C      0   0   0     0.000000000000     0.00000000     0.00000000
 C      1   0   0    10.290190423812     0.00000000     0.00000000
 C      1   2   0     4.560504311647    49.15618630     0.00000000
 C      3   1   2     2.652724557512    87.91498733   136.15167906
 C      4   3   1     2.608082916134   120.15032685     0.13482955
 C      5   4   3     4.625250541739   152.55590214     1.64289935
 C      2   1   3     2.585360837309    16.20381919   344.55326640
 C      7   2   1     2.710026725231   108.05010202   142.31907802
 C      2   1   3     2.710100516721   120.52768751    27.80013431
 C      1   2   3     2.609050097656    33.02694188   320.01455614
 N      5   4   3     2.555827874353   120.80550308   359.67566619
 N      9   2   1     2.600503484979   106.58526707   347.62536244
 N     12   9   2     5.527566200405   168.53581413   171.12065651
 N     13  12   9     5.583221047236    91.55032014    11.12112580
 N     14  13  12     5.528150518591    88.43092389   359.84326247
 C      8   7   2     2.654668413270   127.24786865   181.11170171
 C     13  12   9     2.582376967257    81.72106996   188.00453233
 C     14  13  12    10.882574804710    80.56209567   166.76250791
 C     17  13  12     2.757130505230   111.08861209   183.82872609
 C     18  14  13     4.558465206823    27.27532823    36.33507194
 C     20  18  14     2.650705180609    87.95206320   148.94598259
 C     21  20  18     2.611803198586   120.14573887   359.70382047
 C     18  14  13     4.623235745386   144.15733107    82.80075377
 C     19  17  13     2.557953565794   106.29293361   359.75308708
 C     13  12   9     2.582903091751   172.21332906    33.46711076
 C     18  14  13     2.609636529225    15.08449437   309.23336894
 N     22  21  20     2.556370638369   120.73759875     0.27865223
 C     25  13  17     2.666210041769   125.60330303   182.37774668
 C     14  13  12     2.601476916169    80.24689249   177.85461986
 C     14  13  12    10.892550769017   164.51507311   312.20821879
 C     29  14  13     2.712892575415   106.58649366   178.76395472
 C     30  14  13     4.560507835333    27.10625047    82.12560436
 C     32  30  14     2.652673401891    87.90059683   149.76154742
 C     33  32  30     2.609133588376   120.14881443   359.74174632
 C     34  33  32     4.627519515267   152.49203239     2.45173620
 C     31  29  14     2.585449236669   108.16950133     0.70383075
 C     14  13  12     2.600716325456   169.26375223   353.09862627
 C     30  14  13     2.609536633043    14.68948582   353.70041132
 N     34  33  32     2.556154803934   120.85575621     0.19603406
 C     37  14  29     2.654530526499   126.01551127   180.90772073
 C     15  14  13     2.582293994346    81.61824056   183.09049352
 C      2   1   3     8.029564866989   141.85217334   158.30368298
 C     41  15  14     2.758391104639   111.05201287   175.08990246
 C     42   2   1     4.559821839776    41.78584867   197.34514406
 C     44  42   2     2.652129475853    87.95153797   233.97558675
 C     45  44  42     2.611027836043   120.11137308     0.19721020
 C     42   2   1     4.629866436820   135.97209175   107.65999316
 C     43  41  15     2.559561325344   106.26758155     0.30894352
 C     15  14  13     2.584127074516   171.87382904   332.35056460
 C     42   2   1     2.611386828803    32.59078432   246.20042325
 C      9   2   1     2.655043698059   126.98745415   168.62969997
 N     42   2   1     2.556355970587   113.57249190   135.39658235
 H      1   2   3     2.046087390824   109.18734634   199.10437586
 H      2   1   3     2.040730117440   113.43092972   197.76426797
 H      4   3   1     2.047147394473   121.03409905   179.56277608
 H      5   4   3     2.046570785686   122.77330145   179.43450187
 H      6   5   4     2.063881161352   104.42151802   100.08373198
 H      6   5   4     2.059068002944    84.66901494   209.52509824
 H      6   5   4     2.059262236646   133.85014069   322.36956544
 H      7   2   1     2.040541119952   126.66122480   322.55749180
 H     10   1   2     2.049234389711   118.78904870   286.08841068
 H     12   9   2     1.920524309565   125.29023241   180.00180175
 H     14  13  12     1.917952867083    44.97226959   359.42596618
 H     18  14  13     2.046330847636   128.03556573   234.20482432
 H     19  17  13     2.042592906181   126.41830519   178.11313280
 H     21  20  18     2.047649722989   121.05669627   180.67006309
 H     22  21  20     2.045596898814   122.73097286   180.59748951
 H     23  18  14     2.063779938267   103.92715769   234.93429879
 H     23  18  14     2.057669673245   134.19244188    12.25587044
 H     23  18  14     2.059486796529    84.85857450   125.45241208
 H     24  19  17     2.041046823986   127.28078426   178.44613241
 H     26  18  14     2.047344503340   118.76995697   244.94906660
 H     30  14  13     2.046012340948   127.99711412   279.66882698
 H     31  29  14     2.040450114918   125.22293469   180.92530585
 H     33  32  30     2.046930203877   121.01964473   180.74284758
 H     34  33  32     2.045617847496   122.70821597   180.59516895
 H     35  34  33     2.064814429233   105.73575241    97.19771933
 H     35  34  33     2.058786158072    84.05943581   206.43036958
 H     35  34  33     2.058418400901   133.08365142   318.50306270
 H     36  31  29     2.039845353366   126.61599965   178.98859863
 H     38  30  73     2.047975821711   118.77264435   359.90091293
 H     42   2   1     2.045020725966   119.31790784   352.02811280
 H     43  41  15     2.041436952892   126.36969097   182.06329380
 H     45  44  42     2.047097678177   121.10105945   179.58025624
 H     46  45  44     2.045051284662   122.72144639   179.46906377
 H     47  42   2     2.062723288131   106.65128841   315.16475048
 H     47  42   2     2.057569012371   132.46019523    94.52397119
 H     47  42   2     2.058915377895    83.63838232   206.04504406
 H     48  43  41     2.041664347903   127.23657387   181.62955349
 H     50  42   2     2.046925842384   118.77001737    94.71359229

---------------------
BASIS SET INFORMATION
---------------------
There are 3 groups of distinct atoms

 Group   1 Type C   : 17s4p1d contracted to 3s2p1d pattern {881/31/1}
 Group   2 Type N   : 17s4p1d contracted to 3s2p1d pattern {881/31/1}
 Group   3 Type H   : 4s1p contracted to 2s1p pattern {31/1}

Atom   0C    basis set group =>   1
Atom   1N    basis set group =>   2
Atom   2C    basis set group =>   1
Atom   3N    basis set group =>   2
Atom   4C    basis set group =>   1
Atom   5N    basis set group =>   2
Atom   6C    basis set group =>   1
Atom   7N    basis set group =>   2
Atom   8C    basis set group =>   1
Atom   9N    basis set group =>   2
Atom  10C    basis set group =>   1
Atom  11N    basis set group =>   2
Atom  12C    basis set group =>   1
Atom  13N    basis set group =>   2
Atom  14C    basis set group =>   1
Atom  15N    basis set group =>   2
Atom  16C    basis set group =>   1
Atom  17C    basis set group =>   1
Atom  18C    basis set group =>   1
Atom  19C    basis set group =>   1
Atom  20C    basis set group =>   1
Atom  21C    basis set group =>   1
Atom  22C    basis set group =>   1
Atom  23C    basis set group =>   1
Atom  24C    basis set group =>   1
Atom  25C    basis set group =>   1
Atom  26C    basis set group =>   1
Atom  27C    basis set group =>   1
Atom  28C    basis set group =>   1
Atom  29C    basis set group =>   1
Atom  30C    basis set group =>   1
Atom  31C    basis set group =>   1
Atom  32C    basis set group =>   1
Atom  33C    basis set group =>   1
Atom  34C    basis set group =>   1
Atom  35C    basis set group =>   1
Atom  36C    basis set group =>   1
Atom  37C    basis set group =>   1
Atom  38C    basis set group =>   1
Atom  39C    basis set group =>   1
Atom  40C    basis set group =>   1
Atom  41C    basis set group =>   1
Atom  42C    basis set group =>   1
Atom  43C    basis set group =>   1
Atom  44C    basis set group =>   1
Atom  45C    basis set group =>   1
Atom  46C    basis set group =>   1
Atom  47C    basis set group =>   1
Atom  48C    basis set group =>   1
Atom  49C    basis set group =>   1
Atom  50C    basis set group =>   1
Atom  51C    basis set group =>   1
Atom  52H    basis set group =>   3
Atom  53H    basis set group =>   3
Atom  54H    basis set group =>   3
Atom  55H    basis set group =>   3
Atom  56H    basis set group =>   3
Atom  57H    basis set group =>   3
Atom  58H    basis set group =>   3
Atom  59H    basis set group =>   3
Atom  60H    basis set group =>   3
Atom  61H    basis set group =>   3
Atom  62H    basis set group =>   3
Atom  63H    basis set group =>   3
Atom  64H    basis set group =>   3
Atom  65H    basis set group =>   3
Atom  66H    basis set group =>   3
Atom  67H    basis set group =>   3
Atom  68H    basis set group =>   3
Atom  69H    basis set group =>   3
Atom  70H    basis set group =>   3
Atom  71H    basis set group =>   3
Atom  72H    basis set group =>   3
Atom  73H    basis set group =>   3
Atom  74H    basis set group =>   3
Atom  75H    basis set group =>   3
Atom  76H    basis set group =>   3
Atom  77H    basis set group =>   3
Atom  78H    basis set group =>   3
Atom  79H    basis set group =>   3
Atom  80H    basis set group =>   3
Atom  81H    basis set group =>   3
Atom  82H    basis set group =>   3
Atom  83H    basis set group =>   3
Atom  84H    basis set group =>   3
Atom  85H    basis set group =>   3
Atom  86H    basis set group =>   3
Atom  87H    basis set group =>   3
Atom  88H    basis set group =>   3
Atom  89H    basis set group =>   3


           ************************************************************
           *        Program running with 16 parallel MPI-processes    *
           *              working on a common directory               *
           ************************************************************
------------------------------------------------------------------------------
                           ORCA GTO INTEGRAL CALCULATION
------------------------------------------------------------------------------
------------------------------------------------------------------------------
                   ___                                                        
                  /   \      - P O W E R E D   B Y -                         
                 /     \                                                     
                 |  |  |   _    _      __       _____    __    __             
                 |  |  |  | |  | |    /  \     |  _  \  |  |  /  |          
                  \  \/   | |  | |   /    \    | | | |  |  | /  /          
                 / \  \   | |__| |  /  /\  \   | |_| |  |  |/  /          
                |  |  |   |  __  | /  /__\  \  |    /   |      \           
                |  |  |   | |  | | |   __   |  |    \   |  |\   \          
                \     /   | |  | | |  |  |  |  | |\  \  |  | \   \       
                 \___/    |_|  |_| |__|  |__|  |_| \__\ |__|  \__/        
                                                                              
                      - O R C A' S   B I G   F R I E N D -                    
                                      &                                       
                       - I N T E G R A L  F E E D E R -                       
                                                                              
 v1 FN, 2020, v2 2021                                                         
------------------------------------------------------------------------------


Reading SHARK input file /scratch/allen/tmpyp4_amber_gaff2/conf1/conf1/Conf56.orca.SHARKINP.tmp ... ok
----------------------
SHARK INTEGRAL PACKAGE
----------------------

Number of atoms                             ...     90
Number of basis functions                   ...   1230
Number of shells                            ...    738
Maximum angular momentum                    ...      2
Integral batch strategy                     ... SHARK/LIBINT Hybrid
RI-J (if used) integral strategy            ... SPLIT-RIJ (Revised 2003 algorithm where possible)
Printlevel                                  ...      1
Contraction scheme used                     ... PARTIAL GENERAL contraction
Coulomb Range Separation                    ... NOT USED
Exchange Range Separation                   ... NOT USED
Finite Nucleus Model                        ... NOT USED
Auxiliary Coulomb fitting basis             ... NOT available
Auxiliary J/K fitting basis                 ... NOT available
Auxiliary Correlation fitting basis         ... NOT available
Auxiliary 'external' fitting basis          ... NOT available
Integral threshold                          ...     2.500000e-11
Primitive cut-off                           ...     2.500000e-12
Primitive pair pre-selection threshold      ...     2.500000e-12

Calculating pre-screening integrals         ... done (  0.1 sec) Dimension = 738
Calculating pre-screening integrals (ORCA)  ... done (  0.3 sec) Dimension = 426
Organizing shell pair data                  ... done (  0.5 sec)
Shell pair information
Total number of shell pairs                 ...    272691
Shell pairs after pre-screening             ...     71608
Total number of primitive shell pairs       ...    422091
Primitive shell pairs kept                  ...     92380
          la=0 lb=0:  29420 shell pairs
          la=1 lb=0:  25962 shell pairs
          la=1 lb=1:   4702 shell pairs
          la=2 lb=0:   7869 shell pairs
          la=2 lb=1:   3124 shell pairs
          la=2 lb=2:    531 shell pairs

Calculating one electron integrals          ... done (  0.2 sec)
Calculating Nuclear repulsion               ... done (  0.0 sec) ENN=   6226.025538829198 Eh

SHARK setup successfully completed in   1.7 seconds

Maximum memory used throughout the entire GTOINT-calculation: 98.9 MB


           ************************************************************
           *        Program running with 16 parallel MPI-processes    *
           *              working on a common directory               *
           ************************************************************
-------------------------------------------------------------------------------
                                 ORCA SCF
-------------------------------------------------------------------------------

------------
SCF SETTINGS
------------
Hamiltonian:
 Ab initio Hamiltonian  Method          .... Hartree-Fock(GTOs)


General Settings:
 Integral files         IntName         .... /scratch/allen/tmpyp4_amber_gaff2/conf1/conf1/Conf56.orca
 Hartree-Fock type      HFTyp           .... RHF
 Total Charge           Charge          ....    0
 Multiplicity           Mult            ....    1
 Number of Electrons    NEL             ....  358
 Basis Dimension        Dim             ....  918
 Nuclear Repulsion      ENuc            ....   6226.0255388292 Eh

Convergence Acceleration:
 DIIS                   CNVDIIS         .... on
   Start iteration      DIISMaxIt       ....    12
   Startup error        DIISStart       ....  0.200000
   # of expansion vecs  DIISMaxEq       ....     5
   Bias factor          DIISBfac        ....   1.050
   Max. coefficient     DIISMaxC        ....  10.000
 Trust-Rad. Augm. Hess. CNVTRAH         .... auto
   Auto Start mean grad. ratio tolernc. ....  1.125000
   Auto Start start iteration           ....    20
   Auto Start num. interpolation iter.  ....    10
   Max. Number of Micro iterations      ....    16
   Max. Number of Macro iterations      .... Maxiter - #DIIS iter
   Number of Davidson start vectors     ....     2
   Converg. threshold I  (grad. norm)   ....   1.000e-05
   Converg. threshold II (energy diff.) ....   1.000e-08
   Grad. Scal. Fac. for Micro threshold ....   0.100
   Minimum threshold for Micro iter.    ....   0.010
   NR start threshold (gradient norm)   ....   0.001
   Initial trust radius                 ....   0.400
   Minimum AH scaling param. (alpha)    ....   1.000
   Maximum AH scaling param. (alpha)    .... 1000.000
   Orbital update algorithm             .... Taylor
   White noise on init. David. guess    .... on
   Maximum white noise                  ....   0.010
   Quad. conv. algorithm                .... NR
 SOSCF                  CNVSOSCF        .... on
   Start iteration      SOSCFMaxIt      ....   150
   Startup grad/error   SOSCFStart      ....  0.003300
 Level Shifting         CNVShift        .... on
   Level shift para.    LevelShift      ....    0.2500
   Turn off err/grad.   ShiftErr        ....    0.0010
 Zerner damping         CNVZerner       .... off
 Static damping         CNVDamp         .... on
   Fraction old density DampFac         ....    0.7000
   Max. Damping (<1)    DampMax         ....    0.9800
   Min. Damping (>=0)   DampMin         ....    0.0000
   Turn off err/grad.   DampErr         ....    0.1000
 Fernandez-Rico         CNVRico         .... off

SCF Procedure:
 Maximum # iterations   MaxIter         ....   125
 SCF integral mode      SCFMode         .... Direct
   Integral package                     .... SHARK and LIBINT hybrid scheme
 Reset frequency        DirectResetFreq ....    20
 Integral Threshold     Thresh          ....  2.500e-11 Eh
 Primitive CutOff       TCut            ....  2.500e-12 Eh

Convergence Tolerance:
 Convergence Check Mode ConvCheckMode   .... Total+1el-Energy
 Convergence forced     ConvForced      .... 1
 Energy Change          TolE            ....  1.000e-08 Eh
 1-El. energy change                    ....  1.000e-05 Eh
 Orbital Gradient       TolG            ....  1.000e-05
 Orbital Rotation angle TolX            ....  1.000e-05
 DIIS Error             TolErr          ....  5.000e-07


Diagonalization of the overlap matrix:
Smallest eigenvalue                        ... 2.245e-04
Time for diagonalization                   ...    0.405 sec
Threshold for overlap eigenvalues          ... 1.000e-08
Number of eigenvalues below threshold      ... 0
Time for construction of square roots      ...    0.197 sec
Total time needed                          ...    0.608 sec

Time for model grid setup =    1.017 sec

------------------------------
INITIAL GUESS: MODEL POTENTIAL
------------------------------
Loading Hartree-Fock densities                     ... done
Calculating cut-offs                               ... done
Initializing the effective Hamiltonian             ... done
Setting up the integral package (SHARK)            ... done
Starting the Coulomb interaction                   ... done (   1.1 sec)
Reading the grid                                   ... done
Mapping shells                                     ... done
Starting the XC term evaluation                    ... done (   0.2 sec)
Transforming the Hamiltonian                       ... done (   0.2 sec)
Diagonalizing the Hamiltonian                      ... done (   0.3 sec)
Back transforming the eigenvectors                 ... done (   0.1 sec)
Now organizing SCF variables                       ... done
                      ------------------
                      INITIAL GUESS DONE (   2.9 sec)
                      ------------------
--------------
SCF ITERATIONS
--------------
ITER       Energy         Delta-E        Max-DP      RMS-DP      [F,P]     Damp
               ***  Starting incremental Fock matrix formation  ***
  0  -2121.6748293409   0.000000000000 0.06898289  0.00121159  0.2329613 0.7000
  1  -2122.3392270277  -0.664397686824 0.05232710  0.00098388  0.1441470 0.7000
                               ***Turning on DIIS***
  2  -2122.7518569658  -0.412629938131 0.11615772  0.00222863  0.0802503 0.0000
  3  -2117.7473878698   5.004469096035 0.03068876  0.00068439  0.0442386 0.0000
  4  -2123.4129671206  -5.665579250759 0.00899682  0.00022905  0.0069634 0.0000
  5  -2123.5912836026  -0.178316482034 0.00517228  0.00013569  0.0049052 0.0000
  6  -2123.5744636658   0.016819936800 0.00338502  0.00008809  0.0019586 0.0000
  7  -2123.6795036748  -0.105040009010 0.00285040  0.00006967  0.0015017 0.0000
  8  -2123.6979669953  -0.018463320519 0.00281490  0.00006556  0.0014010 0.0000
  9  -2123.6620630457   0.035903949585 0.00225884  0.00004464  0.0011056 0.0000
 10  -2123.6765686884  -0.014505642708 0.00464709  0.00008778  0.0008421 0.0000
                      *** Initiating the SOSCF procedure ***
                           *** Shutting down DIIS ***
                      *** Re-Reading the Fockian *** 
                      *** Removing any level shift *** 
ITER      Energy       Delta-E        Grad      Rot      Max-DP    RMS-DP
 11  -2123.55814137   0.1184273173  0.000328  0.000328  0.000290  0.000007
               *** Restarting incremental Fock matrix formation ***
 12  -2123.62386776  -0.0657263901  0.000974  0.006611  0.001110  0.000027
 13  -2123.62393276  -0.0000649966  0.001025  0.026377  0.004217  0.000087
 14  -2123.62401251  -0.0000797551  0.000450  0.002514  0.000529  0.000011
 15  -2123.62402362  -0.0000111071  0.000135  0.001685  0.000574  0.000009
 16  -2123.62402771  -0.0000040888  0.000103  0.002757  0.000642  0.000012
 17  -2123.62403062  -0.0000029071  0.000105  0.002484  0.000485  0.000009
 18  -2123.62403200  -0.0000013846  0.000056  0.001447  0.000261  0.000005
 19  -2123.62403294  -0.0000009363  0.000058  0.000824  0.000192  0.000004
 20  -2123.62403331  -0.0000003773  0.000029  0.000594  0.000117  0.000002
 21  -2123.62403343  -0.0000001159  0.000028  0.000282  0.000048  0.000001
 22  -2123.62403352  -0.0000000878  0.000017  0.000390  0.000085  0.000002
 23  -2123.62403358  -0.0000000661  0.000011  0.000213  0.000055  0.000001
 24  -2123.62403360  -0.0000000198  0.000005  0.000139  0.000034  0.000001
 25  -2123.62403362  -0.0000000142  0.000004  0.000084  0.000022  0.000000
 26  -2123.62403363  -0.0000000116  0.000003  0.000056  0.000017  0.000000
                  ***Gradient check signals convergence***
              ***Rediagonalizing the Fockian in SOSCF/NRSCF***

               *****************************************************
               *                     SUCCESS                       *
               *           SCF CONVERGED AFTER  27 CYCLES          *
               *****************************************************


----------------
TOTAL SCF ENERGY
----------------

Total Energy       :        -2123.62403363 Eh          -57786.74778 eV

Components:
Nuclear Repulsion  :         6226.02553883 Eh          169418.76800 eV
Electronic Energy  :        -8349.64957246 Eh         -227205.51577 eV
One Electron Energy:       -15293.13900515 Eh         -416147.46886 eV
Two Electron Energy:         6943.48943269 Eh          188941.95309 eV

Virial components:
Potential Energy   :        -4245.64098954 Eh         -115529.76475 eV
Kinetic Energy     :         2122.01695591 Eh           57743.01697 eV
Virial Ratio       :            2.00075734


---------------
SCF CONVERGENCE
---------------

  Last Energy change         ...   -1.2897e-09  Tolerance :   1.0000e-08
  Last MAX-Density change    ...    1.7565e-05  Tolerance :   1.0000e-07
  Last RMS-Density change    ...    2.4581e-07  Tolerance :   5.0000e-09
  Last Orbital Gradient      ...    2.2812e-06  Tolerance :   1.0000e-05
  Last Orbital Rotation      ...    6.2250e-05  Tolerance :   1.0000e-05

             **** THE GBW FILE WAS UPDATED (/scratch/allen/tmpyp4_amber_gaff2/conf1/conf1/Conf56.orca.gbw) ****
             **** DENSITY /scratch/allen/tmpyp4_amber_gaff2/conf1/conf1/Conf56.orca.scfp WAS UPDATED ****
             **** ENERGY FILE WAS UPDATED (/scratch/allen/tmpyp4_amber_gaff2/conf1/conf1/Conf56.orca.en.tmp) ****
             **** THE GBW FILE WAS UPDATED (/scratch/allen/tmpyp4_amber_gaff2/conf1/conf1/Conf56.orca.gbw) ****
             **** DENSITY /scratch/allen/tmpyp4_amber_gaff2/conf1/conf1/Conf56.orca.scfp WAS UPDATED ****
----------------
ORBITAL ENERGIES
----------------

  NO   OCC          E(Eh)            E(eV) 
   0   2.0000     -15.644739      -425.7150 
   1   2.0000     -15.637778      -425.5256 
   2   2.0000     -15.629826      -425.3092 
   3   2.0000     -15.618494      -425.0008 
   4   2.0000     -15.519710      -422.3128 
   5   2.0000     -15.516429      -422.2235 
   6   2.0000     -15.445651      -420.2975 
   7   2.0000     -15.443574      -420.2410 
   8   2.0000     -11.306190      -307.6571 
   9   2.0000     -11.301621      -307.5327 
  10   2.0000     -11.300456      -307.5010 
  11   2.0000     -11.298316      -307.4428 
  12   2.0000     -11.296784      -307.4011 
  13   2.0000     -11.294007      -307.3256 
  14   2.0000     -11.291967      -307.2701 
  15   2.0000     -11.290416      -307.2279 
  16   2.0000     -11.287122      -307.1382 
  17   2.0000     -11.286332      -307.1167 
  18   2.0000     -11.278977      -306.9166 
  19   2.0000     -11.277797      -306.8844 
  20   2.0000     -11.248907      -306.0983 
  21   2.0000     -11.241108      -305.8861 
  22   2.0000     -11.238411      -305.8127 
  23   2.0000     -11.237525      -305.7886 
  24   2.0000     -11.234282      -305.7004 
  25   2.0000     -11.233500      -305.6791 
  26   2.0000     -11.232712      -305.6576 
  27   2.0000     -11.227756      -305.5228 
  28   2.0000     -11.227587      -305.5182 
  29   2.0000     -11.225783      -305.4691 
  30   2.0000     -11.219574      -305.3001 
  31   2.0000     -11.218621      -305.2742 
  32   2.0000     -11.201413      -304.8059 
  33   2.0000     -11.201052      -304.7961 
  34   2.0000     -11.194022      -304.6048 
  35   2.0000     -11.193429      -304.5887 
  36   2.0000     -11.175044      -304.0884 
  37   2.0000     -11.174096      -304.0626 
  38   2.0000     -11.174004      -304.0601 
  39   2.0000     -11.171539      -303.9930 
  40   2.0000     -11.169270      -303.9313 
  41   2.0000     -11.168037      -303.8977 
  42   2.0000     -11.167980      -303.8962 
  43   2.0000     -11.165673      -303.8334 
  44   2.0000     -11.161214      -303.7121 
  45   2.0000     -11.159685      -303.6705 
  46   2.0000     -11.152474      -303.4742 
  47   2.0000     -11.150172      -303.4116 
  48   2.0000     -11.146324      -303.3069 
  49   2.0000     -11.144161      -303.2480 
  50   2.0000     -11.141025      -303.1627 
  51   2.0000     -11.137548      -303.0681 
  52   2.0000      -1.330478       -36.2042 
  53   2.0000      -1.324423       -36.0394 
  54   2.0000      -1.317613       -35.8541 
  55   2.0000      -1.308605       -35.6090 
  56   2.0000      -1.218569       -33.1590 
  57   2.0000      -1.212766       -33.0010 
  58   2.0000      -1.162830       -31.6422 
  59   2.0000      -1.156985       -31.4832 
  60   2.0000      -1.118442       -30.4343 
  61   2.0000      -1.112491       -30.2724 
  62   2.0000      -1.106693       -30.1147 
  63   2.0000      -1.099357       -29.9150 
  64   2.0000      -1.054214       -28.6866 
  65   2.0000      -1.048308       -28.5259 
  66   2.0000      -1.042216       -28.3601 
  67   2.0000      -1.034556       -28.1517 
  68   2.0000      -1.027415       -27.9574 
  69   2.0000      -1.010266       -27.4907 
  70   2.0000      -1.009682       -27.4748 
  71   2.0000      -0.997398       -27.1406 
  72   2.0000      -0.982730       -26.7414 
  73   2.0000      -0.975719       -26.5507 
  74   2.0000      -0.969783       -26.3891 
  75   2.0000      -0.960181       -26.1279 
  76   2.0000      -0.952292       -25.9132 
  77   2.0000      -0.944380       -25.6979 
  78   2.0000      -0.940047       -25.5800 
  79   2.0000      -0.923441       -25.1281 
  80   2.0000      -0.893838       -24.3226 
  81   2.0000      -0.880490       -23.9593 
  82   2.0000      -0.875331       -23.8190 
  83   2.0000      -0.869495       -23.6601 
  84   2.0000      -0.863320       -23.4921 
  85   2.0000      -0.857048       -23.3215 
  86   2.0000      -0.848614       -23.0920 
  87   2.0000      -0.843376       -22.9494 
  88   2.0000      -0.821905       -22.3652 
  89   2.0000      -0.798617       -21.7315 
  90   2.0000      -0.797792       -21.7090 
  91   2.0000      -0.739795       -20.1308 
  92   2.0000      -0.730713       -19.8837 
  93   2.0000      -0.729133       -19.8407 
  94   2.0000      -0.720815       -19.6144 
  95   2.0000      -0.720786       -19.6136 
  96   2.0000      -0.712375       -19.3847 
  97   2.0000      -0.709125       -19.2963 
  98   2.0000      -0.699206       -19.0264 
  99   2.0000      -0.692861       -18.8537 
 100   2.0000      -0.685284       -18.6475 
 101   2.0000      -0.681152       -18.5351 
 102   2.0000      -0.679094       -18.4791 
 103   2.0000      -0.673969       -18.3396 
 104   2.0000      -0.668757       -18.1978 
 105   2.0000      -0.666343       -18.1321 
 106   2.0000      -0.661881       -18.0107 
 107   2.0000      -0.660729       -17.9793 
 108   2.0000      -0.656682       -17.8692 
 109   2.0000      -0.656524       -17.8649 
 110   2.0000      -0.652366       -17.7518 
 111   2.0000      -0.650243       -17.6940 
 112   2.0000      -0.647873       -17.6295 
 113   2.0000      -0.643013       -17.4973 
 114   2.0000      -0.635122       -17.2825 
 115   2.0000      -0.623989       -16.9796 
 116   2.0000      -0.620536       -16.8857 
 117   2.0000      -0.615209       -16.7407 
 118   2.0000      -0.611718       -16.6457 
 119   2.0000      -0.609256       -16.5787 
 120   2.0000      -0.608734       -16.5645 
 121   2.0000      -0.604428       -16.4473 
 122   2.0000      -0.600627       -16.3439 
 123   2.0000      -0.593062       -16.1380 
 124   2.0000      -0.588866       -16.0239 
 125   2.0000      -0.584023       -15.8921 
 126   2.0000      -0.579149       -15.7595 
 127   2.0000      -0.573273       -15.5995 
 128   2.0000      -0.570820       -15.5328 
 129   2.0000      -0.561028       -15.2664 
 130   2.0000      -0.553750       -15.0683 
 131   2.0000      -0.544604       -14.8194 
 132   2.0000      -0.540732       -14.7141 
 133   2.0000      -0.535791       -14.5796 
 134   2.0000      -0.533879       -14.5276 
 135   2.0000      -0.530110       -14.4250 
 136   2.0000      -0.524955       -14.2848 
 137   2.0000      -0.523548       -14.2465 
 138   2.0000      -0.519210       -14.1284 
 139   2.0000      -0.516056       -14.0426 
 140   2.0000      -0.510731       -13.8977 
 141   2.0000      -0.505641       -13.7592 
 142   2.0000      -0.504385       -13.7250 
 143   2.0000      -0.502091       -13.6626 
 144   2.0000      -0.499544       -13.5933 
 145   2.0000      -0.498344       -13.5606 
 146   2.0000      -0.496941       -13.5225 
 147   2.0000      -0.492747       -13.4083 
 148   2.0000      -0.491120       -13.3641 
 149   2.0000      -0.469372       -12.7723 
 150   2.0000      -0.460792       -12.5388 
 151   2.0000      -0.452180       -12.3044 
 152   2.0000      -0.448291       -12.1986 
 153   2.0000      -0.446742       -12.1565 
 154   2.0000      -0.445595       -12.1253 
 155   2.0000      -0.439561       -11.9611 
 156   2.0000      -0.435596       -11.8532 
 157   2.0000      -0.431582       -11.7439 
 158   2.0000      -0.392637       -10.6842 
 159   2.0000      -0.383897       -10.4464 
 160   2.0000      -0.377768       -10.2796 
 161   2.0000      -0.372912       -10.1474 
 162   2.0000      -0.363991        -9.9047 
 163   2.0000      -0.358851        -9.7648 
 164   2.0000      -0.353814        -9.6278 
 165   2.0000      -0.346269        -9.4225 
 166   2.0000      -0.337112        -9.1733 
 167   2.0000      -0.333153        -9.0656 
 168   2.0000      -0.329283        -8.9602 
 169   2.0000      -0.300333        -8.1725 
 170   2.0000      -0.296063        -8.0563 
 171   2.0000      -0.289022        -7.8647 
 172   2.0000      -0.287336        -7.8188 
 173   2.0000      -0.255999        -6.9661 
 174   2.0000      -0.248288        -6.7563 
 175   2.0000      -0.188402        -5.1267 
 176   2.0000      -0.178355        -4.8533 
 177   2.0000      -0.067536        -1.8377 
 178   2.0000      -0.054816        -1.4916 
 179   0.0000       0.030639         0.8337 
 180   0.0000       0.070595         1.9210 
 181   0.0000       0.092789         2.5249 
 182   0.0000       0.098159         2.6710 
 183   0.0000       0.130252         3.5444 
 184   0.0000       0.135044         3.6747 
 185   0.0000       0.140846         3.8326 
 186   0.0000       0.148898         4.0517 
 187   0.0000       0.159267         4.3339 
 188   0.0000       0.160940         4.3794 
 189   0.0000       0.163241         4.4420 
 190   0.0000       0.167141         4.5481 
 191   0.0000       0.172439         4.6923 
 192   0.0000       0.199098         5.4177 
 193   0.0000       0.202439         5.5086 
 194   0.0000       0.202992         5.5237 
 195   0.0000       0.206537         5.6202 
 196   0.0000       0.207088         5.6352 
 197   0.0000       0.210293         5.7224 
 198   0.0000       0.212328         5.7777 
 199   0.0000       0.215941         5.8761 
 200   0.0000       0.233620         6.3571 
 201   0.0000       0.237966         6.4754 
 202   0.0000       0.241334         6.5670 
 203   0.0000       0.246411         6.7052 
 204   0.0000       0.251390         6.8407 
 205   0.0000       0.255142         6.9428 
 206   0.0000       0.257730         7.0132 
 207   0.0000       0.258355         7.0302 
 208   0.0000       0.262528         7.1438 
 209   0.0000       0.264095         7.1864 
 210   0.0000       0.267756         7.2860 
 211   0.0000       0.269891         7.3441 
 212   0.0000       0.272844         7.4245 
 213   0.0000       0.275525         7.4974 
 214   0.0000       0.277775         7.5586 
 215   0.0000       0.280268         7.6265 
 216   0.0000       0.280331         7.6282 
 217   0.0000       0.282062         7.6753 
 218   0.0000       0.288012         7.8372 
 219   0.0000       0.289134         7.8677 
 220   0.0000       0.290166         7.8958 
 221   0.0000       0.292026         7.9464 
 222   0.0000       0.293749         7.9933 
 223   0.0000       0.295264         8.0345 
 224   0.0000       0.298483         8.1221 
 225   0.0000       0.300671         8.1817 
 226   0.0000       0.302781         8.2391 
 227   0.0000       0.306300         8.3349 
 228   0.0000       0.308008         8.3813 
 229   0.0000       0.311523         8.4770 
 230   0.0000       0.316698         8.6178 
 231   0.0000       0.318082         8.6555 
 232   0.0000       0.325153         8.8479 
 233   0.0000       0.329452         8.9648 
 234   0.0000       0.331639         9.0244 
 235   0.0000       0.339124         9.2280 
 236   0.0000       0.356273         9.6947 
 237   0.0000       0.387478        10.5438 
 238   0.0000       0.394271        10.7287 
 239   0.0000       0.400820        10.9069 
 240   0.0000       0.406000        11.0478 
 241   0.0000       0.412172        11.2158 
 242   0.0000       0.421044        11.4572 
 243   0.0000       0.424026        11.5383 
 244   0.0000       0.431757        11.7487 
 245   0.0000       0.432453        11.7676 
 246   0.0000       0.434023        11.8104 
 247   0.0000       0.438999        11.9458 
 248   0.0000       0.441181        12.0051 
 249   0.0000       0.443314        12.0632 
 250   0.0000       0.445212        12.1148 
 251   0.0000       0.450237        12.2516 
 252   0.0000       0.456132        12.4120 
 253   0.0000       0.467256        12.7147 
 254   0.0000       0.471085        12.8189 
 255   0.0000       0.474449        12.9104 
 256   0.0000       0.482174        13.1206 
 257   0.0000       0.486073        13.2267 
 258   0.0000       0.492070        13.3899 
 259   0.0000       0.497513        13.5380 
 260   0.0000       0.500201        13.6112 
 261   0.0000       0.503020        13.6879 
 262   0.0000       0.505890        13.7660 
 263   0.0000       0.511258        13.9120 
 264   0.0000       0.511565        13.9204 
 265   0.0000       0.514765        14.0075 
 266   0.0000       0.517707        14.0875 
 267   0.0000       0.522821        14.2267 
 268   0.0000       0.535619        14.5749 
 269   0.0000       0.538206        14.6453 
 270   0.0000       0.541394        14.7321 
 271   0.0000       0.546076        14.8595 
 272   0.0000       0.547307        14.8930 
 273   0.0000       0.553684        15.0665 
 274   0.0000       0.559709        15.2305 
 275   0.0000       0.563187        15.3251 
 276   0.0000       0.572818        15.5872 
 277   0.0000       0.576692        15.6926 
 278   0.0000       0.581946        15.8356 
 279   0.0000       0.585171        15.9233 
 280   0.0000       0.588887        16.0244 
 281   0.0000       0.591659        16.0999 
 282   0.0000       0.594763        16.1843 
 283   0.0000       0.596495        16.2315 
 284   0.0000       0.600563        16.3421 
 285   0.0000       0.602090        16.3837 
 286   0.0000       0.606449        16.5023 
 287   0.0000       0.607469        16.5301 
 288   0.0000       0.611334        16.6352 
 289   0.0000       0.615028        16.7358 
 290   0.0000       0.617520        16.8036 
 291   0.0000       0.627807        17.0835 
 292   0.0000       0.639226        17.3942 
 293   0.0000       0.639692        17.4069 
 294   0.0000       0.642303        17.4779 
 295   0.0000       0.651452        17.7269 
 296   0.0000       0.657065        17.8796 
 297   0.0000       0.660303        17.9678 
 298   0.0000       0.662347        18.0234 
 299   0.0000       0.663447        18.0533 
 300   0.0000       0.670497        18.2452 
 301   0.0000       0.672033        18.2869 
 302   0.0000       0.678406        18.4604 
 303   0.0000       0.680268        18.5110 
 304   0.0000       0.683357        18.5951 
 305   0.0000       0.685098        18.6425 
 306   0.0000       0.690856        18.7992 
 307   0.0000       0.693952        18.8834 
 308   0.0000       0.698427        19.0052 
 309   0.0000       0.701301        19.0834 
 310   0.0000       0.704477        19.1698 
 311   0.0000       0.705510        19.1979 
 312   0.0000       0.706353        19.2208 
 313   0.0000       0.708700        19.2847 
 314   0.0000       0.713151        19.4058 
 315   0.0000       0.714272        19.4363 
 316   0.0000       0.715859        19.4795 
 317   0.0000       0.718250        19.5446 
 318   0.0000       0.719401        19.5759 
 319   0.0000       0.722117        19.6498 
 320   0.0000       0.724017        19.7015 
 321   0.0000       0.727713        19.8021 
 322   0.0000       0.731726        19.9113 
 323   0.0000       0.734603        19.9896 
 324   0.0000       0.738258        20.0890 
 325   0.0000       0.742182        20.1958 
 326   0.0000       0.745223        20.2786 
 327   0.0000       0.746731        20.3196 
 328   0.0000       0.748108        20.3571 
 329   0.0000       0.749078        20.3835 
 330   0.0000       0.753508        20.5040 
 331   0.0000       0.754791        20.5389 
 332   0.0000       0.757873        20.6228 
 333   0.0000       0.761927        20.7331 
 334   0.0000       0.765439        20.8286 
 335   0.0000       0.772997        21.0343 
 336   0.0000       0.773973        21.0609 
 337   0.0000       0.778005        21.1706 
 338   0.0000       0.783319        21.3152 
 339   0.0000       0.789454        21.4821 
 340   0.0000       0.790573        21.5126 
 341   0.0000       0.793011        21.5789 
 342   0.0000       0.798776        21.7358 
 343   0.0000       0.799772        21.7629 
 344   0.0000       0.805034        21.9061 
 345   0.0000       0.806895        21.9567 
 346   0.0000       0.807675        21.9780 
 347   0.0000       0.812472        22.1085 
 348   0.0000       0.814530        22.1645 
 349   0.0000       0.815785        22.1986 
 350   0.0000       0.821291        22.3485 
 351   0.0000       0.823007        22.3951 
 352   0.0000       0.825636        22.4667 
 353   0.0000       0.830404        22.5964 
 354   0.0000       0.831977        22.6393 
 355   0.0000       0.832670        22.6581 
 356   0.0000       0.834639        22.7117 
 357   0.0000       0.835303        22.7298 
 358   0.0000       0.837049        22.7773 
 359   0.0000       0.838737        22.8232 
 360   0.0000       0.840787        22.8790 
 361   0.0000       0.841599        22.9011 
 362   0.0000       0.843512        22.9531 
 363   0.0000       0.843959        22.9653 
 364   0.0000       0.846072        23.0228 
 365   0.0000       0.849771        23.1234 
 366   0.0000       0.849840        23.1253 
 367   0.0000       0.851960        23.1830 
 368   0.0000       0.859355        23.3842 
 369   0.0000       0.860617        23.4186 
 370   0.0000       0.865970        23.5643 
 371   0.0000       0.869382        23.6571 
 372   0.0000       0.872183        23.7333 
 373   0.0000       0.877937        23.8899 
 374   0.0000       0.879035        23.9198 
 375   0.0000       0.882715        24.0199 
 376   0.0000       0.884649        24.0725 
 377   0.0000       0.888153        24.1679 
 378   0.0000       0.892130        24.2761 
 379   0.0000       0.896166        24.3859 
 380   0.0000       0.898148        24.4399 
 381   0.0000       0.900190        24.4954 
 382   0.0000       0.900708        24.5095 
 383   0.0000       0.903154        24.5761 
 384   0.0000       0.903765        24.5927 
 385   0.0000       0.907093        24.6833 
 386   0.0000       0.908938        24.7335 
 387   0.0000       0.910202        24.7679 
 388   0.0000       0.912731        24.8367 
 389   0.0000       0.914168        24.8758 
 390   0.0000       0.917237        24.9593 
 391   0.0000       0.918251        24.9869 
 392   0.0000       0.921919        25.0867 
 393   0.0000       0.924673        25.1616 
 394   0.0000       0.928290        25.2601 
 395   0.0000       0.933122        25.3915 
 396   0.0000       0.934674        25.4338 
 397   0.0000       0.936723        25.4895 
 398   0.0000       0.938033        25.5252 
 399   0.0000       0.939757        25.5721 
 400   0.0000       0.944321        25.6963 
 401   0.0000       0.945952        25.7407 
 402   0.0000       0.949698        25.8426 
 403   0.0000       0.952775        25.9263 
 404   0.0000       0.953273        25.9399 
 405   0.0000       0.955294        25.9949 
 406   0.0000       0.961530        26.1646 
 407   0.0000       0.964709        26.2511 
 408   0.0000       0.967848        26.3365 
 409   0.0000       0.971925        26.4474 
 410   0.0000       0.976635        26.5756 
 411   0.0000       0.977633        26.6027 
 412   0.0000       0.984725        26.7957 
 413   0.0000       0.986035        26.8314 
 414   0.0000       0.989386        26.9226 
 415   0.0000       0.990334        26.9484 
 416   0.0000       0.994741        27.0683 
 417   0.0000       1.002916        27.2907 
 418   0.0000       1.007484        27.4150 
 419   0.0000       1.015125        27.6229 
 420   0.0000       1.021897        27.8072 
 421   0.0000       1.029846        28.0235 
 422   0.0000       1.032597        28.0984 
 423   0.0000       1.038103        28.2482 
 424   0.0000       1.041583        28.3429 
 425   0.0000       1.047087        28.4927 
 426   0.0000       1.051291        28.6071 
 427   0.0000       1.066618        29.0241 
 428   0.0000       1.070255        29.1231 
 429   0.0000       1.071628        29.1605 
 430   0.0000       1.075646        29.2698 
 431   0.0000       1.079326        29.3700 
 432   0.0000       1.084126        29.5006 
 433   0.0000       1.091455        29.7000 
 434   0.0000       1.096123        29.8270 
 435   0.0000       1.099141        29.9091 
 436   0.0000       1.108086        30.1525 
 437   0.0000       1.112046        30.2603 
 438   0.0000       1.116376        30.3781 
 439   0.0000       1.117741        30.4153 
 440   0.0000       1.120090        30.4792 
 441   0.0000       1.124339        30.5948 
 442   0.0000       1.129623        30.7386 
 443   0.0000       1.131881        30.8000 
 444   0.0000       1.134162        30.8621 
 445   0.0000       1.135359        30.8947 
 446   0.0000       1.137035        30.9403 
 447   0.0000       1.142179        31.0803 
 448   0.0000       1.144359        31.1396 
 449   0.0000       1.145616        31.1738 
 450   0.0000       1.148273        31.2461 
 451   0.0000       1.150687        31.3118 
 452   0.0000       1.154634        31.4192 
 453   0.0000       1.157784        31.5049 
 454   0.0000       1.160926        31.5904 
 455   0.0000       1.168643        31.8004 
 456   0.0000       1.174938        31.9717 
 457   0.0000       1.176426        32.0122 
 458   0.0000       1.178027        32.0557 
 459   0.0000       1.186652        32.2904 
 460   0.0000       1.189177        32.3591 
 461   0.0000       1.191628        32.4259 
 462   0.0000       1.204379        32.7728 
 463   0.0000       1.205596        32.8059 
 464   0.0000       1.206851        32.8401 
 465   0.0000       1.210602        32.9422 
 466   0.0000       1.212777        33.0013 
 467   0.0000       1.217284        33.1240 
 468   0.0000       1.223578        33.2953 
 469   0.0000       1.227410        33.3995 
 470   0.0000       1.233494        33.5651 
 471   0.0000       1.235359        33.6158 
 472   0.0000       1.237781        33.6817 
 473   0.0000       1.240819        33.7644 
 474   0.0000       1.242218        33.8025 
 475   0.0000       1.246798        33.9271 
 476   0.0000       1.249052        33.9884 
 477   0.0000       1.250297        34.0223 
 478   0.0000       1.253078        34.0980 
 479   0.0000       1.254627        34.1401 
 480   0.0000       1.256956        34.2035 
 481   0.0000       1.266546        34.4645 
 482   0.0000       1.267860        34.5002 
 483   0.0000       1.272600        34.6292 
 484   0.0000       1.274145        34.6712 
 485   0.0000       1.278678        34.7946 
 486   0.0000       1.281452        34.8701 
 487   0.0000       1.283354        34.9218 
 488   0.0000       1.287851        35.0442 
 489   0.0000       1.290012        35.1030 
 490   0.0000       1.291456        35.1423 
 491   0.0000       1.294567        35.2270 
 492   0.0000       1.302081        35.4314 
 493   0.0000       1.308789        35.6140 
 494   0.0000       1.312697        35.7203 
 495   0.0000       1.314856        35.7790 
 496   0.0000       1.319271        35.8992 
 497   0.0000       1.321593        35.9624 
 498   0.0000       1.325365        36.0650 
 499   0.0000       1.329731        36.1838 
 500   0.0000       1.334391        36.3106 
 501   0.0000       1.338058        36.4104 
 502   0.0000       1.341718        36.5100 
 503   0.0000       1.345326        36.6082 
 504   0.0000       1.348553        36.6960 
 505   0.0000       1.352474        36.8027 
 506   0.0000       1.354188        36.8493 
 507   0.0000       1.356185        36.9037 
 508   0.0000       1.361159        37.0390 
 509   0.0000       1.363813        37.1112 
 510   0.0000       1.364016        37.1168 
 511   0.0000       1.367241        37.2045 
[...]
      pz      :     0.021990  p :     0.079592
      px      :     0.043335
      py      :     0.014267
 77 H s       :     0.888537  s :     0.888537
      pz      :     0.047668  p :     0.078937
      px      :     0.015013
      py      :     0.016256
 78 H s       :     0.888910  s :     0.888910
      pz      :     0.025725  p :     0.078882
      px      :     0.020545
      py      :     0.032613
 79 H s       :     0.909363  s :     0.909363
      pz      :     0.022085  p :     0.086658
      px      :     0.021754
      py      :     0.042818
 80 H s       :     0.869956  s :     0.869956
      pz      :     0.038935  p :     0.084194
      px      :     0.029962
      py      :     0.015297
 81 H s       :     0.887151  s :     0.887151
      pz      :     0.037760  p :     0.083901
      px      :     0.016146
      py      :     0.029995
 82 H s       :     0.915109  s :     0.915109
      pz      :     0.022074  p :     0.086849
      px      :     0.031406
      py      :     0.033369
 83 H s       :     0.872575  s :     0.872575
      pz      :     0.039277  p :     0.084008
      px      :     0.015252
      py      :     0.029478
 84 H s       :     0.886896  s :     0.886896
      pz      :     0.035802  p :     0.083699
      px      :     0.031732
      py      :     0.016165
 85 H s       :     0.893442  s :     0.893442
      pz      :     0.022503  p :     0.079750
      px      :     0.014082
      py      :     0.043166
 86 H s       :     0.890672  s :     0.890672
      pz      :     0.024730  p :     0.078868
      px      :     0.033001
      py      :     0.021137
 87 H s       :     0.890091  s :     0.890091
      pz      :     0.047972  p :     0.078714
      px      :     0.015607
      py      :     0.015135
 88 H s       :     0.913308  s :     0.913308
      pz      :     0.021945  p :     0.086940
      px      :     0.042605
      py      :     0.022390
 89 H s       :     0.872341  s :     0.872341
      pz      :     0.037903  p :     0.083883
      px      :     0.030489
      py      :     0.015491


                      *****************************
                      * MAYER POPULATION ANALYSIS *
                      *****************************

  NA   - Mulliken gross atomic population
  ZA   - Total nuclear charge
  QA   - Mulliken gross atomic charge
  VA   - Mayer's total valence
  BVA  - Mayer's bonded valence
  FA   - Mayer's free valence

  ATOM       NA         ZA         QA         VA         BVA        FA
  0 C      5.7927     6.0000     0.2073     3.8304     3.8304    -0.0000
  1 N      7.4458     7.0000    -0.4458     3.3581     3.3581    -0.0000
  2 C      6.0634     6.0000    -0.0634     3.9186     3.9186    -0.0000
  3 N      7.3368     7.0000    -0.3368     3.4477     3.4477     0.0000
  4 C      6.0597     6.0000    -0.0597     3.9830     3.9830    -0.0000
  5 N      7.5632     7.0000    -0.5632     3.0865     3.0865     0.0000
  6 C      6.0774     6.0000    -0.0774     3.9991     3.9991     0.0000
  7 N      7.3383     7.0000    -0.3383     3.4403     3.4403    -0.0000
  8 C      5.7940     6.0000     0.2060     3.8319     3.8319    -0.0000
  9 N      7.5631     7.0000    -0.5631     3.0824     3.0824    -0.0000
 10 C      5.8841     6.0000     0.1159     3.8979     3.8979     0.0000
 11 N      7.4376     7.0000    -0.4376     3.3829     3.3829     0.0000
 12 C      6.0750     6.0000    -0.0750     3.9183     3.9183     0.0000
 13 N      7.4376     7.0000    -0.4376     3.3896     3.3896    -0.0000
 14 C      5.7556     6.0000     0.2444     3.7853     3.7853     0.0000
 15 N      7.4407     7.0000    -0.4407     3.3723     3.3723    -0.0000
 16 C      5.7683     6.0000     0.2317     3.7895     3.7895    -0.0000
 17 C      6.0818     6.0000    -0.0818     4.0026     4.0026     0.0000
 18 C      6.2162     6.0000    -0.2162     3.7623     3.7623    -0.0000
 19 C      5.7589     6.0000     0.2411     3.8642     3.8642    -0.0000
 20 C      5.7908     6.0000     0.2092     3.8262     3.8262     0.0000
 21 C      6.0885     6.0000    -0.0885     3.9079     3.9079    -0.0000
 22 C      6.0880     6.0000    -0.0880     3.9836     3.9836    -0.0000
 23 C      6.0466     6.0000    -0.0466     3.9908     3.9908    -0.0000
 24 C      5.7971     6.0000     0.2029     3.8229     3.8229    -0.0000
 25 C      5.8860     6.0000     0.1140     3.8902     3.8902     0.0000
 26 C      6.0720     6.0000    -0.0720     3.9080     3.9080    -0.0000
 27 C      5.7797     6.0000     0.2203     3.8794     3.8794    -0.0000
 28 C      6.0546     6.0000    -0.0546     3.9879     3.9879    -0.0000
 29 C      6.1842     6.0000    -0.1842     3.7372     3.7372     0.0000
 30 C      5.7621     6.0000     0.2379     3.7950     3.7950     0.0000
 31 C      5.7852     6.0000     0.2148     3.8250     3.8250     0.0000
 32 C      6.0648     6.0000    -0.0648     3.9187     3.9187    -0.0000
 33 C      6.0768     6.0000    -0.0768     3.9823     3.9823     0.0000
 34 C      6.0506     6.0000    -0.0506     3.9901     3.9901     0.0000
 35 C      5.7903     6.0000     0.2097     3.8235     3.8235    -0.0000
 36 C      5.8872     6.0000     0.1128     3.8879     3.8879     0.0000
 37 C      6.0664     6.0000    -0.0664     3.9175     3.9175    -0.0000
 38 C      5.7646     6.0000     0.2354     3.7988     3.7988     0.0000
 39 C      6.0603     6.0000    -0.0603     3.9894     3.9894    -0.0000
 40 C      6.1879     6.0000    -0.1879     3.7380     3.7380     0.0000
 41 C      5.7774     6.0000     0.2226     3.8825     3.8825    -0.0000
 42 C      5.7979     6.0000     0.2021     3.8272     3.8272    -0.0000
 43 C      6.0731     6.0000    -0.0731     3.9026     3.9026    -0.0000
 44 C      6.0889     6.0000    -0.0889     3.9849     3.9849    -0.0000
 45 C      6.0543     6.0000    -0.0543     3.9929     3.9929     0.0000
 46 C      5.7947     6.0000     0.2053     3.8261     3.8261     0.0000
 47 C      5.8845     6.0000     0.1155     3.8934     3.8934    -0.0000
 48 C      6.0725     6.0000    -0.0725     3.9054     3.9054    -0.0000
 49 C      5.7710     6.0000     0.2290     3.8858     3.8858     0.0000
 50 C      6.0516     6.0000    -0.0516     3.9903     3.9903    -0.0000
 51 C      6.1891     6.0000    -0.1891     3.7364     3.7364     0.0000
 52 H      0.9495     1.0000     0.0505     0.9853     0.9853    -0.0000
 53 H      1.0145     1.0000    -0.0145     0.9987     0.9987    -0.0000
 54 H      0.9500     1.0000     0.0500     1.0094     1.0094     0.0000
 55 H      0.9500     1.0000     0.0500     0.9861     0.9861     0.0000
 56 H      0.9431     1.0000     0.0569     0.9709     0.9709     0.0000
 57 H      0.9452     1.0000     0.0548     0.9838     0.9838    -0.0000
 58 H      0.9463     1.0000     0.0537     0.9852     0.9852    -0.0000
 59 H      1.0088     1.0000    -0.0088     1.0002     1.0002     0.0000
 60 H      0.9540     1.0000     0.0460     1.0086     1.0086     0.0000
 61 H      0.8275     1.0000     0.1725     1.0424     1.0424    -0.0000
 62 H      0.8267     1.0000     0.1733     1.0434     1.0434     0.0000
 63 H      0.9437     1.0000     0.0563     0.9854     0.9854    -0.0000
 64 H      1.0159     1.0000    -0.0159     0.9969     0.9969    -0.0000
 65 H      0.9526     1.0000     0.0474     1.0090     1.0090     0.0000
 66 H      0.9427     1.0000     0.0573     0.9851     0.9851     0.0000
 67 H      0.9374     1.0000     0.0626     0.9720     0.9720     0.0000
 68 H      0.9420     1.0000     0.0580     0.9868     0.9868     0.0000
 69 H      0.9417     1.0000     0.0583     0.9829     0.9829    -0.0000
 70 H      1.0254     1.0000    -0.0254     0.9941     0.9941     0.0000
 71 H      0.9529     1.0000     0.0471     1.0065     1.0065    -0.0000
 72 H      0.9404     1.0000     0.0596     0.9847     0.9847     0.0000
 73 H      1.0129     1.0000    -0.0129     0.9992     0.9992    -0.0000
 74 H      0.9504     1.0000     0.0496     1.0099     1.0099    -0.0000
 75 H      0.9413     1.0000     0.0587     0.9852     0.9852     0.0000
 76 H      0.9353     1.0000     0.0647     0.9717     0.9717     0.0000
 77 H      0.9398     1.0000     0.0602     0.9852     0.9852     0.0000
 78 H      0.9405     1.0000     0.0595     0.9848     0.9848     0.0000
 79 H      1.0146     1.0000    -0.0146     0.9990     0.9990    -0.0000
 80 H      0.9499     1.0000     0.0501     1.0071     1.0071    -0.0000
 81 H      0.9464     1.0000     0.0536     0.9855     0.9855    -0.0000
 82 H      1.0236     1.0000    -0.0236     0.9941     0.9941     0.0000
 83 H      0.9569     1.0000     0.0431     1.0090     1.0090    -0.0000
 84 H      0.9464     1.0000     0.0536     0.9855     0.9855    -0.0000
 85 H      0.9404     1.0000     0.0596     0.9716     0.9716     0.0000
 86 H      0.9437     1.0000     0.0563     0.9840     0.9840    -0.0000
 87 H      0.9432     1.0000     0.0568     0.9856     0.9856    -0.0000
 88 H      1.0200     1.0000    -0.0200     0.9949     0.9949     0.0000
 89 H      0.9555     1.0000     0.0445     1.0072     1.0072     0.0000

  Mayer bond orders larger than 0.100000
B(  0-C ,  1-N ) :   1.1081 B(  0-C , 17-C ) :   1.6544 B(  0-C , 52-H ) :   0.9693 
B(  1-N ,  8-C ) :   1.1061 B(  1-N , 10-C ) :   0.9661 B(  2-C , 12-C ) :   1.5294 
B(  2-C , 16-C ) :   1.3323 B(  2-C , 53-H ) :   0.9773 B(  3-N , 14-C ) :   1.2074 
B(  3-N , 16-C ) :   1.1946 B(  3-N , 61-H ) :   0.8985 B(  4-C ,  6-C ) :   1.2472 
B(  4-C , 17-C ) :   1.2501 B(  4-C , 18-C ) :   1.3178 B(  5-N , 19-C ) :   1.4288 
B(  5-N , 27-C ) :   1.3974 B(  6-C ,  8-C ) :   1.6566 B(  6-C , 54-H ) :   0.9694 
B(  7-N , 30-C ) :   1.1945 B(  7-N , 38-C ) :   1.1990 B(  7-N , 62-H ) :   0.8980 
B(  8-C , 55-H ) :   0.9695 B(  9-N , 41-C ) :   1.4057 B(  9-N , 49-C ) :   1.4169 
B( 10-C , 56-H ) :   0.9765 B( 10-C , 57-H ) :   0.9819 B( 10-C , 58-H ) :   0.9838 
B( 11-N , 20-C ) :   1.1264 B( 11-N , 24-C ) :   1.1191 B( 11-N , 25-C ) :   0.9586 
B( 12-C , 14-C ) :   1.3334 B( 12-C , 59-H ) :   0.9758 B( 13-N , 31-C ) :   1.1315 
B( 13-N , 35-C ) :   1.1262 B( 13-N , 36-C ) :   0.9558 B( 14-C , 18-C ) :   1.1769 
B( 15-N , 42-C ) :   1.1142 B( 15-N , 46-C ) :   1.1166 B( 15-N , 47-C ) :   0.9619 
B( 16-C , 51-C ) :   1.1919 B( 17-C , 60-H ) :   0.9703 B( 18-C , 19-C ) :   1.1920 
B( 19-C , 21-C ) :   1.2175 B( 20-C , 28-C ) :   1.6242 B( 20-C , 63-H ) :   0.9703 
B( 21-C , 26-C ) :   1.6373 B( 21-C , 64-H ) :   0.9706 B( 22-C , 23-C ) :   1.2855 
B( 22-C , 28-C ) :   1.2722 B( 22-C , 29-C ) :   1.2269 B( 23-C , 24-C ) :   1.6183 
B( 23-C , 65-H ) :   0.9708 B( 24-C , 66-H ) :   0.9692 B( 25-C , 67-H ) :   0.9761 
B( 25-C , 68-H ) :   0.9829 B( 25-C , 69-H ) :   0.9821 B( 26-C , 27-C ) :   1.2163 
B( 26-C , 70-H ) :   0.9728 B( 27-C , 29-C ) :   1.2288 B( 28-C , 71-H ) :   0.9715 
B( 29-C , 30-C ) :   1.2160 B( 30-C , 32-C ) :   1.3073 B( 31-C , 39-C ) :   1.6216 
B( 31-C , 72-H ) :   0.9693 B( 32-C , 37-C ) :   1.5510 B( 32-C , 73-H ) :   0.9780 
B( 33-C , 34-C ) :   1.2818 B( 33-C , 39-C ) :   1.2758 B( 33-C , 40-C ) :   1.2338 
B( 34-C , 35-C ) :   1.6187 B( 34-C , 74-H ) :   0.9703 B( 35-C , 75-H ) :   0.9693 
B( 36-C , 76-H ) :   0.9764 B( 36-C , 77-H ) :   0.9820 B( 36-C , 78-H ) :   0.9829 
B( 37-C , 38-C ) :   1.3094 B( 37-C , 79-H ) :   0.9775 B( 38-C , 40-C ) :   1.2118 
B( 39-C , 80-H ) :   0.9713 B( 40-C , 41-C ) :   1.2262 B( 41-C , 43-C ) :   1.2064 
B( 42-C , 50-C ) :   1.6330 B( 42-C , 81-H ) :   0.9696 B( 43-C , 48-C ) :   1.6455 
B( 43-C , 82-H ) :   0.9734 B( 44-C , 45-C ) :   1.2697 B( 44-C , 50-C ) :   1.2684 
B( 44-C , 51-C ) :   1.2552 B( 45-C , 46-C ) :   1.6326 B( 45-C , 83-H ) :   0.9713 
B( 46-C , 84-H ) :   0.9702 B( 47-C , 85-H ) :   0.9761 B( 47-C , 86-H ) :   0.9828 
B( 47-C , 87-H ) :   0.9826 B( 48-C , 49-C ) :   1.2070 B( 48-C , 88-H ) :   0.9741 
B( 49-C , 51-C ) :   1.2262 B( 50-C , 89-H ) :   0.9713 

-------
TIMINGS
-------

Total SCF time: 0 days 0 hours 22 min 17 sec 

Total time                  ....    1337.476 sec
Sum of individual times     ....    1333.636 sec  ( 99.7%)

Fock matrix formation       ....    1313.499 sec  ( 98.2%)
Diagonalization             ....       6.689 sec  (  0.5%)
Density matrix formation    ....       0.362 sec  (  0.0%)
Population analysis         ....       0.423 sec  (  0.0%)
Initial guess               ....       1.913 sec  (  0.1%)
Orbital Transformation      ....       0.000 sec  (  0.0%)
Orbital Orthonormalization  ....       0.000 sec  (  0.0%)
DIIS solution               ....       2.905 sec  (  0.2%)
SOSCF solution              ....       6.828 sec  (  0.5%)

Maximum memory used throughout the entire SCF-calculation: 302.6 MB


           ************************************************************
           *        Program running with 16 parallel MPI-processes    *
           *              working on a common directory               *
           ************************************************************

------------------------------------------------------------------------------
                                ORCA  MP2 
------------------------------------------------------------------------------

Freezing NCore=104 chemical core electrons

----------
MP2 ENERGY (disk based algorithm)
----------

Dimension of the basis                    ...  918
Memory devoted to MP2                     ... 2000 MB   
Data format for buffers                   ... DOUBLE
Compression type for matrix containers    ... UNCOMPRESSED

-------------------------------
PARTIAL EXCHANGE TRANSFORMATION
-------------------------------

Transformation type                        ... one-operator
Generation of integrals (i,mue|j,nue)      ... ON
Generation of integrals (mue,kappa|nue,tau)... OFF
Generation of integrals (i,mue|a,nue)      ... OFF
Dimension of the basis                     ...  918
Number of internal MOs                     ...  127 (  52- 178)
Pair cutoff                                ... 2.500e-12 Eh
Number of AO pairs in the trafo            ... 421821
Total Number of distinct AO pairs          ... 421821
Memory devoted for trafo                   ... 2000.0 MB 
Max. Number of MO pairs treated together   ...  311      
Number Format for Storage                  ... Double (8 Byte)
Integral package used                      ... LIBINT

Starting integral evaluation:
    ... done with AO integral generation
Closing buffer AOK     (38.26 GB; CompressionRatio= 1.32)
Collecting buffer AOK 
Number of MO pairs included in the trafo   ... 8128
------------------------
SORTING OF (i,mue|j,nue)
------------------------

IBATCH = 1 of  2
IBATCH = 2 of  2
Closing buffer KAO     (51.03 GB; CompressionRatio= 1.00)
Collecting buffer KAO 
N(AO-Batches) Done                         ...  85408481 
N(AO-Batches) Skipped                      ...  82353993 
N(IJ)-pairs Skipped                        ...         0 
TOTAL TIME for half transformation         ...  2906.457 sec
AO-integral generation                     ...   180.292 sec
Half transformation                        ...   318.287 sec
K-integral sorting                         ...  2271.451 sec
Process 13:   Internal MO 156
Process 10:   Internal MO 132
Process  1:   Internal MO  60
Process  4:   Internal MO  84
Process  7:   Internal MO 108

Finished integral transformation - now doing MP2 part

OPERATOR COMBINATION   0   0: ij=( 52..178, 52..178)
Process  0:   Internal MO  54
Process  2:   Internal MO  69
Process  0:   Internal MO  57
Process  1:   Internal MO  63
Process  5:   Internal MO  93
Process  3:   Internal MO  78
Process  2:   Internal MO  72
Process  1:   Internal MO  66
Process  8:   Internal MO 117
Process  6:   Internal MO 102
Process 14:   Internal MO 165
Process  4:   Internal MO  87
Process  9:   Internal MO 126
Process  3:   Internal MO  81
Process  2:   Internal MO  75
Process  7:   Internal MO 111
Process 12:   Internal MO 150
Process 11:   Internal MO 141
Process 10:   Internal MO 135
Process  5:   Internal MO  96
Process  4:   Internal MO  90
Process 15:   Internal MO 174
Process  6:   Internal MO 105
Process  8:   Internal MO 120
Process  9:   Internal MO 129
Process  7:   Internal MO 114
Process  5:   Internal MO  99
Process 13:   Internal MO 159
Process 12:   Internal MO 153
Process 11:   Internal MO 144
Process 14:   Internal MO 168
Process 10:   Internal MO 138
Process  8:   Internal MO 123
Process 15:   Internal MO 177
Process 11:   Internal MO 147
Process 13:   Internal MO 162
Process 14:   Internal MO 171
-----------------------------------------------
 MP2 CORRELATION ENERGY   :     -7.289529232 Eh
-----------------------------------------------


-------
TIMINGS
-------
Total time                : 3203.522 sec
Integral trafo            : 2908.561 sec ( 90.8%)
K(i,j)                    :    6.239 sec (  0.2%)
T(i,j)                    :    0.161 sec (  0.0%)

---------------------------------------
MP2 TOTAL ENERGY:    -2130.913562863 Eh
---------------------------------------

Maximum memory used throughout the entire MP2-calculation: 2275.2 MB

-------------------------   --------------------
FINAL SINGLE POINT ENERGY     -2130.913562863260
-------------------------   --------------------


                            ***************************************
                            *     ORCA property calculations      *
                            ***************************************


  WARNING: The energy has been calculated at the MP2 level but the densities
           used in the property calculations are still SCF densities
           MP2 response densities have not been calculated 
           use %mp2 Density relaxed end
           or  %mp2 Density unrelaxed end

                                    ---------------------
                                    Active property flags
                                    ---------------------
   (+) Dipole Moment


------------------------------------------------------------------------------
                       ORCA ELECTRIC PROPERTIES CALCULATION
------------------------------------------------------------------------------

Dipole Moment Calculation                       ... on
Quadrupole Moment Calculation                   ... off
Polarizability Calculation                      ... off
GBWName                                         ... /scratch/allen/tmpyp4_amber_gaff2/conf1/conf1/Conf56.orca.gbw
Electron density                                ... /scratch/allen/tmpyp4_amber_gaff2/conf1/conf1/Conf56.orca.scfp
The origin for moment calculation is the CENTER OF MASS  = ( 0.000263, -0.003960  0.003922)

-------------
DIPOLE MOMENT
-------------
                                X             Y             Z
Electronic contribution:      0.49402      -1.47292      -0.13615
Nuclear contribution   :     -0.04898       0.15155       0.16812
                        -----------------------------------------
Total Dipole Moment    :      0.44504      -1.32136       0.03197
                        -----------------------------------------
Magnitude (a.u.)       :      1.39466
Magnitude (Debye)      :      3.54495



--------------------
Rotational spectrum 
--------------------
 
Rotational constants in cm-1:     0.001500     0.001474     0.000762 
Rotational constants in MHz :    44.956963    44.201669    22.837021 

 Dipole components along the rotational axes: 
x,y,z [a.u.] :     0.833059     1.118073     0.031734 
x,y,z [Debye]:     2.117469     2.841916     0.080663 

 

Timings for individual modules:

Sum of individual times         ...     4563.687 sec (=  76.061 min)
GTO integral calculation        ...        2.671 sec (=   0.045 min)   0.1 %
SCF iterations                  ...     1338.425 sec (=  22.307 min)  29.3 %
MP2 module                      ...     3222.591 sec (=  53.710 min)  70.6 %
                             ****ORCA TERMINATED NORMALLY****
TOTAL RUN TIME: 0 days 1 hours 16 minutes 7 seconds 49 msec
# of primitive gaussian functions

