
                                 *****************
                                 * O   R   C   A *
                                 *****************

                                            #,                                       
                                            ###                                      
                                            ####                                     
                                            #####                                    
                                            ######                                   
                                           ########,                                 
                                     ,,################,,,,,                         
                               ,,#################################,,                 
                          ,,##########################################,,             
                       ,#########################################, ''#####,          
                    ,#############################################,,   '####,        
                  ,##################################################,,,,####,       
                ,###########''''           ''''###############################       
              ,#####''   ,,,,##########,,,,          '''####'''          '####       
            ,##' ,,,,###########################,,,                        '##       
           ' ,,###''''                  '''############,,,                           
         ,,##''                                '''############,,,,        ,,,,,,###''
      ,#''                                            '''#######################'''  
     '                                                          ''''####''''         
             ,#######,   #######,   ,#######,      ##                                
            ,#'     '#,  ##    ##  ,#'     '#,    #''#        ######   ,####,        
            ##       ##  ##   ,#'  ##            #'  '#       #        #'  '#        
            ##       ##  #######   ##           ,######,      #####,   #    #        
            '#,     ,#'  ##    ##  '#,     ,#' ,#      #,         ##   #,  ,#        
             '#######'   ##     ##  '#######'  #'      '#     #####' # '####'        



                  #######################################################
                  #                        -***-                        #
                  #          Department of theory and spectroscopy      #
                  #    Directorship and core code : Frank Neese         #
                  #        Max Planck Institute fuer Kohlenforschung    #
                  #                Kaiser Wilhelm Platz 1               #
                  #                 D-45470 Muelheim/Ruhr               #
                  #                      Germany                        #
                  #                                                     #
                  #                  All rights reserved                #
                  #                        -***-                        #
                  #######################################################


                         Program Version 5.0.4 -  RELEASE  -


 With contributions from (in alphabetic order):
   Daniel Aravena         : Magnetic Suceptibility
   Michael Atanasov       : Ab Initio Ligand Field Theory (pilot matlab implementation)
   Alexander A. Auer      : GIAO ZORA, VPT2 properties, NMR spectrum
   Ute Becker             : Parallelization
   Giovanni Bistoni       : ED, misc. LED, open-shell LED, HFLD
   Martin Brehm           : Molecular dynamics
   Dmytro Bykov           : SCF Hessian
   Vijay G. Chilkuri      : MRCI spin determinant printing, contributions to CSF-ICE
   Dipayan Datta          : RHF DLPNO-CCSD density
   Achintya Kumar Dutta   : EOM-CC, STEOM-CC
   Dmitry Ganyushin       : Spin-Orbit,Spin-Spin,Magnetic field MRCI
   Miquel Garcia          : C-PCM and meta-GGA Hessian, CC/C-PCM, Gaussian charge scheme
   Yang Guo               : DLPNO-NEVPT2, F12-NEVPT2, CIM, IAO-localization
   Andreas Hansen         : Spin unrestricted coupled pair/coupled cluster methods
   Benjamin Helmich-Paris : MC-RPA, TRAH-SCF, COSX integrals
   Lee Huntington         : MR-EOM, pCC
   Robert Izsak           : Overlap fitted RIJCOSX, COSX-SCS-MP3, EOM
   Marcus Kettner         : VPT2
   Christian Kollmar      : KDIIS, OOCD, Brueckner-CCSD(T), CCSD density, CASPT2, CASPT2-K
   Simone Kossmann        : Meta GGA functionals, TD-DFT gradient, OOMP2, MP2 Hessian
   Martin Krupicka        : Initial AUTO-CI
   Lucas Lang             : DCDCAS
   Marvin Lechner         : AUTO-CI (C++ implementation), FIC-MRCC
   Dagmar Lenk            : GEPOL surface, SMD
   Dimitrios Liakos       : Extrapolation schemes; Compound Job, initial MDCI parallelization
   Dimitrios Manganas     : Further ROCIS development; embedding schemes
   Dimitrios Pantazis     : SARC Basis sets
   Anastasios Papadopoulos: AUTO-CI, single reference methods and gradients
   Taras Petrenko         : DFT Hessian,TD-DFT gradient, ASA, ECA, R-Raman, ABS, FL, XAS/XES, NRVS
   Peter Pinski           : DLPNO-MP2, DLPNO-MP2 Gradient
   Christoph Reimann      : Effective Core Potentials
   Marius Retegan         : Local ZFS, SOC
   Christoph Riplinger    : Optimizer, TS searches, QM/MM, DLPNO-CCSD(T), (RO)-DLPNO pert. Triples
   Tobias Risthaus        : Range-separated hybrids, TD-DFT gradient, RPA, STAB
   Michael Roemelt        : Original ROCIS implementation
   Masaaki Saitow         : Open-shell DLPNO-CCSD energy and density
   Barbara Sandhoefer     : DKH picture change effects
   Avijit Sen             : IP-ROCIS
   Kantharuban Sivalingam : CASSCF convergence, NEVPT2, FIC-MRCI
   Bernardo de Souza      : ESD, SOC TD-DFT
   Georgi Stoychev        : AutoAux, RI-MP2 NMR, DLPNO-MP2 response
   Willem Van den Heuvel  : Paramagnetic NMR
   Boris Wezisla          : Elementary symmetry handling
   Frank Wennmohs         : Technical directorship


 We gratefully acknowledge several colleagues who have allowed us to
 interface, adapt or use parts of their codes:
   Stefan Grimme, W. Hujo, H. Kruse, P. Pracht,  : VdW corrections, initial TS optimization,
                  C. Bannwarth, S. Ehlert          DFT functionals, gCP, sTDA/sTD-DF
   Ed Valeev, F. Pavosevic, A. Kumar             : LibInt (2-el integral package), F12 methods
   Garnet Chan, S. Sharma, J. Yang, R. Olivares  : DMRG
   Ulf Ekstrom                                   : XCFun DFT Library
   Mihaly Kallay                                 : mrcc  (arbitrary order and MRCC methods)
   Jiri Pittner, Ondrej Demel                    : Mk-CCSD
   Frank Weinhold                                : gennbo (NPA and NBO analysis)
   Christopher J. Cramer and Donald G. Truhlar   : smd solvation model
   Lars Goerigk                                  : TD-DFT with DH, B97 family of functionals
   V. Asgeirsson, H. Jonsson                     : NEB implementation
   FAccTs GmbH                                   : IRC, NEB, NEB-TS, DLPNO-Multilevel, CI-OPT
                                                   MM, QMMM, 2- and 3-layer-ONIOM, Crystal-QMMM,
                                                   LR-CPCM, SF, NACMEs, symmetry and pop. for TD-DFT,
                                                   nearIR, NL-DFT gradient (VV10), updates on ESD,
                                                   ML-optimized integration grids
   S Lehtola, MJT Oliveira, MAL Marques          : LibXC Library
   Liviu Ungur et al                             : ANISO software


 Your calculation uses the libint2 library for the computation of 2-el integrals
 For citations please refer to: http://libint.valeyev.net

 Your ORCA version has been built with support for libXC version: 5.1.0
 For citations please refer to: https://tddft.org/programs/libxc/

 This ORCA versions uses:
   CBLAS   interface :  Fast vector & matrix operations
   LAPACKE interface :  Fast linear algebra routines
   SCALAPACK package :  Parallel linear algebra routines
   Shared memory     :  Shared parallel matrices
   BLAS/LAPACK       :  OpenBLAS 0.3.15  USE64BITINT DYNAMIC_ARCH NO_AFFINITY Sandybridge SINGLE_THREADED
        Core in use  :  Sandybridge
   Copyright (c) 2011-2014, The OpenBLAS Project


================================================================================

----- Orbital basis set information -----
Your calculation utilizes the basis: cc-pVDZ 
       H, B-Ne : Obtained from the ccRepo (grant-hill.group.shef.ac.uk/ccrepo) Feb. 2017
                 T. H. Dunning, Jr., J. Chem. Phys. 90, 1007 (1989)
            He : Obtained from the ccRepo (grant-hill.group.shef.ac.uk/ccrepo) Feb. 2017
                 D. E. Woon, T. H. Dunning, Jr., J. Chem. Phys. 100, 2975 (1994)
  Li-Be, Na-Mg : Obtained from the ccRepo (grant-hill.group.shef.ac.uk/ccrepo) Feb. 2017
                 B. P. Prascher, D. E. Woon, K. A. Peterson, T. H. Dunning, Jr., A. K. Wilson, Theor. Chem. Acc. 128, 69 (2011)
         Al-Ar : Obtained from the ccRepo (grant-hill.group.shef.ac.uk/ccrepo) Feb. 2017
                 D. E. Woon, T. H. Dunning, Jr., J. Chem. Phys. 98, 1358 (1993)
            Ca : Obtained from the Peterson Research Group Website (tyr0.chem.wsu.edu/~kipeters) Feb. 2017
                 J. Koput, K. A. Peterson, J. Phys. Chem. 106, 9595 (2002)
         Sc-Zn : Obtained from the ccRepo (grant-hill.group.shef.ac.uk/ccrepo) Feb. 2017
                 N. B. Balabanov, K. A. Peterson, J. Chem. Phys. 123, 064107 (2005)
                 N. B. Balabanov, K. A. Peterson, J. Chem. Phys. 125, 074110 (2006)
         Ga-Kr : Obtained from the ccRepo (grant-hill.group.shef.ac.uk/ccrepo) Feb. 2017
                 A. K. Wilson, D. E. Woon, K. A. Peterson, T. H. Dunning, Jr., J. Chem. Phys. 110, 7667 (1999)

================================================================================
                                        WARNINGS
                       Please study these warnings very carefully!
================================================================================


WARNING: No MP2 level density has been requested!
         To caclulate MP2 level properties use
         %mp2 Density relaxed end
         or
         %mp2 Density unrelaxed end

WARNING: Post HF methods need fully converged wavefunctions
  ===> : Setting SCFConvForced true
         You can overwrite this default with %scf ConvForced false 


INFO   : the flag for use of the SHARK integral package has been found!

================================================================================
                                       INPUT FILE
================================================================================
NAME = /scratch/allen/tmpyp4_amber_gaff2/2.Mdgx/conf11/conf11/Conf39.orca
|  1> ! PAL2
|  2> ! mp2 cc-pvdz TightSCF  NoKeepInts
|  3> 
|  4> %scf
|  5>   MaxCore 2000
|  6> end
|  7> %mp2
|  8>   MaxCore 2000
|  9> end
| 10> * xyz 0 1
| 11>    C       -3.22700         6.37700        -0.60500
| 12>    C        1.47400         4.04100         0.05700
| 13>    C       -2.80200         4.09300         0.04900
| 14>    C       -3.99500         4.13600         0.78800
| 15>    C       -4.75900         5.28600         0.80400
| 16>    C       -5.23100         7.59000         0.12400
| 17>    C        0.13200         4.30700         0.06100
| 18>    C       -0.56900         3.05600         0.04700
| 19>    C        1.64900         2.61800         0.02300
| 20>    C       -2.43200         5.24800        -0.65700
| 21>    N       -4.37000         6.38600         0.11700
| 22>    N        0.38800         2.06700         0.02500
| 23>    N       -2.01000         0.39500        -0.07500
| 24>    N       -0.38800        -2.07400        -0.02700
| 25>    N        2.01000        -0.40100         0.06500
| 26>    C       -1.96000         2.86100         0.02400
| 27>    C       -2.62300         1.61500        -0.01800
| 28>    C       -5.57300        -4.32900         1.06600
| 29>    C       -4.07300         1.47100         0.05600
| 30>    C       -4.10600        -2.75600        -0.02600
| 31>    C       -4.99500        -2.75700        -1.11100
| 32>    C       -6.13200        -3.54200        -1.07600
| 33>    C       -7.65100        -5.11300         0.04000
| 34>    C       -4.32400         0.14100         0.03700
| 35>    C       -3.02500        -0.52000        -0.04800
| 36>    C       -4.42200        -3.56600         1.07500
| 37>    N       -6.40700        -4.31300         0.00100
| 38>    C       -2.86700        -1.92200        -0.04000
| 39>    C       -1.65000        -2.62400        -0.02700
| 40>    C        3.56800        -6.14200        -1.04000
| 41>    C       -1.47600        -4.04900        -0.03400
| 42>    C        2.80300        -4.09900        -0.00800
| 43>    C        3.65700        -4.38400         1.06900
| 44>    C        4.42700        -5.53000         1.05900
| 45>    C        5.24500        -7.58800         0.01400
| 46>    C       -0.13400        -4.31500        -0.02200
| 47>    C        0.56800        -3.06400        -0.02700
| 48>    C        2.77500        -5.01200        -1.07400
| 49>    N        4.37600        -6.39100         0.01700
| 50>    C        1.95900        -2.86900        -0.00900
| 51>    C        2.62100        -1.62200         0.00900
| 52>    C        5.54300         4.33900        -1.13000
| 53>    C        4.07000        -1.47900        -0.09400
| 54>    C        4.10400         2.75100        -0.02100
| 55>    C        5.02700         2.72900         1.03600
| 56>    C        6.16600         3.50900         0.97800
| 57>    C        7.61900         5.15300        -0.11500
| 58>    C        4.32100        -0.14800        -0.09200
| 59>    C        3.02500         0.51400         0.01500
| 60>    C        4.38700         3.58200        -1.11500
| 61>    C        2.86600         1.91600         0.01300
| 62>    N        6.41300         4.29600        -0.09500
| 63>    H       -2.97400         7.29400        -1.12300
| 64>    H        2.27400         4.76600         0.08100
| 65>    H       -4.33800         3.27400         1.34500
| 66>    H       -5.68900         5.36400         1.35100
| 67>    H       -5.98400         7.49300        -0.66100
| 68>    H       -5.71300         7.67100         1.09800
| 69>    H       -4.60900         8.46600        -0.05900
| 70>    H       -0.33200         5.28200         0.06900
| 71>    H       -1.51500         5.28200        -1.23400
| 72>    H        0.18200         1.07200         0.00500
| 73>    H       -0.18300        -1.08000        -0.02100
| 74>    H       -5.86400        -4.96200         1.89500
| 75>    H       -4.79400         2.27200         0.13900
| 76>    H       -4.80000        -2.16000        -1.99400
| 77>    H       -6.84100        -3.58200        -1.89300
| 78>    H       -8.42800        -4.53600         0.54600
| 79>    H       -7.95600        -5.33700        -0.98100
| 80>    H       -7.45600        -6.03700         0.58400
| 81>    H       -5.28700        -0.34400         0.10000
| 82>    H       -3.78000        -3.60100         1.94700
| 83>    H        3.58700        -6.86800        -1.84300
| 84>    H       -2.27600        -4.77400        -0.05000
| 85>    H        3.71400        -3.72400         1.92600
| 86>    H        5.09200        -5.79500         1.87100
| 87>    H        6.20500        -7.32900        -0.43900
| 88>    H        5.39300        -7.91700         1.04200
| 89>    H        4.75900        -8.37300        -0.56400
| 90>    H        0.32900        -5.29000        -0.00800
| 91>    H        2.14600        -4.84200        -1.94000
| 92>    H        5.80800         4.98600        -1.95600
| 93>    H        4.78800        -2.28100        -0.18500
| 94>    H        4.86000         2.11400         1.91200
| 95>    H        6.90100         3.53100         1.77200
| 96>    H        7.38300         6.10900         0.35600
| 97>    H        8.41400         4.65200         0.43500
| 98>    H        7.92100         5.31000        -1.15000
| 99>    H        5.28300         0.33600        -0.17900
|100>    H        3.72000         3.63200        -1.96700
|101> *
|102> 
|103>                          ****END OF INPUT****
================================================================================

                       ****************************
                       * Single Point Calculation *
                       ****************************

---------------------------------
CARTESIAN COORDINATES (ANGSTROEM)
---------------------------------
  C     -3.227000    6.377000   -0.605000
  C      1.474000    4.041000    0.057000
  C     -2.802000    4.093000    0.049000
  C     -3.995000    4.136000    0.788000
  C     -4.759000    5.286000    0.804000
  C     -5.231000    7.590000    0.124000
  C      0.132000    4.307000    0.061000
  C     -0.569000    3.056000    0.047000
  C      1.649000    2.618000    0.023000
  C     -2.432000    5.248000   -0.657000
  N     -4.370000    6.386000    0.117000
  N      0.388000    2.067000    0.025000
  N     -2.010000    0.395000   -0.075000
  N     -0.388000   -2.074000   -0.027000
  N      2.010000   -0.401000    0.065000
  C     -1.960000    2.861000    0.024000
  C     -2.623000    1.615000   -0.018000
  C     -5.573000   -4.329000    1.066000
  C     -4.073000    1.471000    0.056000
  C     -4.106000   -2.756000   -0.026000
  C     -4.995000   -2.757000   -1.111000
  C     -6.132000   -3.542000   -1.076000
  C     -7.651000   -5.113000    0.040000
  C     -4.324000    0.141000    0.037000
  C     -3.025000   -0.520000   -0.048000
  C     -4.422000   -3.566000    1.075000
  N     -6.407000   -4.313000    0.001000
  C     -2.867000   -1.922000   -0.040000
  C     -1.650000   -2.624000   -0.027000
  C      3.568000   -6.142000   -1.040000
  C     -1.476000   -4.049000   -0.034000
  C      2.803000   -4.099000   -0.008000
  C      3.657000   -4.384000    1.069000
  C      4.427000   -5.530000    1.059000
  C      5.245000   -7.588000    0.014000
  C     -0.134000   -4.315000   -0.022000
  C      0.568000   -3.064000   -0.027000
  C      2.775000   -5.012000   -1.074000
  N      4.376000   -6.391000    0.017000
  C      1.959000   -2.869000   -0.009000
  C      2.621000   -1.622000    0.009000
  C      5.543000    4.339000   -1.130000
  C      4.070000   -1.479000   -0.094000
  C      4.104000    2.751000   -0.021000
  C      5.027000    2.729000    1.036000
  C      6.166000    3.509000    0.978000
  C      7.619000    5.153000   -0.115000
  C      4.321000   -0.148000   -0.092000
  C      3.025000    0.514000    0.015000
  C      4.387000    3.582000   -1.115000
  C      2.866000    1.916000    0.013000
  N      6.413000    4.296000   -0.095000
  H     -2.974000    7.294000   -1.123000
  H      2.274000    4.766000    0.081000
  H     -4.338000    3.274000    1.345000
  H     -5.689000    5.364000    1.351000
  H     -5.984000    7.493000   -0.661000
  H     -5.713000    7.671000    1.098000
  H     -4.609000    8.466000   -0.059000
  H     -0.332000    5.282000    0.069000
  H     -1.515000    5.282000   -1.234000
  H      0.182000    1.072000    0.005000
  H     -0.183000   -1.080000   -0.021000
  H     -5.864000   -4.962000    1.895000
  H     -4.794000    2.272000    0.139000
  H     -4.800000   -2.160000   -1.994000
  H     -6.841000   -3.582000   -1.893000
  H     -8.428000   -4.536000    0.546000
  H     -7.956000   -5.337000   -0.981000
  H     -7.456000   -6.037000    0.584000
  H     -5.287000   -0.344000    0.100000
  H     -3.780000   -3.601000    1.947000
  H      3.587000   -6.868000   -1.843000
  H     -2.276000   -4.774000   -0.050000
  H      3.714000   -3.724000    1.926000
  H      5.092000   -5.795000    1.871000
  H      6.205000   -7.329000   -0.439000
  H      5.393000   -7.917000    1.042000
  H      4.759000   -8.373000   -0.564000
  H      0.329000   -5.290000   -0.008000
  H      2.146000   -4.842000   -1.940000
  H      5.808000    4.986000   -1.956000
  H      4.788000   -2.281000   -0.185000
  H      4.860000    2.114000    1.912000
  H      6.901000    3.531000    1.772000
  H      7.383000    6.109000    0.356000
  H      8.414000    4.652000    0.435000
  H      7.921000    5.310000   -1.150000
  H      5.283000    0.336000   -0.179000
  H      3.720000    3.632000   -1.967000

----------------------------
CARTESIAN COORDINATES (A.U.)
----------------------------
  NO LB      ZA    FRAG     MASS         X           Y           Z
   0 C     6.0000    0    12.011   -6.098146   12.050784   -1.143284
   1 C     6.0000    0    12.011    2.785456    7.636383    0.107714
   2 C     6.0000    0    12.011   -5.295013    7.734649    0.092597
   3 C     6.0000    0    12.011   -7.549456    7.815907    1.489104
   4 C     6.0000    0    12.011   -8.993207    9.989092    1.519340
   5 C     6.0000    0    12.011   -9.885157   14.343021    0.234326
   6 C     6.0000    0    12.011    0.249444    8.139050    0.115273
   7 C     6.0000    0    12.011   -1.075254    5.775003    0.088817
   8 C     6.0000    0    12.011    3.116158    4.947303    0.043464
   9 C     6.0000    0    12.011   -4.595814    9.917283   -1.241550
  10 N     7.0000    0    14.007   -8.258103   12.067791    0.221098
  11 N     7.0000    0    14.007    0.733214    3.906064    0.047243
  12 N     7.0000    0    14.007   -3.798350    0.746442   -0.141729
  13 N     7.0000    0    14.007   -0.733214   -3.919292   -0.051023
  14 N     7.0000    0    14.007    3.798350   -0.757780    0.122832
  15 C     6.0000    0    12.011   -3.703863    5.406506    0.045353
  16 C     6.0000    0    12.011   -4.956752    3.051908   -0.034015
  17 C     6.0000    0    12.011  -10.531444   -8.180624    2.014448
  18 C     6.0000    0    12.011   -7.696855    2.779787    0.105825
  19 C     6.0000    0    12.011   -7.759216   -5.208085   -0.049133
  20 C     6.0000    0    12.011   -9.439182   -5.209975   -2.099486
  21 C     6.0000    0    12.011  -11.587801   -6.693410   -2.033345
  22 C     6.0000    0    12.011  -14.458295   -9.662170    0.075589
  23 C     6.0000    0    12.011   -8.171176    0.266451    0.069920
  24 C     6.0000    0    12.011   -5.716422   -0.982658   -0.090707
  25 C     6.0000    0    12.011   -8.356369   -6.738763    2.031456
  26 N     7.0000    0    14.007  -12.107475   -8.150389    0.001890
  27 C     6.0000    0    12.011   -5.417845   -3.632054   -0.075589
  28 C     6.0000    0    12.011   -3.118048   -4.958641   -0.051023
  29 C     6.0000    0    12.011    6.742543  -11.606698   -1.965315
  30 C     6.0000    0    12.011   -2.789236   -7.651501   -0.064251
  31 C     6.0000    0    12.011    5.296902   -7.745987   -0.015118
  32 C     6.0000    0    12.011    6.910728   -8.284559    2.020117
  33 C     6.0000    0    12.011    8.365818  -10.450186    2.001220
  34 C     6.0000    0    12.011    9.911614  -14.339242    0.026456
  35 C     6.0000    0    12.011   -0.253223   -8.154168   -0.041574
  36 C     6.0000    0    12.011    1.073364   -5.790121   -0.051023
  37 C     6.0000    0    12.011    5.243990   -9.471307   -2.029566
  38 N     7.0000    0    14.007    8.269442  -12.077240    0.032125
  39 C     6.0000    0    12.011    3.701973   -5.421624   -0.017008
  40 C     6.0000    0    12.011    4.952972   -3.065136    0.017008
  41 C     6.0000    0    12.011   10.474752    8.199522   -2.135391
  42 C     6.0000    0    12.011    7.691185   -2.794905   -0.177634
  43 C     6.0000    0    12.011    7.755436    5.198637   -0.039684
  44 C     6.0000    0    12.011    9.499653    5.157063    1.957756
  45 C     6.0000    0    12.011   11.652051    6.631049    1.848152
  46 C     6.0000    0    12.011   14.397823    9.737759   -0.217319
  47 C     6.0000    0    12.011    8.165507   -0.279679   -0.173855
  48 C     6.0000    0    12.011    5.716422    0.971319    0.028346
  49 C     6.0000    0    12.011    8.290229    6.768999   -2.107045
  50 C     6.0000    0    12.011    5.415955    3.620715    0.024566
  51 N     7.0000    0    14.007   12.118814    8.118263   -0.179524
  52 H     1.0000    0     1.008   -5.620046   13.783662   -2.122162
  53 H     1.0000    0     1.008    4.297237    9.006435    0.153068
  54 H     1.0000    0     1.008   -8.197632    6.186963    2.541682
  55 H     1.0000    0     1.008  -10.750652   10.136491    2.553020
  56 H     1.0000    0     1.008  -11.308121   14.159718   -1.249109
  57 H     1.0000    0     1.008  -10.796005   14.496089    2.074919
  58 H     1.0000    0     1.008   -8.709748   15.998421   -0.111494
  59 H     1.0000    0     1.008   -0.627389    9.981533    0.130391
  60 H     1.0000    0     1.008   -2.862935    9.981533   -2.331922
  61 H     1.0000    0     1.008    0.343930    2.025786    0.009449
  62 H     1.0000    0     1.008   -0.345820   -2.040904   -0.039684
  63 H     1.0000    0     1.008  -11.081354   -9.376821    3.581031
  64 H     1.0000    0     1.008   -9.059347    4.293458    0.262672
  65 H     1.0000    0     1.008   -9.070685   -4.081808   -3.768114
  66 H     1.0000    0     1.008  -12.927616   -6.768999   -3.577252
  67 H     1.0000    0     1.008  -15.926612   -8.571798    1.031790
  68 H     1.0000    0     1.008  -15.034661  -10.085468   -1.853821
  69 H     1.0000    0     1.008  -14.089798  -11.408277    1.103600
  70 H     1.0000    0     1.008   -9.990982   -0.650066    0.188973
  71 H     1.0000    0     1.008   -7.143165   -6.804904    3.679297
  72 H     1.0000    0     1.008    6.778448  -12.978639   -3.482765
  73 H     1.0000    0     1.008   -4.301017   -9.021553   -0.094486
  74 H     1.0000    0     1.008    7.018443   -7.037340    3.639613
  75 H     1.0000    0     1.008    9.622485  -10.950963    3.535678
  76 H     1.0000    0     1.008   11.725751  -13.849803   -0.829590
  77 H     1.0000    0     1.008   10.191293  -14.960962    1.969095
  78 H     1.0000    0     1.008    8.993207  -15.822677   -1.065806
  79 H     1.0000    0     1.008    0.621720   -9.996651   -0.015118
  80 H     1.0000    0     1.008    4.055352   -9.150054   -3.666069
  81 H     1.0000    0     1.008   10.975529    9.422175   -3.696304
  82 H     1.0000    0     1.008    9.048009   -4.310465   -0.349599
  83 H     1.0000    0     1.008    9.184069    3.994881    3.613156
  84 H     1.0000    0     1.008   13.041000    6.672623    3.348595
  85 H     1.0000    0     1.008   13.951848   11.544337    0.672743
  86 H     1.0000    0     1.008   15.900156    8.791006    0.822031
  87 H     1.0000    0     1.008   14.968521   10.034446   -2.173185
  88 H     1.0000    0     1.008    9.983423    0.634948   -0.338261
  89 H     1.0000    0     1.008    7.029781    6.863485   -3.717091

--------------------------------
INTERNAL COORDINATES (ANGSTROEM)
--------------------------------
 C      0   0   0     0.000000000000     0.00000000     0.00000000
 C      1   0   0     5.290986769970     0.00000000     0.00000000
 C      1   2   0     2.413503055726    52.54224854     0.00000000
 C      3   1   2     1.404001068376    87.93787380   149.10751062
 C      4   3   1     1.380743278093   120.11758909     0.13141275
 C      5   4   3     2.448182999696   152.53505618     1.65070459
 C      2   1   3     1.368114030335    16.86159017   349.09756464
 C      7   2   1     1.434084376876   108.05010202   153.18934173
 C      2   1   3     1.434123425651   122.92452209    20.64927891
 C      1   2   3     1.381799551310    29.86443840   328.46798140
 N      1   2   3     1.351966715567   133.41546320    45.02788623
 N      9   2   1     1.376127174356   106.58526707   350.04270367
 N     12   9   2     2.925062050624   168.53581413   171.12065651
 N     13  12   9     2.954513327098    91.55032014    11.12112580
 N     14  13  12     2.925371258490    88.43092389   359.84326247
 C      8   7   2     1.404790019896   127.24786865   181.11170171
 C     13  12   9     1.366535034311    81.72106996   188.00453233
 C     14  13  12     5.758810554272    80.56209567   166.76250791
 C     17  13  12     1.459010623676   111.08861209   183.82872609
 C     18  14  13     2.412235892279    27.27532823    36.33507194
 C     20  18  14     1.402692767501    87.95206320   148.94598259
 C     21  20  18     1.382106725257   120.14573887   359.70382047
 C     18  14  13     2.446510985056   144.15733107    82.80075377
 C     19  17  13     1.353610726908   106.29293361   359.75308708
 C     13  12   9     1.366813447402   172.21332906    33.46711076
 C     18  14  13     1.380960173213    15.08449437   309.23336894
 N     22  21  20     1.352773077792   120.73759875     0.27865223
 C     25  13  17     1.410897586645   125.60330303   182.37774668
 C     14  13  12     1.376642291955    80.24689249   177.85461986
 C     14  13  12     5.764089607215   164.51507311   312.20821879
 C     29  14  13     1.435600919476   106.58649366   178.76395472
 C     30  14  13     2.413316804732    27.10625047    82.12560436
 C     32  30  14     1.403734305344    87.90059683   149.76154742
 C     33  32  30     1.380694028378   120.14881443   359.74174632
 C     34  33  32     2.448777858443   152.49203239     2.45173620
 C     31  29  14     1.368160809262   108.16950133     0.70383075
 C     14  13  12     1.376239804685   169.26375223   353.09862627
 C     30  14  13     1.380907310430    14.68948582   353.70041132
 N     34  33  32     1.352658863128   120.85575621     0.19603406
 C     37  14  29     1.404717053360   126.01551127   180.90772073
 C     15  14  13     1.366491126938    81.61824056   183.09049352
 C      2   1   3     4.249062720177   141.71362474   156.43263425
 C     41  15  14     1.459677704153   111.05201287   175.08990246
 C     42   2   1     2.412953791518    41.78584867   192.24480481
 C     44  42   2     1.403446472082    87.95153797   233.97558675
 C     45  44  42     1.381696421071   120.11137308     0.19721020
 C     42   2   1     2.450019795838   135.97209175   102.55965391
 C     43  41  15     1.354461516618   106.26758155     0.30894352
 C     15  14  13     1.367461151185   171.87382904   332.35056460
 C     42   2   1     1.381886391857    32.59078432   241.10008400
 C      9   2   1     1.404988612053   126.98745415   171.04704120
 N     42   2   1     1.352765315936   113.57249190   130.29624310
 H      1   2   3     1.083153728702   103.06661340   193.42017314
 H      2   1   3     1.079907866440   111.38129306   192.87576604
 H      4   3   1     1.082100734682   121.05605977   179.55591985
 H      5   4   3     1.081754593242   122.79374199   179.44822781
 H      6   5   4     1.092081956631   104.41828984   100.09312847
 H      6   5   4     1.089752724245    84.66214237   209.53228640
 H      6   5   4     1.089838978932   133.87250068   322.34541994
 H      7   2   1     1.079807853278   126.66122480   333.42775551
 H     10   1   2     1.083962176462   118.75868947   305.57464100
 H     12   9   2     1.016297692608   125.29023241   180.00180175
 H     14  13  12     1.014936943854    44.97226959   359.42596618
 H     18  14  13     1.082871645210   128.03556573   234.20482432
 H     19  17  13     1.080893611786   126.41830519   178.11313280
 H     21  20  18     1.083569563987   121.05669627   180.67006309
 H     22  21  20     1.082483256222   122.73097286   180.59748951
 H     23  18  14     1.092105306278   103.92715769   234.93429879
 H     23  18  14     1.088871893291   134.19244188    12.25587044
 H     23  18  14     1.089833473518    84.85857450   125.45241208
 H     24  19  17     1.080075460327   127.28078426   178.44613241
 H     26  18  14     1.083408048706   118.76995697   244.94906660
 H     30  14  13     1.082703098730   127.99711412   279.66882698
 H     31  29  14     1.079759695488   125.22293469   180.92530585
 H     33  32  30     1.083188810873   121.01964473   180.74284758
 H     34  33  32     1.082494341787   122.70821597   180.59516895
 H     35  34  33     1.092652735319   105.73575241    97.19771933
 H     35  34  33     1.089462711615    84.05943581   206.43036958
 H     35  34  33     1.089268102902   133.08365142   318.50306270
 H     36  31  29     1.079439669458   126.61599965   178.98859863
 H     38  30  73     1.083742127999   118.77264435   359.90091293
 H     42   2   1     1.082178358682   119.31790784   346.92777355
 H     43  41  15     1.080281907652   126.36969097   182.06329380
 H     45  44  42     1.083277434455   121.10105945   179.58025624
 H     46  45  44     1.082194529648   122.72144639   179.46906377
 H     47  42   2     1.091546151109   106.65128841   315.16475048
 H     47  42   2     1.088818625851   132.46019523    94.52397119
 H     47  42   2     1.089531091801    83.63838232   206.04504406
 H     48  43  41     1.080402239909   127.23657387   181.62955349
 H     50  42   2     1.083186502870   118.77001737    94.71359229

---------------------------
INTERNAL COORDINATES (A.U.)
---------------------------
 C      0   0   0     0.000000000000     0.00000000     0.00000000
 C      1   0   0     9.998515973444     0.00000000     0.00000000
 C      1   2   0     4.560859798705    52.54224854     0.00000000
 C      3   1   2     2.653177510963    87.93787380   149.10751062
 C      4   3   1     2.609226656849   120.11758909     0.13141275
 C      5   4   3     4.626395395147   152.53505618     1.65070459
 C      2   1   3     2.585360837309    16.86159017   349.09756464
 C      7   2   1     2.710026725231   108.05010202   153.18934173
 C      2   1   3     2.710100516721   122.92452209    20.64927891
 C      1   2   3     2.611222723951    29.86443840   328.46798140
 N      1   2   3     2.554846834598   133.41546320    45.02788623
 N      9   2   1     2.600503484979   106.58526707   350.04270367
 N     12   9   2     5.527566200405   168.53581413   171.12065651
 N     13  12   9     5.583221047236    91.55032014    11.12112580
 N     14  13  12     5.528150518591    88.43092389   359.84326247
 C      8   7   2     2.654668413270   127.24786865   181.11170171
 C     13  12   9     2.582376967257    81.72106996   188.00453233
 C     14  13  12    10.882574804710    80.56209567   166.76250791
 C     17  13  12     2.757130505230   111.08861209   183.82872609
 C     18  14  13     4.558465206823    27.27532823    36.33507194
 C     20  18  14     2.650705180609    87.95206320   148.94598259
 C     21  20  18     2.611803198586   120.14573887   359.70382047
 C     18  14  13     4.623235745386   144.15733107    82.80075377
 C     19  17  13     2.557953565794   106.29293361   359.75308708
 C     13  12   9     2.582903091751   172.21332906    33.46711076
 C     18  14  13     2.609636529225    15.08449437   309.23336894
 N     22  21  20     2.556370638369   120.73759875     0.27865223
 C     25  13  17     2.666210041769   125.60330303   182.37774668
 C     14  13  12     2.601476916169    80.24689249   177.85461986
 C     14  13  12    10.892550769017   164.51507311   312.20821879
 C     29  14  13     2.712892575415   106.58649366   178.76395472
 C     30  14  13     4.560507835333    27.10625047    82.12560436
 C     32  30  14     2.652673401891    87.90059683   149.76154742
 C     33  32  30     2.609133588376   120.14881443   359.74174632
 C     34  33  32     4.627519515267   152.49203239     2.45173620
 C     31  29  14     2.585449236669   108.16950133     0.70383075
 C     14  13  12     2.600716325456   169.26375223   353.09862627
 C     30  14  13     2.609536633043    14.68948582   353.70041132
 N     34  33  32     2.556154803934   120.85575621     0.19603406
 C     37  14  29     2.654530526499   126.01551127   180.90772073
 C     15  14  13     2.582293994346    81.61824056   183.09049352
 C      2   1   3     8.029564866989   141.71362474   156.43263425
 C     41  15  14     2.758391104639   111.05201287   175.08990246
 C     42   2   1     4.559821839776    41.78584867   192.24480481
 C     44  42   2     2.652129475853    87.95153797   233.97558675
 C     45  44  42     2.611027836043   120.11137308     0.19721020
 C     42   2   1     4.629866436820   135.97209175   102.55965391
 C     43  41  15     2.559561325344   106.26758155     0.30894352
 C     15  14  13     2.584127074516   171.87382904   332.35056460
 C     42   2   1     2.611386828803    32.59078432   241.10008400
 C      9   2   1     2.655043698059   126.98745415   171.04704120
 N     42   2   1     2.556355970587   113.57249190   130.29624310
 H      1   2   3     2.046863908182   103.06661340   193.42017314
 H      2   1   3     2.040730117440   111.38129306   192.87576604
 H      4   3   1     2.044874037865   121.05605977   179.55591985
 H      5   4   3     2.044219925339   122.79374199   179.44822781
 H      6   5   4     2.063735813830   104.41828984   100.09312847
 H      6   5   4     2.059334202518    84.66214237   209.53228640
 H      6   5   4     2.059497200254   133.87250068   322.34541994
 H      7   2   1     2.040541119952   126.66122480   333.42775551
 H     10   1   2     2.048391653042   118.75868947   305.57464100
 H     12   9   2     1.920524309565   125.29023241   180.00180175
 H     14  13  12     1.917952867083    44.97226959   359.42596618
 H     18  14  13     2.046330847636   128.03556573   234.20482432
 H     19  17  13     2.042592906181   126.41830519   178.11313280
 H     21  20  18     2.047649722989   121.05669627   180.67006309
 H     22  21  20     2.045596898814   122.73097286   180.59748951
 H     23  18  14     2.063779938267   103.92715769   234.93429879
 H     23  18  14     2.057669673245   134.19244188    12.25587044
 H     23  18  14     2.059486796529    84.85857450   125.45241208
 H     24  19  17     2.041046823986   127.28078426   178.44613241
 H     26  18  14     2.047344503340   118.76995697   244.94906660
 H     30  14  13     2.046012340948   127.99711412   279.66882698
 H     31  29  14     2.040450114918   125.22293469   180.92530585
 H     33  32  30     2.046930203877   121.01964473   180.74284758
 H     34  33  32     2.045617847496   122.70821597   180.59516895
 H     35  34  33     2.064814429233   105.73575241    97.19771933
 H     35  34  33     2.058786158072    84.05943581   206.43036958
 H     35  34  33     2.058418400901   133.08365142   318.50306270
 H     36  31  29     2.039845353366   126.61599965   178.98859863
 H     38  30  73     2.047975821711   118.77264435   359.90091293
 H     42   2   1     2.045020725966   119.31790784   346.92777355
 H     43  41  15     2.041436952892   126.36969097   182.06329380
 H     45  44  42     2.047097678177   121.10105945   179.58025624
 H     46  45  44     2.045051284662   122.72144639   179.46906377
 H     47  42   2     2.062723288131   106.65128841   315.16475048
 H     47  42   2     2.057569012371   132.46019523    94.52397119
 H     47  42   2     2.058915377895    83.63838232   206.04504406
 H     48  43  41     2.041664347903   127.23657387   181.62955349
 H     50  42   2     2.046925842384   118.77001737    94.71359229

---------------------
BASIS SET INFORMATION
---------------------
There are 3 groups of distinct atoms

 Group   1 Type C   : 17s4p1d contracted to 3s2p1d pattern {881/31/1}
 Group   2 Type N   : 17s4p1d contracted to 3s2p1d pattern {881/31/1}
 Group   3 Type H   : 4s1p contracted to 2s1p pattern {31/1}

Atom   0C    basis set group =>   1
Atom   1N    basis set group =>   2
Atom   2C    basis set group =>   1
Atom   3N    basis set group =>   2
Atom   4C    basis set group =>   1
Atom   5N    basis set group =>   2
Atom   6C    basis set group =>   1
Atom   7N    basis set group =>   2
Atom   8C    basis set group =>   1
Atom   9N    basis set group =>   2
Atom  10C    basis set group =>   1
Atom  11N    basis set group =>   2
Atom  12C    basis set group =>   1
Atom  13N    basis set group =>   2
Atom  14C    basis set group =>   1
Atom  15N    basis set group =>   2
Atom  16C    basis set group =>   1
Atom  17C    basis set group =>   1
Atom  18C    basis set group =>   1
Atom  19C    basis set group =>   1
Atom  20C    basis set group =>   1
Atom  21C    basis set group =>   1
Atom  22C    basis set group =>   1
Atom  23C    basis set group =>   1
Atom  24C    basis set group =>   1
Atom  25C    basis set group =>   1
Atom  26C    basis set group =>   1
Atom  27C    basis set group =>   1
Atom  28C    basis set group =>   1
Atom  29C    basis set group =>   1
Atom  30C    basis set group =>   1
Atom  31C    basis set group =>   1
Atom  32C    basis set group =>   1
Atom  33C    basis set group =>   1
Atom  34C    basis set group =>   1
Atom  35C    basis set group =>   1
Atom  36C    basis set group =>   1
Atom  37C    basis set group =>   1
Atom  38C    basis set group =>   1
Atom  39C    basis set group =>   1
Atom  40C    basis set group =>   1
Atom  41C    basis set group =>   1
Atom  42C    basis set group =>   1
Atom  43C    basis set group =>   1
Atom  44C    basis set group =>   1
Atom  45C    basis set group =>   1
Atom  46C    basis set group =>   1
Atom  47C    basis set group =>   1
Atom  48C    basis set group =>   1
Atom  49C    basis set group =>   1
Atom  50C    basis set group =>   1
Atom  51C    basis set group =>   1
Atom  52H    basis set group =>   3
Atom  53H    basis set group =>   3
Atom  54H    basis set group =>   3
Atom  55H    basis set group =>   3
Atom  56H    basis set group =>   3
Atom  57H    basis set group =>   3
Atom  58H    basis set group =>   3
Atom  59H    basis set group =>   3
Atom  60H    basis set group =>   3
Atom  61H    basis set group =>   3
Atom  62H    basis set group =>   3
Atom  63H    basis set group =>   3
Atom  64H    basis set group =>   3
Atom  65H    basis set group =>   3
Atom  66H    basis set group =>   3
Atom  67H    basis set group =>   3
Atom  68H    basis set group =>   3
Atom  69H    basis set group =>   3
Atom  70H    basis set group =>   3
Atom  71H    basis set group =>   3
Atom  72H    basis set group =>   3
Atom  73H    basis set group =>   3
Atom  74H    basis set group =>   3
Atom  75H    basis set group =>   3
Atom  76H    basis set group =>   3
Atom  77H    basis set group =>   3
Atom  78H    basis set group =>   3
Atom  79H    basis set group =>   3
Atom  80H    basis set group =>   3
Atom  81H    basis set group =>   3
Atom  82H    basis set group =>   3
Atom  83H    basis set group =>   3
Atom  84H    basis set group =>   3
Atom  85H    basis set group =>   3
Atom  86H    basis set group =>   3
Atom  87H    basis set group =>   3
Atom  88H    basis set group =>   3
Atom  89H    basis set group =>   3


           ************************************************************
           *        Program running with 16 parallel MPI-processes    *
           *              working on a common directory               *
           ************************************************************
------------------------------------------------------------------------------
                           ORCA GTO INTEGRAL CALCULATION
------------------------------------------------------------------------------
------------------------------------------------------------------------------
                   ___                                                        
                  /   \      - P O W E R E D   B Y -                         
                 /     \                                                     
                 |  |  |   _    _      __       _____    __    __             
                 |  |  |  | |  | |    /  \     |  _  \  |  |  /  |          
                  \  \/   | |  | |   /    \    | | | |  |  | /  /          
                 / \  \   | |__| |  /  /\  \   | |_| |  |  |/  /          
                |  |  |   |  __  | /  /__\  \  |    /   |      \           
                |  |  |   | |  | | |   __   |  |    \   |  |\   \          
                \     /   | |  | | |  |  |  |  | |\  \  |  | \   \       
                 \___/    |_|  |_| |__|  |__|  |_| \__\ |__|  \__/        
                                                                              
                      - O R C A' S   B I G   F R I E N D -                    
                                      &                                       
                       - I N T E G R A L  F E E D E R -                       
                                                                              
 v1 FN, 2020, v2 2021                                                         
------------------------------------------------------------------------------


Reading SHARK input file /scratch/allen/tmpyp4_amber_gaff2/conf1/conf1/Conf39.orca.SHARKINP.tmp ... ok
----------------------
SHARK INTEGRAL PACKAGE
----------------------

Number of atoms                             ...     90
Number of basis functions                   ...   1230
Number of shells                            ...    738
Maximum angular momentum                    ...      2
Integral batch strategy                     ... SHARK/LIBINT Hybrid
RI-J (if used) integral strategy            ... SPLIT-RIJ (Revised 2003 algorithm where possible)
Printlevel                                  ...      1
Contraction scheme used                     ... PARTIAL GENERAL contraction
Coulomb Range Separation                    ... NOT USED
Exchange Range Separation                   ... NOT USED
Finite Nucleus Model                        ... NOT USED
Auxiliary Coulomb fitting basis             ... NOT available
Auxiliary J/K fitting basis                 ... NOT available
Auxiliary Correlation fitting basis         ... NOT available
Auxiliary 'external' fitting basis          ... NOT available
Integral threshold                          ...     2.500000e-11
Primitive cut-off                           ...     2.500000e-12
Primitive pair pre-selection threshold      ...     2.500000e-12

Calculating pre-screening integrals         ... done (  0.1 sec) Dimension = 738
Calculating pre-screening integrals (ORCA)  ... done (  0.3 sec) Dimension = 426
Organizing shell pair data                  ... done (  0.8 sec)
Shell pair information
Total number of shell pairs                 ...    272691
Shell pairs after pre-screening             ...     71641
Total number of primitive shell pairs       ...    422091
Primitive shell pairs kept                  ...     92454
          la=0 lb=0:  29417 shell pairs
          la=1 lb=0:  25989 shell pairs
          la=1 lb=1:   4705 shell pairs
          la=2 lb=0:   7878 shell pairs
          la=2 lb=1:   3122 shell pairs
          la=2 lb=2:    530 shell pairs

Calculating one electron integrals          ... done (  0.3 sec)
Calculating Nuclear repulsion               ... done (  0.0 sec) ENN=   6229.807064566096 Eh

SHARK setup successfully completed in   2.2 seconds

Maximum memory used throughout the entire GTOINT-calculation: 99.0 MB


           ************************************************************
           *        Program running with 16 parallel MPI-processes    *
           *              working on a common directory               *
           ************************************************************
-------------------------------------------------------------------------------
                                 ORCA SCF
-------------------------------------------------------------------------------

------------
SCF SETTINGS
------------
Hamiltonian:
 Ab initio Hamiltonian  Method          .... Hartree-Fock(GTOs)


General Settings:
 Integral files         IntName         .... /scratch/allen/tmpyp4_amber_gaff2/conf1/conf1/Conf39.orca
 Hartree-Fock type      HFTyp           .... RHF
 Total Charge           Charge          ....    0
 Multiplicity           Mult            ....    1
 Number of Electrons    NEL             ....  358
 Basis Dimension        Dim             ....  918
 Nuclear Repulsion      ENuc            ....   6229.8070645661 Eh

Convergence Acceleration:
 DIIS                   CNVDIIS         .... on
   Start iteration      DIISMaxIt       ....    12
   Startup error        DIISStart       ....  0.200000
   # of expansion vecs  DIISMaxEq       ....     5
   Bias factor          DIISBfac        ....   1.050
   Max. coefficient     DIISMaxC        ....  10.000
 Trust-Rad. Augm. Hess. CNVTRAH         .... auto
   Auto Start mean grad. ratio tolernc. ....  1.125000
   Auto Start start iteration           ....    20
   Auto Start num. interpolation iter.  ....    10
   Max. Number of Micro iterations      ....    16
   Max. Number of Macro iterations      .... Maxiter - #DIIS iter
   Number of Davidson start vectors     ....     2
   Converg. threshold I  (grad. norm)   ....   1.000e-05
   Converg. threshold II (energy diff.) ....   1.000e-08
   Grad. Scal. Fac. for Micro threshold ....   0.100
   Minimum threshold for Micro iter.    ....   0.010
   NR start threshold (gradient norm)   ....   0.001
   Initial trust radius                 ....   0.400
   Minimum AH scaling param. (alpha)    ....   1.000
   Maximum AH scaling param. (alpha)    .... 1000.000
   Orbital update algorithm             .... Taylor
   White noise on init. David. guess    .... on
   Maximum white noise                  ....   0.010
   Quad. conv. algorithm                .... NR
 SOSCF                  CNVSOSCF        .... on
   Start iteration      SOSCFMaxIt      ....   150
   Startup grad/error   SOSCFStart      ....  0.003300
 Level Shifting         CNVShift        .... on
   Level shift para.    LevelShift      ....    0.2500
   Turn off err/grad.   ShiftErr        ....    0.0010
 Zerner damping         CNVZerner       .... off
 Static damping         CNVDamp         .... on
   Fraction old density DampFac         ....    0.7000
   Max. Damping (<1)    DampMax         ....    0.9800
   Min. Damping (>=0)   DampMin         ....    0.0000
   Turn off err/grad.   DampErr         ....    0.1000
 Fernandez-Rico         CNVRico         .... off

SCF Procedure:
 Maximum # iterations   MaxIter         ....   125
 SCF integral mode      SCFMode         .... Direct
   Integral package                     .... SHARK and LIBINT hybrid scheme
 Reset frequency        DirectResetFreq ....    20
 Integral Threshold     Thresh          ....  2.500e-11 Eh
 Primitive CutOff       TCut            ....  2.500e-12 Eh

Convergence Tolerance:
 Convergence Check Mode ConvCheckMode   .... Total+1el-Energy
 Convergence forced     ConvForced      .... 1
 Energy Change          TolE            ....  1.000e-08 Eh
 1-El. energy change                    ....  1.000e-05 Eh
 Orbital Gradient       TolG            ....  1.000e-05
 Orbital Rotation angle TolX            ....  1.000e-05
 DIIS Error             TolErr          ....  5.000e-07


Diagonalization of the overlap matrix:
Smallest eigenvalue                        ... 2.213e-04
Time for diagonalization                   ...    0.397 sec
Threshold for overlap eigenvalues          ... 1.000e-08
Number of eigenvalues below threshold      ... 0
Time for construction of square roots      ...    0.246 sec
Total time needed                          ...    0.648 sec

Time for model grid setup =    1.052 sec

------------------------------
INITIAL GUESS: MODEL POTENTIAL
------------------------------
Loading Hartree-Fock densities                     ... done
Calculating cut-offs                               ... done
Initializing the effective Hamiltonian             ... done
Setting up the integral package (SHARK)            ... done
Starting the Coulomb interaction                   ... done (   1.1 sec)
Reading the grid                                   ... done
Mapping shells                                     ... done
Starting the XC term evaluation                    ... done (   0.2 sec)
Transforming the Hamiltonian                       ... done (   0.2 sec)
Diagonalizing the Hamiltonian                      ... done (   0.3 sec)
Back transforming the eigenvectors                 ... done (   0.1 sec)
Now organizing SCF variables                       ... done
                      ------------------
                      INITIAL GUESS DONE (   3.1 sec)
                      ------------------
--------------
SCF ITERATIONS
--------------
ITER       Energy         Delta-E        Max-DP      RMS-DP      [F,P]     Damp
               ***  Starting incremental Fock matrix formation  ***
  0  -2121.6864508249   0.000000000000 0.06857907  0.00121458  0.2323540 0.7000
  1  -2122.3434676510  -0.657016826090 0.05197904  0.00098766  0.1438902 0.7000
                               ***Turning on DIIS***
  2  -2122.7517921294  -0.408324478323 0.12057501  0.00223997  0.0802333 0.0000
  3  -2117.8814645000   4.870327629349 0.03426091  0.00067702  0.0439845 0.0000
  4  -2123.4228834868  -5.541418986759 0.01078030  0.00022659  0.0075801 0.0000
  5  -2123.5863621362  -0.163478649381 0.00533242  0.00013330  0.0049645 0.0000
  6  -2123.5700268197   0.016335316417 0.00360149  0.00008571  0.0019883 0.0000
  7  -2123.6695119135  -0.099485093730 0.00298669  0.00006735  0.0015533 0.0000
  8  -2123.6820915766  -0.012579663113 0.00312401  0.00006331  0.0014477 0.0000
  9  -2123.6504548589   0.031636717726 0.00249520  0.00004381  0.0011548 0.0000
 10  -2123.6608263080  -0.010371449172 0.00502486  0.00008958  0.0008905 0.0000
                      *** Initiating the SOSCF procedure ***
                           *** Shutting down DIIS ***
                      *** Re-Reading the Fockian *** 
                      *** Removing any level shift *** 
ITER      Energy       Delta-E        Grad      Rot      Max-DP    RMS-DP
 11  -2123.54986820   0.1109581111  0.000212  0.000212  0.000244  0.000005
               *** Restarting incremental Fock matrix formation ***
 12  -2123.61602353  -0.0661553323  0.000880  0.005913  0.001260  0.000032
 13  -2123.61611605  -0.0000925233  0.001055  0.028708  0.005972  0.000125
 14  -2123.61627309  -0.0001570386  0.000349  0.001980  0.000583  0.000012
 15  -2123.61628895  -0.0000158587  0.000176  0.003505  0.000934  0.000019
 16  -2123.61629938  -0.0000104277  0.000167  0.003463  0.000541  0.000012
 17  -2123.61630320  -0.0000038245  0.000156  0.002271  0.000367  0.000008
 18  -2123.61630531  -0.0000021092  0.000080  0.001055  0.000321  0.000005
 19  -2123.61630631  -0.0000009953  0.000049  0.000774  0.000174  0.000004
 20  -2123.61630664  -0.0000003307  0.000027  0.000491  0.000104  0.000002
 21  -2123.61630683  -0.0000001943  0.000027  0.000589  0.000121  0.000002
 22  -2123.61630697  -0.0000001351  0.000021  0.000575  0.000109  0.000002
 23  -2123.61630704  -0.0000000781  0.000011  0.000368  0.000067  0.000001
 24  -2123.61630708  -0.0000000394  0.000007  0.000269  0.000046  0.000001
 25  -2123.61630711  -0.0000000257  0.000008  0.000181  0.000030  0.000001
 26  -2123.61630712  -0.0000000136  0.000005  0.000181  0.000030  0.000001
 27  -2123.61630713  -0.0000000077  0.000003  0.000151  0.000025  0.000001
 28  -2123.61630713  -0.0000000022  0.000003  0.000097  0.000015  0.000000
                  ***Gradient check signals convergence***
              ***Rediagonalizing the Fockian in SOSCF/NRSCF***

               *****************************************************
               *                     SUCCESS                       *
               *           SCF CONVERGED AFTER  29 CYCLES          *
               *****************************************************


----------------
TOTAL SCF ENERGY
----------------

Total Energy       :        -2123.61630714 Eh          -57786.53753 eV

Components:
Nuclear Repulsion  :         6229.80706457 Eh          169521.66854 eV
Electronic Energy  :        -8353.42337171 Eh         -227308.20607 eV
One Electron Energy:       -15300.45699486 Eh         -416346.60148 eV
Two Electron Energy:         6947.03362315 Eh          189038.39541 eV

Virial components:
Potential Energy   :        -4245.73584239 Eh         -115532.34582 eV
Kinetic Energy     :         2122.11953526 Eh           57745.80829 eV
Virial Ratio       :            2.00070532


---------------
SCF CONVERGENCE
---------------

  Last Energy change         ...   -5.8371e-09  Tolerance :   1.0000e-08
  Last MAX-Density change    ...    6.7724e-06  Tolerance :   1.0000e-07
  Last RMS-Density change    ...    1.4571e-07  Tolerance :   5.0000e-09
  Last Orbital Gradient      ...    1.5920e-06  Tolerance :   1.0000e-05
  Last Orbital Rotation      ...    3.3277e-05  Tolerance :   1.0000e-05

             **** THE GBW FILE WAS UPDATED (/scratch/allen/tmpyp4_amber_gaff2/conf1/conf1/Conf39.orca.gbw) ****
             **** DENSITY /scratch/allen/tmpyp4_amber_gaff2/conf1/conf1/Conf39.orca.scfp WAS UPDATED ****
             **** ENERGY FILE WAS UPDATED (/scratch/allen/tmpyp4_amber_gaff2/conf1/conf1/Conf39.orca.en.tmp) ****
             **** THE GBW FILE WAS UPDATED (/scratch/allen/tmpyp4_amber_gaff2/conf1/conf1/Conf39.orca.gbw) ****
             **** DENSITY /scratch/allen/tmpyp4_amber_gaff2/conf1/conf1/Conf39.orca.scfp WAS UPDATED ****
----------------
ORBITAL ENERGIES
----------------

  NO   OCC          E(Eh)            E(eV) 
   0   2.0000     -15.666894      -426.3179 
   1   2.0000     -15.635405      -425.4610 
   2   2.0000     -15.630597      -425.3302 
   3   2.0000     -15.596533      -424.4032 
   4   2.0000     -15.523708      -422.4216 
   5   2.0000     -15.516381      -422.2222 
   6   2.0000     -15.451047      -420.4444 
   7   2.0000     -15.442144      -420.2021 
   8   2.0000     -11.319966      -308.0319 
   9   2.0000     -11.318913      -308.0033 
  10   2.0000     -11.317271      -307.9586 
  11   2.0000     -11.300212      -307.4944 
  12   2.0000     -11.297496      -307.4205 
  13   2.0000     -11.293513      -307.3121 
  14   2.0000     -11.289352      -307.1989 
  15   2.0000     -11.288515      -307.1761 
  16   2.0000     -11.286096      -307.1103 
  17   2.0000     -11.276821      -306.8579 
  18   2.0000     -11.269935      -306.6705 
  19   2.0000     -11.261423      -306.4389 
  20   2.0000     -11.259434      -306.3848 
  21   2.0000     -11.254307      -306.2453 
  22   2.0000     -11.253370      -306.2198 
  23   2.0000     -11.238994      -305.8286 
  24   2.0000     -11.235315      -305.7285 
  25   2.0000     -11.232210      -305.6440 
  26   2.0000     -11.231406      -305.6221 
  27   2.0000     -11.228745      -305.5497 
  28   2.0000     -11.228648      -305.5470 
  29   2.0000     -11.207980      -304.9846 
  30   2.0000     -11.206916      -304.9557 
  31   2.0000     -11.205887      -304.9277 
  32   2.0000     -11.200388      -304.7781 
  33   2.0000     -11.198835      -304.7358 
  34   2.0000     -11.190937      -304.5209 
  35   2.0000     -11.190182      -304.5003 
  36   2.0000     -11.185705      -304.3785 
  37   2.0000     -11.183307      -304.3132 
  38   2.0000     -11.182390      -304.2883 
  39   2.0000     -11.172570      -304.0211 
  40   2.0000     -11.169964      -303.9502 
  41   2.0000     -11.169759      -303.9446 
  42   2.0000     -11.165695      -303.8340 
  43   2.0000     -11.163039      -303.7617 
  44   2.0000     -11.161197      -303.7116 
  45   2.0000     -11.159825      -303.6743 
  46   2.0000     -11.156227      -303.5764 
  47   2.0000     -11.152141      -303.4652 
  48   2.0000     -11.149390      -303.3903 
  49   2.0000     -11.143087      -303.2188 
  50   2.0000     -11.134724      -302.9912 
  51   2.0000     -11.127174      -302.7858 
  52   2.0000      -1.349412       -36.7194 
  53   2.0000      -1.322453       -35.9858 
  54   2.0000      -1.318489       -35.8779 
  55   2.0000      -1.289784       -35.0968 
  56   2.0000      -1.223818       -33.3018 
  57   2.0000      -1.211139       -32.9568 
  58   2.0000      -1.169454       -31.8225 
  59   2.0000      -1.153472       -31.3876 
  60   2.0000      -1.134412       -30.8689 
  61   2.0000      -1.111152       -30.2360 
  62   2.0000      -1.107988       -30.1499 
  63   2.0000      -1.084821       -29.5195 
  64   2.0000      -1.071890       -29.1676 
  65   2.0000      -1.046562       -28.4784 
  66   2.0000      -1.043196       -28.3868 
  67   2.0000      -1.035109       -28.1668 
  68   2.0000      -1.017833       -27.6966 
  69   2.0000      -1.013728       -27.5850 
  70   2.0000      -1.009862       -27.4797 
  71   2.0000      -0.992391       -27.0043 
  72   2.0000      -0.987363       -26.8675 
  73   2.0000      -0.977611       -26.6022 
  74   2.0000      -0.972871       -26.4732 
  75   2.0000      -0.960060       -26.1246 
  76   2.0000      -0.951737       -25.8981 
  77   2.0000      -0.947624       -25.7862 
  78   2.0000      -0.935820       -25.4650 
  79   2.0000      -0.920842       -25.0574 
  80   2.0000      -0.901880       -24.5414 
  81   2.0000      -0.891782       -24.2666 
  82   2.0000      -0.874321       -23.7915 
  83   2.0000      -0.871079       -23.7033 
  84   2.0000      -0.866738       -23.5851 
  85   2.0000      -0.855985       -23.2925 
  86   2.0000      -0.843523       -22.9534 
  87   2.0000      -0.837373       -22.7861 
  88   2.0000      -0.823112       -22.3980 
  89   2.0000      -0.798448       -21.7269 
  90   2.0000      -0.793825       -21.6011 
  91   2.0000      -0.746541       -20.3144 
  92   2.0000      -0.738918       -20.1070 
  93   2.0000      -0.731865       -19.9151 
  94   2.0000      -0.722901       -19.6711 
  95   2.0000      -0.721124       -19.6228 
  96   2.0000      -0.714359       -19.4387 
  97   2.0000      -0.707830       -19.2610 
  98   2.0000      -0.703953       -19.1555 
  99   2.0000      -0.695955       -18.9379 
 100   2.0000      -0.694843       -18.9077 
 101   2.0000      -0.682640       -18.5756 
 102   2.0000      -0.678628       -18.4664 
 103   2.0000      -0.676610       -18.4115 
 104   2.0000      -0.675884       -18.3917 
 105   2.0000      -0.672195       -18.2914 
 106   2.0000      -0.666385       -18.1333 
 107   2.0000      -0.661912       -18.0115 
 108   2.0000      -0.655128       -17.8269 
 109   2.0000      -0.654066       -17.7980 
 110   2.0000      -0.650238       -17.6939 
 111   2.0000      -0.645319       -17.5600 
 112   2.0000      -0.641785       -17.4639 
 113   2.0000      -0.638188       -17.3660 
 114   2.0000      -0.636735       -17.3264 
 115   2.0000      -0.628430       -17.1004 
 116   2.0000      -0.626230       -17.0406 
 117   2.0000      -0.616726       -16.7820 
 118   2.0000      -0.613479       -16.6936 
 119   2.0000      -0.611673       -16.6445 
 120   2.0000      -0.610409       -16.6101 
 121   2.0000      -0.603414       -16.4197 
 122   2.0000      -0.600866       -16.3504 
 123   2.0000      -0.587817       -15.9953 
 124   2.0000      -0.584211       -15.8972 
 125   2.0000      -0.581845       -15.8328 
 126   2.0000      -0.579617       -15.7722 
 127   2.0000      -0.577191       -15.7062 
 128   2.0000      -0.564362       -15.3571 
 129   2.0000      -0.558663       -15.2020 
 130   2.0000      -0.553443       -15.0600 
 131   2.0000      -0.548379       -14.9222 
 132   2.0000      -0.541776       -14.7425 
 133   2.0000      -0.538085       -14.6420 
 134   2.0000      -0.536838       -14.6081 
 135   2.0000      -0.535331       -14.5671 
 136   2.0000      -0.526192       -14.3184 
 137   2.0000      -0.524325       -14.2676 
 138   2.0000      -0.516503       -14.0548 
 139   2.0000      -0.515030       -14.0147 
 140   2.0000      -0.511637       -13.9223 
 141   2.0000      -0.510926       -13.9030 
 142   2.0000      -0.508562       -13.8387 
 143   2.0000      -0.503029       -13.6881 
 144   2.0000      -0.501280       -13.6405 
 145   2.0000      -0.497746       -13.5443 
 146   2.0000      -0.494153       -13.4466 
 147   2.0000      -0.485737       -13.2176 
 148   2.0000      -0.482753       -13.1364 
 149   2.0000      -0.467891       -12.7320 
 150   2.0000      -0.464663       -12.6441 
 151   2.0000      -0.456640       -12.4258 
 152   2.0000      -0.449394       -12.2286 
 153   2.0000      -0.445964       -12.1353 
 154   2.0000      -0.443178       -12.0595 
 155   2.0000      -0.440036       -11.9740 
 156   2.0000      -0.430898       -11.7253 
 157   2.0000      -0.423805       -11.5323 
 158   2.0000      -0.401631       -10.9289 
 159   2.0000      -0.387656       -10.5487 
 160   2.0000      -0.379488       -10.3264 
 161   2.0000      -0.377902       -10.2832 
 162   2.0000      -0.370112       -10.0713 
 163   2.0000      -0.357543        -9.7293 
 164   2.0000      -0.354888        -9.6570 
 165   2.0000      -0.338921        -9.2225 
 166   2.0000      -0.337158        -9.1745 
 167   2.0000      -0.329755        -8.9731 
 168   2.0000      -0.326934        -8.8963 
 169   2.0000      -0.302378        -8.2281 
 170   2.0000      -0.299874        -8.1600 
 171   2.0000      -0.286839        -7.8053 
 172   2.0000      -0.283878        -7.7247 
 173   2.0000      -0.261214        -7.1080 
 174   2.0000      -0.244509        -6.6534 
 175   2.0000      -0.189588        -5.1589 
 176   2.0000      -0.179840        -4.8937 
 177   2.0000      -0.073193        -1.9917 
 178   2.0000      -0.057446        -1.5632 
 179   0.0000       0.028940         0.7875 
 180   0.0000       0.067551         1.8382 
 181   0.0000       0.091851         2.4994 
 182   0.0000       0.106560         2.8996 
 183   0.0000       0.114760         3.1228 
 184   0.0000       0.136262         3.7079 
 185   0.0000       0.140057         3.8112 
 186   0.0000       0.147653         4.0178 
 187   0.0000       0.162540         4.4229 
 188   0.0000       0.164341         4.4719 
 189   0.0000       0.165130         4.4934 
 190   0.0000       0.166426         4.5287 
 191   0.0000       0.183698         4.9987 
 192   0.0000       0.187184         5.0935 
 193   0.0000       0.190579         5.1859 
 194   0.0000       0.204181         5.5560 
 195   0.0000       0.206346         5.6150 
 196   0.0000       0.207492         5.6461 
 197   0.0000       0.209375         5.6974 
 198   0.0000       0.222818         6.0632 
 199   0.0000       0.223735         6.0881 
 200   0.0000       0.227890         6.2012 
 201   0.0000       0.238310         6.4847 
 202   0.0000       0.240295         6.5388 
 203   0.0000       0.240743         6.5509 
 204   0.0000       0.250494         6.8163 
 205   0.0000       0.255688         6.9576 
 206   0.0000       0.256468         6.9788 
 207   0.0000       0.258294         7.0285 
 208   0.0000       0.260154         7.0791 
 209   0.0000       0.262442         7.1414 
 210   0.0000       0.264135         7.1875 
 211   0.0000       0.270661         7.3651 
 212   0.0000       0.270986         7.3739 
 213   0.0000       0.272458         7.4139 
 214   0.0000       0.275153         7.4873 
 215   0.0000       0.276490         7.5237 
 216   0.0000       0.278634         7.5820 
 217   0.0000       0.282089         7.6760 
 218   0.0000       0.285112         7.7583 
 219   0.0000       0.288568         7.8523 
 220   0.0000       0.290082         7.8935 
 221   0.0000       0.293027         7.9737 
 222   0.0000       0.294717         8.0197 
 223   0.0000       0.296665         8.0727 
 224   0.0000       0.297050         8.0831 
 225   0.0000       0.298577         8.1247 
 226   0.0000       0.306273         8.3341 
 227   0.0000       0.308338         8.3903 
 228   0.0000       0.309893         8.4326 
 229   0.0000       0.322777         8.7832 
 230   0.0000       0.324467         8.8292 
 231   0.0000       0.327962         8.9243 
 232   0.0000       0.328983         8.9521 
 233   0.0000       0.333668         9.0796 
 234   0.0000       0.348232         9.4759 
 235   0.0000       0.350668         9.5422 
 236   0.0000       0.361006         9.8235 
 237   0.0000       0.380311        10.3488 
 238   0.0000       0.394687        10.7400 
 239   0.0000       0.397433        10.8147 
 240   0.0000       0.401059        10.9134 
 241   0.0000       0.413496        11.2518 
 242   0.0000       0.418481        11.3874 
 243   0.0000       0.420421        11.4402 
 244   0.0000       0.429388        11.6842 
 245   0.0000       0.433161        11.7869 
 246   0.0000       0.434874        11.8335 
 247   0.0000       0.440699        11.9920 
 248   0.0000       0.442063        12.0292 
 249   0.0000       0.446533        12.1508 
 250   0.0000       0.451611        12.2890 
 251   0.0000       0.458892        12.4871 
 252   0.0000       0.463483        12.6120 
 253   0.0000       0.467061        12.7094 
 254   0.0000       0.470991        12.8163 
 255   0.0000       0.473064        12.8727 
 256   0.0000       0.480951        13.0873 
 257   0.0000       0.482442        13.1279 
 258   0.0000       0.487510        13.2658 
 259   0.0000       0.498677        13.5697 
 260   0.0000       0.503204        13.6929 
 261   0.0000       0.505215        13.7476 
 262   0.0000       0.506666        13.7871 
 263   0.0000       0.507235        13.8026 
 264   0.0000       0.514062        13.9883 
 265   0.0000       0.519565        14.1381 
 266   0.0000       0.523894        14.2559 
 267   0.0000       0.524876        14.2826 
 268   0.0000       0.533264        14.5108 
 269   0.0000       0.537123        14.6159 
 270   0.0000       0.540536        14.7087 
 271   0.0000       0.547422        14.8961 
 272   0.0000       0.551069        14.9954 
 273   0.0000       0.557984        15.1835 
 274   0.0000       0.560082        15.2406 
 275   0.0000       0.564689        15.3660 
 276   0.0000       0.570320        15.5192 
 277   0.0000       0.572967        15.5912 
 278   0.0000       0.578587        15.7442 
 279   0.0000       0.586064        15.9476 
 280   0.0000       0.588544        16.0151 
 281   0.0000       0.592318        16.1178 
 282   0.0000       0.593162        16.1408 
 283   0.0000       0.596187        16.2231 
 284   0.0000       0.598440        16.2844 
 285   0.0000       0.600144        16.3307 
 286   0.0000       0.607547        16.5322 
 287   0.0000       0.612873        16.6771 
 288   0.0000       0.615015        16.7354 
 289   0.0000       0.618592        16.8327 
 290   0.0000       0.627172        17.0662 
 291   0.0000       0.631037        17.1714 
 292   0.0000       0.633522        17.2390 
 293   0.0000       0.636165        17.3109 
 294   0.0000       0.645631        17.5685 
 295   0.0000       0.649029        17.6610 
 296   0.0000       0.654098        17.7989 
 297   0.0000       0.656915        17.8756 
 298   0.0000       0.665276        18.1031 
 299   0.0000       0.667543        18.1648 
 300   0.0000       0.669950        18.2303 
 301   0.0000       0.672197        18.2914 
 302   0.0000       0.678547        18.4642 
 303   0.0000       0.680791        18.5253 
 304   0.0000       0.681314        18.5395 
 305   0.0000       0.685845        18.6628 
 306   0.0000       0.690224        18.7820 
 307   0.0000       0.691201        18.8085 
 308   0.0000       0.696557        18.9543 
 309   0.0000       0.698077        18.9956 
 310   0.0000       0.701771        19.0962 
 311   0.0000       0.703580        19.1454 
 312   0.0000       0.705622        19.2010 
 313   0.0000       0.710620        19.3370 
 314   0.0000       0.711313        19.3558 
 315   0.0000       0.714779        19.4501 
 316   0.0000       0.717798        19.5323 
 317   0.0000       0.718330        19.5468 
 318   0.0000       0.719538        19.5796 
 319   0.0000       0.725006        19.7284 
 320   0.0000       0.726071        19.7574 
 321   0.0000       0.730077        19.8664 
 322   0.0000       0.732838        19.9415 
 323   0.0000       0.735695        20.0193 
 324   0.0000       0.737424        20.0663 
 325   0.0000       0.740154        20.1406 
 326   0.0000       0.742726        20.2106 
 327   0.0000       0.743529        20.2325 
 328   0.0000       0.748990        20.3811 
 329   0.0000       0.749760        20.4020 
 330   0.0000       0.754828        20.5399 
 331   0.0000       0.756487        20.5851 
 332   0.0000       0.760454        20.6930 
 333   0.0000       0.761558        20.7231 
 334   0.0000       0.768106        20.9012 
 335   0.0000       0.772615        21.0239 
 336   0.0000       0.774930        21.0869 
 337   0.0000       0.780288        21.2327 
 338   0.0000       0.783902        21.3311 
 339   0.0000       0.789431        21.4815 
 340   0.0000       0.790755        21.5175 
 341   0.0000       0.795230        21.6393 
 342   0.0000       0.797392        21.6981 
 343   0.0000       0.803610        21.8673 
 344   0.0000       0.804834        21.9006 
 345   0.0000       0.806679        21.9509 
 346   0.0000       0.808513        22.0008 
 347   0.0000       0.810624        22.0582 
 348   0.0000       0.814272        22.1575 
 349   0.0000       0.819118        22.2893 
 350   0.0000       0.820058        22.3149 
 351   0.0000       0.823935        22.4204 
 352   0.0000       0.824437        22.4341 
 353   0.0000       0.825634        22.4666 
 354   0.0000       0.828518        22.5451 
 355   0.0000       0.832106        22.6427 
 356   0.0000       0.833514        22.6811 
 357   0.0000       0.836407        22.7598 
 358   0.0000       0.837291        22.7838 
 359   0.0000       0.837983        22.8027 
 360   0.0000       0.839307        22.8387 
 361   0.0000       0.843533        22.9537 
 362   0.0000       0.844721        22.9860 
 363   0.0000       0.846014        23.0212 
 364   0.0000       0.846726        23.0406 
 365   0.0000       0.852888        23.2083 
 366   0.0000       0.856046        23.2942 
 367   0.0000       0.860075        23.4038 
 368   0.0000       0.863313        23.4920 
 369   0.0000       0.864261        23.5177 
 370   0.0000       0.866475        23.5780 
 371   0.0000       0.871901        23.7256 
 372   0.0000       0.874259        23.7898 
 373   0.0000       0.877336        23.8735 
 374   0.0000       0.881366        23.9832 
 375   0.0000       0.883773        24.0487 
 376   0.0000       0.885154        24.0863 
 377   0.0000       0.888446        24.1758 
 378   0.0000       0.889271        24.1983 
 379   0.0000       0.894387        24.3375 
 380   0.0000       0.897779        24.4298 
 381   0.0000       0.899071        24.4650 
 382   0.0000       0.901383        24.5279 
 383   0.0000       0.902090        24.5471 
 384   0.0000       0.903093        24.5744 
 385   0.0000       0.904546        24.6139 
 386   0.0000       0.907222        24.6868 
 387   0.0000       0.909023        24.7358 
 388   0.0000       0.910636        24.7797 
 389   0.0000       0.916581        24.9414 
 390   0.0000       0.919576        25.0229 
 391   0.0000       0.923027        25.1168 
 392   0.0000       0.924661        25.1613 
 393   0.0000       0.925463        25.1831 
 394   0.0000       0.926989        25.2247 
 395   0.0000       0.930738        25.3267 
 396   0.0000       0.933489        25.4015 
 397   0.0000       0.935619        25.4595 
 398   0.0000       0.940443        25.5907 
 399   0.0000       0.941253        25.6128 
 400   0.0000       0.944245        25.6942 
 401   0.0000       0.946845        25.7650 
 402   0.0000       0.952931        25.9306 
 403   0.0000       0.956411        26.0253 
 404   0.0000       0.959439        26.1077 
 405   0.0000       0.960138        26.1267 
 406   0.0000       0.963457        26.2170 
 407   0.0000       0.966478        26.2992 
 408   0.0000       0.968792        26.3622 
 409   0.0000       0.976230        26.5646 
 410   0.0000       0.979697        26.6589 
 411   0.0000       0.985879        26.8271 
 412   0.0000       0.986970        26.8568 
 413   0.0000       0.992677        27.0121 
 414   0.0000       0.995438        27.0872 
 415   0.0000       0.997060        27.1314 
 416   0.0000       1.002856        27.2891 
 417   0.0000       1.010719        27.5031 
 418   0.0000       1.013825        27.5876 
 419   0.0000       1.019100        27.7311 
 420   0.0000       1.026619        27.9357 
 421   0.0000       1.030633        28.0450 
 422   0.0000       1.032388        28.0927 
 423   0.0000       1.042324        28.3631 
 424   0.0000       1.047846        28.5133 
 425   0.0000       1.048290        28.5254 
 426   0.0000       1.058974        28.8162 
 427   0.0000       1.063774        28.9468 
 428   0.0000       1.068671        29.0800 
 429   0.0000       1.077222        29.3127 
 430   0.0000       1.078920        29.3589 
 431   0.0000       1.083478        29.4829 
 432   0.0000       1.086586        29.5675 
 433   0.0000       1.090625        29.6774 
 434   0.0000       1.099382        29.9157 
 435   0.0000       1.101483        29.9729 
 436   0.0000       1.105392        30.0793 
 437   0.0000       1.111744        30.2521 
 438   0.0000       1.113449        30.2985 
 439   0.0000       1.117437        30.4070 
 440   0.0000       1.120048        30.4781 
 441   0.0000       1.122777        30.5523 
 442   0.0000       1.124934        30.6110 
 443   0.0000       1.128387        30.7050 
 444   0.0000       1.133479        30.8435 
 445   0.0000       1.135778        30.9061 
 446   0.0000       1.139853        31.0170 
 447   0.0000       1.141582        31.0640 
 448   0.0000       1.144150        31.1339 
 449   0.0000       1.149588        31.2819 
 450   0.0000       1.151980        31.3470 
 451   0.0000       1.154116        31.4051 
 452   0.0000       1.158066        31.5126 
 453   0.0000       1.161733        31.6124 
 454   0.0000       1.165179        31.7061 
 455   0.0000       1.169868        31.8337 
 456   0.0000       1.172928        31.9170 
 457   0.0000       1.176204        32.0061 
 458   0.0000       1.178742        32.0752 
 459   0.0000       1.185697        32.2645 
 460   0.0000       1.189847        32.3774 
 461   0.0000       1.196786        32.5662 
 462   0.0000       1.201595        32.6970 
 463   0.0000       1.205638        32.8071 
 464   0.0000       1.207366        32.8541 
 465   0.0000       1.209948        32.9244 
 466   0.0000       1.215669        33.0800 
 467   0.0000       1.218156        33.1477 
 468   0.0000       1.221469        33.2379 
 469   0.0000       1.225566        33.3493 
 470   0.0000       1.229353        33.4524 
 471   0.0000       1.231298        33.5053 
 472   0.0000       1.234563        33.5942 
 473   0.0000       1.235502        33.6197 
 474   0.0000       1.242936        33.8220 
 475   0.0000       1.244860        33.8744 
 476   0.0000       1.248841        33.9827 
 477   0.0000       1.250609        34.0308 
 478   0.0000       1.251655        34.0593 
 479   0.0000       1.254168        34.1277 
 480   0.0000       1.259390        34.2697 
 481   0.0000       1.264353        34.4048 
 482   0.0000       1.265046        34.4236 
 483   0.0000       1.268900        34.5285 
 484   0.0000       1.272365        34.6228 
 485   0.0000       1.277453        34.7613 
 486   0.0000       1.281061        34.8594 
 487   0.0000       1.283543        34.9270 
 488   0.0000       1.287055        35.0225 
 489   0.0000       1.290326        35.1115 
 490   0.0000       1.293304        35.1926 
 491   0.0000       1.297635        35.3105 
 492   0.0000       1.299885        35.3717 
 493   0.0000       1.309127        35.6232 
 494   0.0000       1.311302        35.6823 
 495   0.0000       1.314361        35.7656 
 496   0.0000       1.321271        35.9536 
 497   0.0000       1.323426        36.0122 
 498   0.0000       1.326085        36.0846 
 499   0.0000       1.329473        36.1768 
 500   0.0000       1.331633        36.2356 
 501   0.0000       1.336116        36.3576 
 502   0.0000       1.338351        36.4184 
 503   0.0000       1.341776        36.5116 
 504   0.0000       1.346181        36.6315 
 505   0.0000       1.350876        36.7592 
 506   0.0000       1.352622        36.8067 
 507   0.0000       1.357465        36.9385 
[...]
      pz      :     0.022072  p :     0.079714
      px      :     0.043514
      py      :     0.014127
 77 H s       :     0.885966  s :     0.885966
      pz      :     0.047868  p :     0.079164
      px      :     0.015019
      py      :     0.016277
 78 H s       :     0.886330  s :     0.886330
      pz      :     0.025826  p :     0.079122
      px      :     0.020487
      py      :     0.032810
 79 H s       :     0.910182  s :     0.910182
      pz      :     0.021905  p :     0.086441
      px      :     0.021693
      py      :     0.042844
 80 H s       :     0.866421  s :     0.866421
      pz      :     0.039226  p :     0.084598
      px      :     0.030165
      py      :     0.015206
 81 H s       :     0.887033  s :     0.887033
      pz      :     0.037794  p :     0.084056
      px      :     0.016178
      py      :     0.030084
 82 H s       :     0.915692  s :     0.915692
      pz      :     0.021993  p :     0.086767
      px      :     0.031565
      py      :     0.033209
 83 H s       :     0.873169  s :     0.873169
      pz      :     0.039274  p :     0.084059
      px      :     0.015268
      py      :     0.029517
 84 H s       :     0.886795  s :     0.886795
      pz      :     0.035779  p :     0.083527
      px      :     0.031705
      py      :     0.016043
 85 H s       :     0.893086  s :     0.893086
      pz      :     0.022493  p :     0.079776
      px      :     0.014076
      py      :     0.043207
 86 H s       :     0.890924  s :     0.890924
      pz      :     0.024729  p :     0.078838
      px      :     0.032984
      py      :     0.021125
 87 H s       :     0.890004  s :     0.890004
      pz      :     0.047994  p :     0.078726
      px      :     0.015594
      py      :     0.015138
 88 H s       :     0.911469  s :     0.911469
      pz      :     0.021731  p :     0.086991
      px      :     0.042825
      py      :     0.022435
 89 H s       :     0.871839  s :     0.871839
      pz      :     0.037919  p :     0.083829
      px      :     0.030466
      py      :     0.015443


                      *****************************
                      * MAYER POPULATION ANALYSIS *
                      *****************************

  NA   - Mulliken gross atomic population
  ZA   - Total nuclear charge
  QA   - Mulliken gross atomic charge
  VA   - Mayer's total valence
  BVA  - Mayer's bonded valence
  FA   - Mayer's free valence

  ATOM       NA         ZA         QA         VA         BVA        FA
  0 C      5.7920     6.0000     0.2080     3.8388     3.8388    -0.0000
  1 N      7.4534     7.0000    -0.4534     3.3348     3.3348     0.0000
  2 C      6.0630     6.0000    -0.0630     3.9203     3.9203    -0.0000
  3 N      7.3362     7.0000    -0.3362     3.4560     3.4560     0.0000
  4 C      6.0497     6.0000    -0.0497     4.0065     4.0065     0.0000
  5 N      7.5632     7.0000    -0.5632     3.0927     3.0927     0.0000
  6 C      6.1026     6.0000    -0.1026     4.0016     4.0016    -0.0000
  7 N      7.3397     7.0000    -0.3397     3.4360     3.4360    -0.0000
  8 C      5.7944     6.0000     0.2056     3.8384     3.8384     0.0000
  9 N      7.5625     7.0000    -0.5625     3.0790     3.0790     0.0000
 10 C      5.8816     6.0000     0.1184     3.9065     3.9065     0.0000
 11 N      7.4381     7.0000    -0.4381     3.3797     3.3797     0.0000
 12 C      6.0835     6.0000    -0.0835     3.9099     3.9099    -0.0000
 13 N      7.4325     7.0000    -0.4325     3.4141     3.4141     0.0000
 14 C      5.7610     6.0000     0.2390     3.7812     3.7812     0.0000
 15 N      7.4410     7.0000    -0.4410     3.3716     3.3716     0.0000
 16 C      5.7720     6.0000     0.2280     3.7823     3.7823    -0.0000
 17 C      6.1135     6.0000    -0.1135     4.0065     4.0065    -0.0000
 18 C      6.2035     6.0000    -0.2035     3.7698     3.7698     0.0000
 19 C      5.7683     6.0000     0.2317     3.8598     3.8598     0.0000
 20 C      5.7879     6.0000     0.2121     3.8283     3.8283     0.0000
 21 C      6.0960     6.0000    -0.0960     3.8959     3.8959     0.0000
 22 C      6.0906     6.0000    -0.0906     3.9828     3.9828    -0.0000
 23 C      6.0418     6.0000    -0.0418     3.9922     3.9922     0.0000
 24 C      5.8033     6.0000     0.1967     3.8219     3.8219    -0.0000
 25 C      5.8856     6.0000     0.1144     3.8910     3.8910    -0.0000
 26 C      6.0764     6.0000    -0.0764     3.9093     3.9093    -0.0000
 27 C      5.7862     6.0000     0.2138     3.8679     3.8679     0.0000
 28 C      6.0594     6.0000    -0.0594     3.9885     3.9885     0.0000
 29 C      6.1807     6.0000    -0.1807     3.7432     3.7432     0.0000
 30 C      5.7567     6.0000     0.2433     3.7986     3.7986     0.0000
 31 C      5.7752     6.0000     0.2248     3.8204     3.8204     0.0000
 32 C      6.0627     6.0000    -0.0627     3.9218     3.9218    -0.0000
 33 C      6.0664     6.0000    -0.0664     3.9762     3.9762    -0.0000
 34 C      6.0507     6.0000    -0.0507     3.9861     3.9861     0.0000
 35 C      5.7787     6.0000     0.2213     3.8193     3.8193     0.0000
 36 C      5.8901     6.0000     0.1099     3.8796     3.8796     0.0000
 37 C      6.0651     6.0000    -0.0651     3.9175     3.9175     0.0000
 38 C      5.7671     6.0000     0.2329     3.7999     3.7999    -0.0000
 39 C      6.0588     6.0000    -0.0588     3.9855     3.9855     0.0000
 40 C      6.1834     6.0000    -0.1834     3.7314     3.7314    -0.0000
 41 C      5.7754     6.0000     0.2246     3.8851     3.8851    -0.0000
 42 C      5.8013     6.0000     0.1987     3.8264     3.8264     0.0000
 43 C      6.0726     6.0000    -0.0726     3.9008     3.9008    -0.0000
 44 C      6.0897     6.0000    -0.0897     3.9849     3.9849     0.0000
 45 C      6.0590     6.0000    -0.0590     3.9925     3.9925     0.0000
 46 C      5.7907     6.0000     0.2093     3.8278     3.8278    -0.0000
 47 C      5.8845     6.0000     0.1155     3.8932     3.8932     0.0000
 48 C      6.0689     6.0000    -0.0689     3.9083     3.9083    -0.0000
 49 C      5.7645     6.0000     0.2355     3.8911     3.8911     0.0000
 50 C      6.0482     6.0000    -0.0482     3.9905     3.9905     0.0000
 51 C      6.1907     6.0000    -0.1907     3.7359     3.7359     0.0000
 52 H      0.9578     1.0000     0.0422     0.9858     0.9858    -0.0000
 53 H      1.0159     1.0000    -0.0159     0.9982     0.9982    -0.0000
 54 H      0.9476     1.0000     0.0524     1.0131     1.0131    -0.0000
 55 H      0.9588     1.0000     0.0412     0.9868     0.9868    -0.0000
 56 H      0.9490     1.0000     0.0510     0.9699     0.9699    -0.0000
 57 H      0.9504     1.0000     0.0496     0.9831     0.9831    -0.0000
 58 H      0.9511     1.0000     0.0489     0.9849     0.9849    -0.0000
 59 H      0.9999     1.0000     0.0001     1.0031     1.0031    -0.0000
 60 H      0.9519     1.0000     0.0481     1.0118     1.0118    -0.0000
 61 H      0.8285     1.0000     0.1715     1.0421     1.0421     0.0000
 62 H      0.8252     1.0000     0.1748     1.0435     1.0435    -0.0000
 63 H      0.9444     1.0000     0.0556     0.9853     0.9853     0.0000
 64 H      1.0083     1.0000    -0.0083     0.9985     0.9985    -0.0000
 65 H      0.9526     1.0000     0.0474     1.0093     1.0093     0.0000
 66 H      0.9437     1.0000     0.0563     0.9854     0.9854     0.0000
 67 H      0.9376     1.0000     0.0624     0.9719     0.9719     0.0000
 68 H      0.9424     1.0000     0.0576     0.9868     0.9868     0.0000
 69 H      0.9430     1.0000     0.0570     0.9828     0.9828    -0.0000
 70 H      1.0281     1.0000    -0.0281     0.9935     0.9935    -0.0000
 71 H      0.9546     1.0000     0.0454     1.0061     1.0061     0.0000
 72 H      0.9328     1.0000     0.0672     0.9840     0.9840     0.0000
 73 H      1.0095     1.0000    -0.0095     1.0003     1.0003    -0.0000
 74 H      0.9435     1.0000     0.0565     1.0100     1.0100    -0.0000
 75 H      0.9336     1.0000     0.0664     0.9844     0.9844    -0.0000
 76 H      0.9287     1.0000     0.0713     0.9720     0.9720    -0.0000
 77 H      0.9348     1.0000     0.0652     0.9854     0.9854    -0.0000
 78 H      0.9355     1.0000     0.0645     0.9852     0.9852    -0.0000
 79 H      1.0157     1.0000    -0.0157     0.9980     0.9980     0.0000
 80 H      0.9427     1.0000     0.0573     1.0072     1.0072     0.0000
 81 H      0.9461     1.0000     0.0539     0.9856     0.9856     0.0000
 82 H      1.0244     1.0000    -0.0244     0.9937     0.9937     0.0000
 83 H      0.9578     1.0000     0.0422     1.0085     1.0085     0.0000
 84 H      0.9461     1.0000     0.0539     0.9853     0.9853     0.0000
 85 H      0.9396     1.0000     0.0604     0.9716     0.9716    -0.0000
 86 H      0.9443     1.0000     0.0557     0.9839     0.9839     0.0000
 87 H      0.9431     1.0000     0.0569     0.9856     0.9856    -0.0000
 88 H      1.0163     1.0000    -0.0163     0.9962     0.9962    -0.0000
 89 H      0.9546     1.0000     0.0454     1.0074     1.0074    -0.0000

  Mayer bond orders larger than 0.100000
B(  0-C ,  1-N ) :   1.0964 B(  0-C , 17-C ) :   1.6894 B(  0-C , 52-H ) :   0.9681 
B(  1-N ,  8-C ) :   1.0890 B(  1-N , 10-C ) :   0.9749 B(  2-C , 12-C ) :   1.5151 
B(  2-C , 16-C ) :   1.3491 B(  2-C , 53-H ) :   0.9760 B(  3-N , 14-C ) :   1.2165 
B(  3-N , 16-C ) :   1.1917 B(  3-N , 61-H ) :   0.8990 B(  4-C ,  6-C ) :   1.2189 
B(  4-C , 17-C ) :   1.2208 B(  4-C , 18-C ) :   1.4059 B(  5-N , 19-C ) :   1.4464 
B(  5-N , 27-C ) :   1.3838 B(  6-C ,  8-C ) :   1.6965 B(  6-C , 54-H ) :   0.9619 
B(  7-N , 30-C ) :   1.1955 B(  7-N , 38-C ) :   1.1933 B(  7-N , 62-H ) :   0.8972 
B(  8-C , 55-H ) :   0.9681 B(  9-N , 41-C ) :   1.3974 B(  9-N , 49-C ) :   1.4232 
B( 10-C , 56-H ) :   0.9768 B( 10-C , 57-H ) :   0.9821 B( 10-C , 58-H ) :   0.9842 
B( 11-N , 20-C ) :   1.1294 B( 11-N , 24-C ) :   1.1108 B( 11-N , 25-C ) :   0.9597 
B( 12-C , 14-C ) :   1.3501 B( 12-C , 59-H ) :   0.9743 B( 13-N , 31-C ) :   1.1505 
B( 13-N , 35-C ) :   1.1471 B( 13-N , 36-C ) :   0.9466 B( 14-C , 18-C ) :   1.1426 
B( 15-N , 42-C ) :   1.1094 B( 15-N , 46-C ) :   1.1211 B( 15-N , 47-C ) :   0.9617 
B( 16-C , 51-C ) :   1.1771 B( 17-C , 60-H ) :   0.9641 B( 18-C , 19-C ) :   1.1495 
B( 19-C , 21-C ) :   1.2378 B( 20-C , 28-C ) :   1.6272 B( 20-C , 63-H ) :   0.9703 
B( 21-C , 26-C ) :   1.6177 B( 21-C , 64-H ) :   0.9697 B( 22-C , 23-C ) :   1.2884 
B( 22-C , 28-C ) :   1.2666 B( 22-C , 29-C ) :   1.2238 B( 23-C , 24-C ) :   1.6194 
B( 23-C , 65-H ) :   0.9705 B( 24-C , 66-H ) :   0.9694 B( 25-C , 67-H ) :   0.9760 
B( 25-C , 68-H ) :   0.9828 B( 25-C , 69-H ) :   0.9823 B( 26-C , 27-C ) :   1.2338 
B( 26-C , 70-H ) :   0.9714 B( 27-C , 29-C ) :   1.2183 B( 28-C , 71-H ) :   0.9718 
B( 29-C , 30-C ) :   1.2339 B( 30-C , 32-C ) :   1.2899 B( 31-C , 39-C ) :   1.6003 
B( 31-C , 72-H ) :   0.9686 B( 32-C , 37-C ) :   1.5688 B( 32-C , 73-H ) :   0.9784 
B( 33-C , 34-C ) :   1.2982 B( 33-C , 39-C ) :   1.2934 B( 33-C , 40-C ) :   1.1966 
B( 34-C , 35-C ) :   1.5974 B( 34-C , 74-H ) :   0.9699 B( 35-C , 75-H ) :   0.9686 
B( 36-C , 76-H ) :   0.9766 B( 36-C , 77-H ) :   0.9817 B( 36-C , 78-H ) :   0.9826 
B( 37-C , 38-C ) :   1.2939 B( 37-C , 79-H ) :   0.9769 B( 38-C , 40-C ) :   1.2254 
B( 39-C , 80-H ) :   0.9708 B( 40-C , 41-C ) :   1.2423 B( 41-C , 43-C ) :   1.1923 
B( 42-C , 50-C ) :   1.6335 B( 42-C , 81-H ) :   0.9697 B( 43-C , 48-C ) :   1.6599 
B( 43-C , 82-H ) :   0.9726 B( 44-C , 45-C ) :   1.2652 B( 44-C , 50-C ) :   1.2707 
B( 44-C , 51-C ) :   1.2595 B( 45-C , 46-C ) :   1.6346 B( 45-C , 83-H ) :   0.9717 
B( 46-C , 84-H ) :   0.9701 B( 47-C , 85-H ) :   0.9762 B( 47-C , 86-H ) :   0.9829 
B( 47-C , 87-H ) :   0.9825 B( 48-C , 49-C ) :   1.1951 B( 48-C , 88-H ) :   0.9746 
B( 49-C , 51-C ) :   1.2364 B( 50-C , 89-H ) :   0.9711 

-------
TIMINGS
-------

Total SCF time: 0 days 0 hours 30 min 46 sec 

Total time                  ....    1846.573 sec
Sum of individual times     ....    1841.811 sec  ( 99.7%)

Fock matrix formation       ....    1817.591 sec  ( 98.4%)
Diagonalization             ....       7.095 sec  (  0.4%)
Density matrix formation    ....       0.726 sec  (  0.0%)
Population analysis         ....       0.577 sec  (  0.0%)
Initial guess               ....       2.050 sec  (  0.1%)
Orbital Transformation      ....       0.000 sec  (  0.0%)
Orbital Orthonormalization  ....       0.000 sec  (  0.0%)
DIIS solution               ....       3.592 sec  (  0.2%)
SOSCF solution              ....       9.128 sec  (  0.5%)

Maximum memory used throughout the entire SCF-calculation: 302.6 MB


           ************************************************************
           *        Program running with 16 parallel MPI-processes    *
           *              working on a common directory               *
           ************************************************************

------------------------------------------------------------------------------
                                ORCA  MP2 
------------------------------------------------------------------------------

Freezing NCore=104 chemical core electrons

----------
MP2 ENERGY (disk based algorithm)
----------

Dimension of the basis                    ...  918
Memory devoted to MP2                     ... 2000 MB   
Data format for buffers                   ... DOUBLE
Compression type for matrix containers    ... UNCOMPRESSED

-------------------------------
PARTIAL EXCHANGE TRANSFORMATION
-------------------------------

Transformation type                        ... one-operator
Generation of integrals (i,mue|j,nue)      ... ON
Generation of integrals (mue,kappa|nue,tau)... OFF
Generation of integrals (i,mue|a,nue)      ... OFF
Dimension of the basis                     ...  918
Number of internal MOs                     ...  127 (  52- 178)
Pair cutoff                                ... 2.500e-12 Eh
Number of AO pairs in the trafo            ... 421821
Total Number of distinct AO pairs          ... 421821
Memory devoted for trafo                   ... 2000.0 MB 
Max. Number of MO pairs treated together   ...  311      
Number Format for Storage                  ... Double (8 Byte)
Integral package used                      ... LIBINT

Starting integral evaluation:
    ... done with AO integral generation
Closing buffer AOK     (38.23 GB; CompressionRatio= 1.33)
Collecting buffer AOK 
Number of MO pairs included in the trafo   ... 8128
------------------------
SORTING OF (i,mue|j,nue)
------------------------

IBATCH = 1 of  2
IBATCH = 2 of  2
Closing buffer KAO     (51.03 GB; CompressionRatio= 1.00)
Collecting buffer KAO 
N(AO-Batches) Done                         ...  85805743 
N(AO-Batches) Skipped                      ...  82456742 
N(IJ)-pairs Skipped                        ...         0 
TOTAL TIME for half transformation         ...  3030.792 sec
AO-integral generation                     ...   215.171 sec
Half transformation                        ...   378.501 sec
K-integral sorting                         ...  2269.983 sec
Process 13:   Internal MO 156
Process 10:   Internal MO 132
Process  1:   Internal MO  60
Process  4:   Internal MO  84
Process  7:   Internal MO 108

Finished integral transformation - now doing MP2 part

OPERATOR COMBINATION   0   0: ij=( 52..178, 52..178)
Process  0:   Internal MO  54
Process  0:   Internal MO  57
Process  2:   Internal MO  69
Process  1:   Internal MO  63
Process  5:   Internal MO  93
Process  3:   Internal MO  78
Process  8:   Internal MO 117
Process  1:   Internal MO  66
Process  2:   Internal MO  72
Process 11:   Internal MO 141
Process  6:   Internal MO 102
Process  4:   Internal MO  87
Process 14:   Internal MO 165
Process  3:   Internal MO  81
Process  2:   Internal MO  75
Process  9:   Internal MO 126
Process  7:   Internal MO 111
Process  5:   Internal MO  96
Process 12:   Internal MO 150
Process  4:   Internal MO  90
Process 15:   Internal MO 174
Process 10:   Internal MO 135
Process  6:   Internal MO 105
Process  8:   Internal MO 120
Process  5:   Internal MO  99
Process 13:   Internal MO 159
Process  7:   Internal MO 114
Process 11:   Internal MO 144
Process  9:   Internal MO 129
Process 12:   Internal MO 153
Process 14:   Internal MO 168
Process  8:   Internal MO 123
Process 10:   Internal MO 138
Process 15:   Internal MO 177
Process 11:   Internal MO 147
Process 13:   Internal MO 162
Process 14:   Internal MO 171
-----------------------------------------------
 MP2 CORRELATION ENERGY   :     -7.284295918 Eh
-----------------------------------------------


-------
TIMINGS
-------
Total time                : 3591.925 sec
Integral trafo            : 3032.879 sec ( 84.4%)
K(i,j)                    :    7.662 sec (  0.2%)
T(i,j)                    :    0.157 sec (  0.0%)

---------------------------------------
MP2 TOTAL ENERGY:    -2130.900603057 Eh
---------------------------------------

Maximum memory used throughout the entire MP2-calculation: 2275.3 MB

-------------------------   --------------------
FINAL SINGLE POINT ENERGY     -2130.900603057365
-------------------------   --------------------


                            ***************************************
                            *     ORCA property calculations      *
                            ***************************************


  WARNING: The energy has been calculated at the MP2 level but the densities
           used in the property calculations are still SCF densities
           MP2 response densities have not been calculated 
           use %mp2 Density relaxed end
           or  %mp2 Density unrelaxed end

                                    ---------------------
                                    Active property flags
                                    ---------------------
   (+) Dipole Moment


------------------------------------------------------------------------------
                       ORCA ELECTRIC PROPERTIES CALCULATION
------------------------------------------------------------------------------

Dipole Moment Calculation                       ... on
Quadrupole Moment Calculation                   ... off
Polarizability Calculation                      ... off
GBWName                                         ... /scratch/allen/tmpyp4_amber_gaff2/conf1/conf1/Conf39.orca.gbw
Electron density                                ... /scratch/allen/tmpyp4_amber_gaff2/conf1/conf1/Conf39.orca.scfp
The origin for moment calculation is the CENTER OF MASS  = (-0.000369, -0.004400  0.003568)

-------------
DIPOLE MOMENT
-------------
                                X             Y             Z
Electronic contribution:      1.99266      -3.30746      -0.11992
Nuclear contribution   :     -0.04925       0.15235       0.14573
                        -----------------------------------------
Total Dipole Moment    :      1.94341      -3.15511       0.02581
                        -----------------------------------------
Magnitude (a.u.)       :      3.70570
Magnitude (Debye)      :      9.41915



--------------------
Rotational spectrum 
--------------------
 
Rotational constants in cm-1:     0.001501     0.001476     0.000761 
Rotational constants in MHz :    45.003803    44.250555    22.811883 

 Dipole components along the rotational axes: 
x,y,z [a.u.] :     2.666856     2.572797     0.028667 
x,y,z [Debye]:     6.778610     6.539531     0.072866 

 

Timings for individual modules:

Sum of individual times         ...     5465.882 sec (=  91.098 min)
GTO integral calculation        ...        3.257 sec (=   0.054 min)   0.1 %
SCF iterations                  ...     1847.650 sec (=  30.794 min)  33.8 %
MP2 module                      ...     3614.975 sec (=  60.250 min)  66.1 %
                             ****ORCA TERMINATED NORMALLY****
TOTAL RUN TIME: 0 days 1 hours 31 minutes 9 seconds 201 msec
# of primitive gaussian functions

