
                                 *****************
                                 * O   R   C   A *
                                 *****************

                                            #,                                       
                                            ###                                      
                                            ####                                     
                                            #####                                    
                                            ######                                   
                                           ########,                                 
                                     ,,################,,,,,                         
                               ,,#################################,,                 
                          ,,##########################################,,             
                       ,#########################################, ''#####,          
                    ,#############################################,,   '####,        
                  ,##################################################,,,,####,       
                ,###########''''           ''''###############################       
              ,#####''   ,,,,##########,,,,          '''####'''          '####       
            ,##' ,,,,###########################,,,                        '##       
           ' ,,###''''                  '''############,,,                           
         ,,##''                                '''############,,,,        ,,,,,,###''
      ,#''                                            '''#######################'''  
     '                                                          ''''####''''         
             ,#######,   #######,   ,#######,      ##                                
            ,#'     '#,  ##    ##  ,#'     '#,    #''#        ######   ,####,        
            ##       ##  ##   ,#'  ##            #'  '#       #        #'  '#        
            ##       ##  #######   ##           ,######,      #####,   #    #        
            '#,     ,#'  ##    ##  '#,     ,#' ,#      #,         ##   #,  ,#        
             '#######'   ##     ##  '#######'  #'      '#     #####' # '####'        



                  #######################################################
                  #                        -***-                        #
                  #          Department of theory and spectroscopy      #
                  #    Directorship and core code : Frank Neese         #
                  #        Max Planck Institute fuer Kohlenforschung    #
                  #                Kaiser Wilhelm Platz 1               #
                  #                 D-45470 Muelheim/Ruhr               #
                  #                      Germany                        #
                  #                                                     #
                  #                  All rights reserved                #
                  #                        -***-                        #
                  #######################################################


                         Program Version 5.0.4 -  RELEASE  -


 With contributions from (in alphabetic order):
   Daniel Aravena         : Magnetic Suceptibility
   Michael Atanasov       : Ab Initio Ligand Field Theory (pilot matlab implementation)
   Alexander A. Auer      : GIAO ZORA, VPT2 properties, NMR spectrum
   Ute Becker             : Parallelization
   Giovanni Bistoni       : ED, misc. LED, open-shell LED, HFLD
   Martin Brehm           : Molecular dynamics
   Dmytro Bykov           : SCF Hessian
   Vijay G. Chilkuri      : MRCI spin determinant printing, contributions to CSF-ICE
   Dipayan Datta          : RHF DLPNO-CCSD density
   Achintya Kumar Dutta   : EOM-CC, STEOM-CC
   Dmitry Ganyushin       : Spin-Orbit,Spin-Spin,Magnetic field MRCI
   Miquel Garcia          : C-PCM and meta-GGA Hessian, CC/C-PCM, Gaussian charge scheme
   Yang Guo               : DLPNO-NEVPT2, F12-NEVPT2, CIM, IAO-localization
   Andreas Hansen         : Spin unrestricted coupled pair/coupled cluster methods
   Benjamin Helmich-Paris : MC-RPA, TRAH-SCF, COSX integrals
   Lee Huntington         : MR-EOM, pCC
   Robert Izsak           : Overlap fitted RIJCOSX, COSX-SCS-MP3, EOM
   Marcus Kettner         : VPT2
   Christian Kollmar      : KDIIS, OOCD, Brueckner-CCSD(T), CCSD density, CASPT2, CASPT2-K
   Simone Kossmann        : Meta GGA functionals, TD-DFT gradient, OOMP2, MP2 Hessian
   Martin Krupicka        : Initial AUTO-CI
   Lucas Lang             : DCDCAS
   Marvin Lechner         : AUTO-CI (C++ implementation), FIC-MRCC
   Dagmar Lenk            : GEPOL surface, SMD
   Dimitrios Liakos       : Extrapolation schemes; Compound Job, initial MDCI parallelization
   Dimitrios Manganas     : Further ROCIS development; embedding schemes
   Dimitrios Pantazis     : SARC Basis sets
   Anastasios Papadopoulos: AUTO-CI, single reference methods and gradients
   Taras Petrenko         : DFT Hessian,TD-DFT gradient, ASA, ECA, R-Raman, ABS, FL, XAS/XES, NRVS
   Peter Pinski           : DLPNO-MP2, DLPNO-MP2 Gradient
   Christoph Reimann      : Effective Core Potentials
   Marius Retegan         : Local ZFS, SOC
   Christoph Riplinger    : Optimizer, TS searches, QM/MM, DLPNO-CCSD(T), (RO)-DLPNO pert. Triples
   Tobias Risthaus        : Range-separated hybrids, TD-DFT gradient, RPA, STAB
   Michael Roemelt        : Original ROCIS implementation
   Masaaki Saitow         : Open-shell DLPNO-CCSD energy and density
   Barbara Sandhoefer     : DKH picture change effects
   Avijit Sen             : IP-ROCIS
   Kantharuban Sivalingam : CASSCF convergence, NEVPT2, FIC-MRCI
   Bernardo de Souza      : ESD, SOC TD-DFT
   Georgi Stoychev        : AutoAux, RI-MP2 NMR, DLPNO-MP2 response
   Willem Van den Heuvel  : Paramagnetic NMR
   Boris Wezisla          : Elementary symmetry handling
   Frank Wennmohs         : Technical directorship


 We gratefully acknowledge several colleagues who have allowed us to
 interface, adapt or use parts of their codes:
   Stefan Grimme, W. Hujo, H. Kruse, P. Pracht,  : VdW corrections, initial TS optimization,
                  C. Bannwarth, S. Ehlert          DFT functionals, gCP, sTDA/sTD-DF
   Ed Valeev, F. Pavosevic, A. Kumar             : LibInt (2-el integral package), F12 methods
   Garnet Chan, S. Sharma, J. Yang, R. Olivares  : DMRG
   Ulf Ekstrom                                   : XCFun DFT Library
   Mihaly Kallay                                 : mrcc  (arbitrary order and MRCC methods)
   Jiri Pittner, Ondrej Demel                    : Mk-CCSD
   Frank Weinhold                                : gennbo (NPA and NBO analysis)
   Christopher J. Cramer and Donald G. Truhlar   : smd solvation model
   Lars Goerigk                                  : TD-DFT with DH, B97 family of functionals
   V. Asgeirsson, H. Jonsson                     : NEB implementation
   FAccTs GmbH                                   : IRC, NEB, NEB-TS, DLPNO-Multilevel, CI-OPT
                                                   MM, QMMM, 2- and 3-layer-ONIOM, Crystal-QMMM,
                                                   LR-CPCM, SF, NACMEs, symmetry and pop. for TD-DFT,
                                                   nearIR, NL-DFT gradient (VV10), updates on ESD,
                                                   ML-optimized integration grids
   S Lehtola, MJT Oliveira, MAL Marques          : LibXC Library
   Liviu Ungur et al                             : ANISO software


 Your calculation uses the libint2 library for the computation of 2-el integrals
 For citations please refer to: http://libint.valeyev.net

 Your ORCA version has been built with support for libXC version: 5.1.0
 For citations please refer to: https://tddft.org/programs/libxc/

 This ORCA versions uses:
   CBLAS   interface :  Fast vector & matrix operations
   LAPACKE interface :  Fast linear algebra routines
   SCALAPACK package :  Parallel linear algebra routines
   Shared memory     :  Shared parallel matrices
   BLAS/LAPACK       :  OpenBLAS 0.3.15  USE64BITINT DYNAMIC_ARCH NO_AFFINITY Sandybridge SINGLE_THREADED
        Core in use  :  Sandybridge
   Copyright (c) 2011-2014, The OpenBLAS Project


================================================================================

----- Orbital basis set information -----
Your calculation utilizes the basis: cc-pVDZ 
       H, B-Ne : Obtained from the ccRepo (grant-hill.group.shef.ac.uk/ccrepo) Feb. 2017
                 T. H. Dunning, Jr., J. Chem. Phys. 90, 1007 (1989)
            He : Obtained from the ccRepo (grant-hill.group.shef.ac.uk/ccrepo) Feb. 2017
                 D. E. Woon, T. H. Dunning, Jr., J. Chem. Phys. 100, 2975 (1994)
  Li-Be, Na-Mg : Obtained from the ccRepo (grant-hill.group.shef.ac.uk/ccrepo) Feb. 2017
                 B. P. Prascher, D. E. Woon, K. A. Peterson, T. H. Dunning, Jr., A. K. Wilson, Theor. Chem. Acc. 128, 69 (2011)
         Al-Ar : Obtained from the ccRepo (grant-hill.group.shef.ac.uk/ccrepo) Feb. 2017
                 D. E. Woon, T. H. Dunning, Jr., J. Chem. Phys. 98, 1358 (1993)
            Ca : Obtained from the Peterson Research Group Website (tyr0.chem.wsu.edu/~kipeters) Feb. 2017
                 J. Koput, K. A. Peterson, J. Phys. Chem. 106, 9595 (2002)
         Sc-Zn : Obtained from the ccRepo (grant-hill.group.shef.ac.uk/ccrepo) Feb. 2017
                 N. B. Balabanov, K. A. Peterson, J. Chem. Phys. 123, 064107 (2005)
                 N. B. Balabanov, K. A. Peterson, J. Chem. Phys. 125, 074110 (2006)
         Ga-Kr : Obtained from the ccRepo (grant-hill.group.shef.ac.uk/ccrepo) Feb. 2017
                 A. K. Wilson, D. E. Woon, K. A. Peterson, T. H. Dunning, Jr., J. Chem. Phys. 110, 7667 (1999)

================================================================================
                                        WARNINGS
                       Please study these warnings very carefully!
================================================================================


WARNING: No MP2 level density has been requested!
         To caclulate MP2 level properties use
         %mp2 Density relaxed end
         or
         %mp2 Density unrelaxed end

WARNING: Post HF methods need fully converged wavefunctions
  ===> : Setting SCFConvForced true
         You can overwrite this default with %scf ConvForced false 


INFO   : the flag for use of the SHARK integral package has been found!

================================================================================
                                       INPUT FILE
================================================================================
NAME = /scratch/allen/tmpyp4_amber_gaff2/2.Mdgx/conf11/conf11/Conf197.orca
|  1> ! PAL2
|  2> ! mp2 cc-pvdz TightSCF  NoKeepInts
|  3> 
|  4> %scf
|  5>   MaxCore 2000
|  6> end
|  7> %mp2
|  8>   MaxCore 2000
|  9> end
| 10> * xyz 0 1
| 11>    C       -4.92200         5.19800         0.37700
| 12>    C        1.47400         4.04100         0.05700
| 13>    C       -2.80200         4.09300         0.04900
| 14>    C       -2.25300         5.34800        -0.25700
| 15>    C       -3.04800         6.47700        -0.23400
| 16>    C       -5.17800         7.62500         0.12900
| 17>    C        0.13200         4.30700         0.06100
| 18>    C       -0.56900         3.05600         0.04700
| 19>    C        1.64900         2.61800         0.02300
| 20>    C       -4.16700         4.04200         0.37300
| 21>    N       -4.36200         6.39200         0.07600
| 22>    N        0.38800         2.06700         0.02500
| 23>    N       -2.01000         0.39500        -0.07500
| 24>    N       -0.38800        -2.07400        -0.02700
| 25>    N        2.01000        -0.40100         0.06500
| 26>    C       -1.96000         2.86100         0.02400
| 27>    C       -2.62300         1.61500        -0.01800
| 28>    C       -5.57300        -4.32900         1.06600
| 29>    C       -4.07300         1.47100         0.05600
| 30>    C       -4.10600        -2.75600        -0.02600
| 31>    C       -4.99500        -2.75700        -1.11100
| 32>    C       -6.13200        -3.54200        -1.07600
| 33>    C       -7.65100        -5.11300         0.04000
| 34>    C       -4.32400         0.14100         0.03700
| 35>    C       -3.02500        -0.52000        -0.04800
| 36>    C       -4.42200        -3.56600         1.07500
| 37>    N       -6.40700        -4.31300         0.00100
| 38>    C       -2.86700        -1.92200        -0.04000
| 39>    C       -1.65000        -2.62400        -0.02700
| 40>    C        3.56800        -6.14200        -1.04000
| 41>    C       -1.47600        -4.04900        -0.03400
| 42>    C        2.80300        -4.09900        -0.00800
| 43>    C        3.65700        -4.38400         1.06900
| 44>    C        4.42700        -5.53000         1.05900
| 45>    C        5.24500        -7.58800         0.01400
| 46>    C       -0.13400        -4.31500        -0.02200
| 47>    C        0.56800        -3.06400        -0.02700
| 48>    C        2.77500        -5.01200        -1.07400
| 49>    N        4.37600        -6.39100         0.01700
| 50>    C        1.95900        -2.86900        -0.00900
| 51>    C        2.62100        -1.62200         0.00900
| 52>    C        5.54300         4.33900        -1.13000
| 53>    C        4.07000        -1.47900        -0.09400
| 54>    C        4.10400         2.75100        -0.02100
| 55>    C        5.02700         2.72900         1.03600
| 56>    C        6.16600         3.50900         0.97800
| 57>    C        7.61900         5.15300        -0.11500
| 58>    C        4.32100        -0.14800        -0.09200
| 59>    C        3.02500         0.51400         0.01500
| 60>    C        4.38700         3.58200        -1.11500
| 61>    C        2.86600         1.91600         0.01300
| 62>    N        6.41300         4.29600        -0.09500
| 63>    H       -5.98000         5.20400         0.60800
| 64>    H        2.27400         4.76600         0.08100
| 65>    H       -1.20400         5.45300        -0.50600
| 66>    H       -2.66800         7.46600        -0.45400
| 67>    H       -5.08000         8.07400         1.12000
| 68>    H       -4.81900         8.31700        -0.63300
| 69>    H       -6.21900         7.36600        -0.06300
| 70>    H       -0.33200         5.28200         0.06900
| 71>    H       -4.65200         3.10100         0.60500
| 72>    H        0.18200         1.07200         0.00500
| 73>    H       -0.18300        -1.08000        -0.02100
| 74>    H       -5.86400        -4.96200         1.89500
| 75>    H       -4.79400         2.27200         0.13900
| 76>    H       -4.80000        -2.16000        -1.99400
| 77>    H       -6.84100        -3.58200        -1.89300
| 78>    H       -8.42800        -4.53600         0.54600
| 79>    H       -7.95600        -5.33700        -0.98100
| 80>    H       -7.45600        -6.03700         0.58400
| 81>    H       -5.28700        -0.34400         0.10000
| 82>    H       -3.78000        -3.60100         1.94700
| 83>    H        3.58700        -6.86800        -1.84300
| 84>    H       -2.27600        -4.77400        -0.05000
| 85>    H        3.71400        -3.72400         1.92600
| 86>    H        5.09200        -5.79500         1.87100
| 87>    H        6.20500        -7.32900        -0.43900
| 88>    H        5.39300        -7.91700         1.04200
| 89>    H        4.75900        -8.37300        -0.56400
| 90>    H        0.32900        -5.29000        -0.00800
| 91>    H        2.14600        -4.84200        -1.94000
| 92>    H        5.80800         4.98600        -1.95600
| 93>    H        4.78800        -2.28100        -0.18500
| 94>    H        4.86000         2.11400         1.91200
| 95>    H        6.90100         3.53100         1.77200
| 96>    H        7.38300         6.10900         0.35600
| 97>    H        8.41400         4.65200         0.43500
| 98>    H        7.92100         5.31000        -1.15000
| 99>    H        5.28300         0.33600        -0.17900
|100>    H        3.72000         3.63200        -1.96700
|101> *
|102> 
|103>                          ****END OF INPUT****
================================================================================

                       ****************************
                       * Single Point Calculation *
                       ****************************

---------------------------------
CARTESIAN COORDINATES (ANGSTROEM)
---------------------------------
  C     -4.922000    5.198000    0.377000
  C      1.474000    4.041000    0.057000
  C     -2.802000    4.093000    0.049000
  C     -2.253000    5.348000   -0.257000
  C     -3.048000    6.477000   -0.234000
  C     -5.178000    7.625000    0.129000
  C      0.132000    4.307000    0.061000
  C     -0.569000    3.056000    0.047000
  C      1.649000    2.618000    0.023000
  C     -4.167000    4.042000    0.373000
  N     -4.362000    6.392000    0.076000
  N      0.388000    2.067000    0.025000
  N     -2.010000    0.395000   -0.075000
  N     -0.388000   -2.074000   -0.027000
  N      2.010000   -0.401000    0.065000
  C     -1.960000    2.861000    0.024000
  C     -2.623000    1.615000   -0.018000
  C     -5.573000   -4.329000    1.066000
  C     -4.073000    1.471000    0.056000
  C     -4.106000   -2.756000   -0.026000
  C     -4.995000   -2.757000   -1.111000
  C     -6.132000   -3.542000   -1.076000
  C     -7.651000   -5.113000    0.040000
  C     -4.324000    0.141000    0.037000
  C     -3.025000   -0.520000   -0.048000
  C     -4.422000   -3.566000    1.075000
  N     -6.407000   -4.313000    0.001000
  C     -2.867000   -1.922000   -0.040000
  C     -1.650000   -2.624000   -0.027000
  C      3.568000   -6.142000   -1.040000
  C     -1.476000   -4.049000   -0.034000
  C      2.803000   -4.099000   -0.008000
  C      3.657000   -4.384000    1.069000
  C      4.427000   -5.530000    1.059000
  C      5.245000   -7.588000    0.014000
  C     -0.134000   -4.315000   -0.022000
  C      0.568000   -3.064000   -0.027000
  C      2.775000   -5.012000   -1.074000
  N      4.376000   -6.391000    0.017000
  C      1.959000   -2.869000   -0.009000
  C      2.621000   -1.622000    0.009000
  C      5.543000    4.339000   -1.130000
  C      4.070000   -1.479000   -0.094000
  C      4.104000    2.751000   -0.021000
  C      5.027000    2.729000    1.036000
  C      6.166000    3.509000    0.978000
  C      7.619000    5.153000   -0.115000
  C      4.321000   -0.148000   -0.092000
  C      3.025000    0.514000    0.015000
  C      4.387000    3.582000   -1.115000
  C      2.866000    1.916000    0.013000
  N      6.413000    4.296000   -0.095000
  H     -5.980000    5.204000    0.608000
  H      2.274000    4.766000    0.081000
  H     -1.204000    5.453000   -0.506000
  H     -2.668000    7.466000   -0.454000
  H     -5.080000    8.074000    1.120000
  H     -4.819000    8.317000   -0.633000
  H     -6.219000    7.366000   -0.063000
  H     -0.332000    5.282000    0.069000
  H     -4.652000    3.101000    0.605000
  H      0.182000    1.072000    0.005000
  H     -0.183000   -1.080000   -0.021000
  H     -5.864000   -4.962000    1.895000
  H     -4.794000    2.272000    0.139000
  H     -4.800000   -2.160000   -1.994000
  H     -6.841000   -3.582000   -1.893000
  H     -8.428000   -4.536000    0.546000
  H     -7.956000   -5.337000   -0.981000
  H     -7.456000   -6.037000    0.584000
  H     -5.287000   -0.344000    0.100000
  H     -3.780000   -3.601000    1.947000
  H      3.587000   -6.868000   -1.843000
  H     -2.276000   -4.774000   -0.050000
  H      3.714000   -3.724000    1.926000
  H      5.092000   -5.795000    1.871000
  H      6.205000   -7.329000   -0.439000
  H      5.393000   -7.917000    1.042000
  H      4.759000   -8.373000   -0.564000
  H      0.329000   -5.290000   -0.008000
  H      2.146000   -4.842000   -1.940000
  H      5.808000    4.986000   -1.956000
  H      4.788000   -2.281000   -0.185000
  H      4.860000    2.114000    1.912000
  H      6.901000    3.531000    1.772000
  H      7.383000    6.109000    0.356000
  H      8.414000    4.652000    0.435000
  H      7.921000    5.310000   -1.150000
  H      5.283000    0.336000   -0.179000
  H      3.720000    3.632000   -1.967000

----------------------------
CARTESIAN COORDINATES (A.U.)
----------------------------
  NO LB      ZA    FRAG     MASS         X           Y           Z
   0 C     6.0000    0    12.011   -9.301232    9.822796    0.712427
   1 C     6.0000    0    12.011    2.785456    7.636383    0.107714
   2 C     6.0000    0    12.011   -5.295013    7.734649    0.092597
   3 C     6.0000    0    12.011   -4.257553   10.106255   -0.485660
   4 C     6.0000    0    12.011   -5.759885   12.239756   -0.442196
   5 C     6.0000    0    12.011   -9.785002   14.409162    0.243775
   6 C     6.0000    0    12.011    0.249444    8.139050    0.115273
   7 C     6.0000    0    12.011   -1.075254    5.775003    0.088817
   8 C     6.0000    0    12.011    3.116158    4.947303    0.043464
   9 C     6.0000    0    12.011   -7.874489    7.638273    0.704868
  10 N     7.0000    0    14.007   -8.242985   12.079129    0.143619
  11 N     7.0000    0    14.007    0.733214    3.906064    0.047243
  12 N     7.0000    0    14.007   -3.798350    0.746442   -0.141729
  13 N     7.0000    0    14.007   -0.733214   -3.919292   -0.051023
  14 N     7.0000    0    14.007    3.798350   -0.757780    0.122832
  15 C     6.0000    0    12.011   -3.703863    5.406506    0.045353
  16 C     6.0000    0    12.011   -4.956752    3.051908   -0.034015
  17 C     6.0000    0    12.011  -10.531444   -8.180624    2.014448
  18 C     6.0000    0    12.011   -7.696855    2.779787    0.105825
  19 C     6.0000    0    12.011   -7.759216   -5.208085   -0.049133
  20 C     6.0000    0    12.011   -9.439182   -5.209975   -2.099486
  21 C     6.0000    0    12.011  -11.587801   -6.693410   -2.033345
  22 C     6.0000    0    12.011  -14.458295   -9.662170    0.075589
  23 C     6.0000    0    12.011   -8.171176    0.266451    0.069920
  24 C     6.0000    0    12.011   -5.716422   -0.982658   -0.090707
  25 C     6.0000    0    12.011   -8.356369   -6.738763    2.031456
  26 N     7.0000    0    14.007  -12.107475   -8.150389    0.001890
  27 C     6.0000    0    12.011   -5.417845   -3.632054   -0.075589
  28 C     6.0000    0    12.011   -3.118048   -4.958641   -0.051023
  29 C     6.0000    0    12.011    6.742543  -11.606698   -1.965315
  30 C     6.0000    0    12.011   -2.789236   -7.651501   -0.064251
  31 C     6.0000    0    12.011    5.296902   -7.745987   -0.015118
  32 C     6.0000    0    12.011    6.910728   -8.284559    2.020117
  33 C     6.0000    0    12.011    8.365818  -10.450186    2.001220
  34 C     6.0000    0    12.011    9.911614  -14.339242    0.026456
  35 C     6.0000    0    12.011   -0.253223   -8.154168   -0.041574
  36 C     6.0000    0    12.011    1.073364   -5.790121   -0.051023
  37 C     6.0000    0    12.011    5.243990   -9.471307   -2.029566
  38 N     7.0000    0    14.007    8.269442  -12.077240    0.032125
  39 C     6.0000    0    12.011    3.701973   -5.421624   -0.017008
  40 C     6.0000    0    12.011    4.952972   -3.065136    0.017008
  41 C     6.0000    0    12.011   10.474752    8.199522   -2.135391
  42 C     6.0000    0    12.011    7.691185   -2.794905   -0.177634
  43 C     6.0000    0    12.011    7.755436    5.198637   -0.039684
  44 C     6.0000    0    12.011    9.499653    5.157063    1.957756
  45 C     6.0000    0    12.011   11.652051    6.631049    1.848152
  46 C     6.0000    0    12.011   14.397823    9.737759   -0.217319
  47 C     6.0000    0    12.011    8.165507   -0.279679   -0.173855
  48 C     6.0000    0    12.011    5.716422    0.971319    0.028346
  49 C     6.0000    0    12.011    8.290229    6.768999   -2.107045
  50 C     6.0000    0    12.011    5.415955    3.620715    0.024566
  51 N     7.0000    0    14.007   12.118814    8.118263   -0.179524
  52 H     1.0000    0     1.008  -11.300562    9.834135    1.148953
  53 H     1.0000    0     1.008    4.297237    9.006435    0.153068
  54 H     1.0000    0     1.008   -2.275230   10.304677   -0.956201
  55 H     1.0000    0     1.008   -5.041789   14.108695   -0.857936
  56 H     1.0000    0     1.008   -9.599809   15.257649    2.116493
  57 H     1.0000    0     1.008   -9.106590   15.716852   -1.196197
  58 H     1.0000    0     1.008  -11.752207   13.919723   -0.119053
  59 H     1.0000    0     1.008   -0.627389    9.981533    0.130391
  60 H     1.0000    0     1.008   -8.791006    5.860041    1.143284
  61 H     1.0000    0     1.008    0.343930    2.025786    0.009449
  62 H     1.0000    0     1.008   -0.345820   -2.040904   -0.039684
  63 H     1.0000    0     1.008  -11.081354   -9.376821    3.581031
  64 H     1.0000    0     1.008   -9.059347    4.293458    0.262672
  65 H     1.0000    0     1.008   -9.070685   -4.081808   -3.768114
  66 H     1.0000    0     1.008  -12.927616   -6.768999   -3.577252
  67 H     1.0000    0     1.008  -15.926612   -8.571798    1.031790
  68 H     1.0000    0     1.008  -15.034661  -10.085468   -1.853821
  69 H     1.0000    0     1.008  -14.089798  -11.408277    1.103600
  70 H     1.0000    0     1.008   -9.990982   -0.650066    0.188973
  71 H     1.0000    0     1.008   -7.143165   -6.804904    3.679297
  72 H     1.0000    0     1.008    6.778448  -12.978639   -3.482765
  73 H     1.0000    0     1.008   -4.301017   -9.021553   -0.094486
  74 H     1.0000    0     1.008    7.018443   -7.037340    3.639613
  75 H     1.0000    0     1.008    9.622485  -10.950963    3.535678
  76 H     1.0000    0     1.008   11.725751  -13.849803   -0.829590
  77 H     1.0000    0     1.008   10.191293  -14.960962    1.969095
  78 H     1.0000    0     1.008    8.993207  -15.822677   -1.065806
  79 H     1.0000    0     1.008    0.621720   -9.996651   -0.015118
  80 H     1.0000    0     1.008    4.055352   -9.150054   -3.666069
  81 H     1.0000    0     1.008   10.975529    9.422175   -3.696304
  82 H     1.0000    0     1.008    9.048009   -4.310465   -0.349599
  83 H     1.0000    0     1.008    9.184069    3.994881    3.613156
  84 H     1.0000    0     1.008   13.041000    6.672623    3.348595
  85 H     1.0000    0     1.008   13.951848   11.544337    0.672743
  86 H     1.0000    0     1.008   15.900156    8.791006    0.822031
  87 H     1.0000    0     1.008   14.968521   10.034446   -2.173185
  88 H     1.0000    0     1.008    9.983423    0.634948   -0.338261
  89 H     1.0000    0     1.008    7.029781    6.863485   -3.717091

--------------------------------
INTERNAL COORDINATES (ANGSTROEM)
--------------------------------
 C      0   0   0     0.000000000000     0.00000000     0.00000000
 C      1   0   0     6.507677389054     0.00000000     0.00000000
 C      1   2   0     2.413091171092    17.90606285     0.00000000
 C      3   1   2     1.403588971174    87.92682708   331.72797783
 C      4   3   1     1.381012309865   120.14397459     0.11598824
 C      5   4   3     2.446747432818   152.52173842     1.65349678
 C      2   1   3     1.368114030335     2.81857798    92.99899459
 C      7   2   4     1.434084376876   108.05010202   149.08009156
 C      2   1   3     1.434123425651   107.30801867   343.67202216
 C      1   2   7     1.380716118541    46.65179791   112.30734403
 N      1   2   7     1.352714677972    74.87712648   302.43308101
 N      9   2   1     1.376127174356   106.58526707     2.03765858
 N     12   9   2     2.925062050624   168.53581413   171.12065651
 N     13  12   9     2.954513327098    91.55032014    11.12112580
 N     14  13  12     2.925371258490    88.43092389   359.84326247
 C      8   7   2     1.404790019896   127.24786865   181.11170171
 C     13  12   9     1.366535034311    81.72106996   188.00453233
 C     14  13  12     5.758810554272    80.56209567   166.76250791
 C     17  13  12     1.459010623676   111.08861209   183.82872609
 C     18  14  13     2.412235892279    27.27532823    36.33507194
 C     20  18  14     1.402692767501    87.95206320   148.94598259
 C     21  20  18     1.382106725257   120.14573887   359.70382047
 C     18  14  13     2.446510985056   144.15733107    82.80075377
 C     19  17  13     1.353610726908   106.29293361   359.75308708
 C     13  12   9     1.366813447402   172.21332906    33.46711076
 C     18  14  13     1.380960173213    15.08449437   309.23336894
 N     22  21  20     1.352773077792   120.73759875     0.27865223
 C     25  13  17     1.410897586645   125.60330303   182.37774668
 C     14  13  12     1.376642291955    80.24689249   177.85461986
 C     14  13  12     5.764089607215   164.51507311   312.20821879
 C     29  14  13     1.435600919476   106.58649366   178.76395472
 C     30  14  13     2.413316804732    27.10625047    82.12560436
 C     32  30  14     1.403734305344    87.90059683   149.76154742
 C     33  32  30     1.380694028378   120.14881443   359.74174632
 C     34  33  32     2.448777858443   152.49203239     2.45173620
 C     31  29  14     1.368160809262   108.16950133     0.70383075
 C     14  13  12     1.376239804685   169.26375223   353.09862627
 C     30  14  13     1.380907310430    14.68948582   353.70041132
 N     34  33  32     1.352658863128   120.85575621     0.19603406
 C     37  14  29     1.404717053360   126.01551127   180.90772073
 C     15  14  13     1.366491126938    81.61824056   183.09049352
 C      2   1   3     4.249062720177   160.46836149   118.87547290
 C     41  15  14     1.459677704153   111.05201287   175.08990246
 C     42   2   1     2.412953791518    41.78584867   198.70634406
 C     44  42   2     1.403446472082    87.95153797   233.97558675
 C     45  44  42     1.381696421071   120.11137308     0.19721020
 C     42   2   1     2.450019795838   135.97209175   109.02119316
 C     43  41  15     1.354461516618   106.26758155     0.30894352
 C     15  14  13     1.367461151185   171.87382904   332.35056460
 C     42   2   1     1.381886391857    32.59078432   247.56162325
 C      9   2   1     1.404988612053   126.98745415   183.04199610
 N     42   2   1     1.352765315936   113.57249190   136.75778235
 H      1   2   7     1.082940903281   166.33112001   154.40524001
 H      2   1   3     1.079907866440   127.41893371   166.89259595
 H      4   3   1     1.083248355641   121.03464292   179.59562804
 H      5   4   3     1.082091031291   122.79555395   179.45531886
 H      6   5   4     1.092376308787   104.43883201   100.08847600
 H      6   5   4     1.090132560747    84.68960447   209.50748973
 H      6   5   4     1.089782547117   133.94175454   322.32785270
 H     55   4   3     1.058418631733   131.09319635   295.64830043
 H     10   1   2     1.083757352916   118.79193740   169.48754512
 H     12   9   2     1.016297692608   125.29023241   180.00180175
 H     14  13  12     1.014936943854    44.97226959   359.42596618
 H     18  14  13     1.082871645210   128.03556573   234.20482432
 H     61  10   1     0.961540950766   135.31087900   119.13664222
 H     21  20  18     1.083569563987   121.05669627   180.67006309
 H     22  21  20     1.082483256222   122.73097286   180.59748951
 H     23  18  14     1.092105306278   103.92715769   234.93429879
 H     23  18  14     1.088871893291   134.19244188    12.25587044
 H     23  18  14     1.089833473518    84.85857450   125.45241208
 H     24  19  17     1.080075460327   127.28078426   178.44613241
 H     26  18  14     1.083408048706   118.76995697   244.94906660
 H     30  14  13     1.082703098730   127.99711412   279.66882698
 H     31  29  14     1.079759695488   125.22293469   180.92530585
 H     33  32  30     1.083188810873   121.01964473   180.74284758
 H     34  33  32     1.082494341787   122.70821597   180.59516895
 H     35  34  33     1.092652735319   105.73575241    97.19771933
 H     35  34  33     1.089462711615    84.05943581   206.43036958
 H     35  34  33     1.089268102902   133.08365142   318.50306270
 H     36  31  29     1.079439669458   126.61599965   178.98859863
 H     38  30  73     1.083742127999   118.77264435   359.90091293
 H     42   2   1     1.082178358682   119.31790784   353.38931281
 H     43  41  15     1.080281907652   126.36969097   182.06329380
 H     45  44  42     1.083277434455   121.10105945   179.58025624
 H     46  45  44     1.082194529648   122.72144639   179.46906377
 H     47  42   2     1.091546151109   106.65128841   315.16475048
 H     47  42   2     1.088818625851   132.46019523    94.52397119
 H     47  42   2     1.089531091801    83.63838232   206.04504406
 H     48  43  41     1.080402239909   127.23657387   181.62955349
 H     50  42   2     1.083186502870   118.77001737    94.71359229

---------------------------
INTERNAL COORDINATES (A.U.)
---------------------------
 C      0   0   0     0.000000000000     0.00000000     0.00000000
 C      1   0   0    12.297728033223     0.00000000     0.00000000
 C      1   2   0     4.560081449546    17.90606285     0.00000000
 C      3   1   2     2.652398760110    87.92682708   331.72797783
 C      4   3   1     2.609735053220   120.14397459     0.11598824
 C      5   4   3     4.623682566900   152.52173842     1.65349678
 C      2   1   3     2.585360837309     2.81857798    92.99899459
 C      7   2   4     2.710026725231   108.05010202   149.08009156
 C      2   1   3     2.710100516721   107.30801867   343.67202216
 C      1   2   7     2.609175332734    46.65179791   112.30734403
 N      1   2   7     2.556260278702    74.87712648   302.43308101
 N      9   2   1     2.600503484979   106.58526707     2.03765858
 N     12   9   2     5.527566200405   168.53581413   171.12065651
 N     13  12   9     5.583221047236    91.55032014    11.12112580
 N     14  13  12     5.528150518591    88.43092389   359.84326247
 C      8   7   2     2.654668413270   127.24786865   181.11170171
 C     13  12   9     2.582376967257    81.72106996   188.00453233
 C     14  13  12    10.882574804710    80.56209567   166.76250791
 C     17  13  12     2.757130505230   111.08861209   183.82872609
 C     18  14  13     4.558465206823    27.27532823    36.33507194
 C     20  18  14     2.650705180609    87.95206320   148.94598259
 C     21  20  18     2.611803198586   120.14573887   359.70382047
 C     18  14  13     4.623235745386   144.15733107    82.80075377
 C     19  17  13     2.557953565794   106.29293361   359.75308708
 C     13  12   9     2.582903091751   172.21332906    33.46711076
 C     18  14  13     2.609636529225    15.08449437   309.23336894
 N     22  21  20     2.556370638369   120.73759875     0.27865223
 C     25  13  17     2.666210041769   125.60330303   182.37774668
 C     14  13  12     2.601476916169    80.24689249   177.85461986
 C     14  13  12    10.892550769017   164.51507311   312.20821879
 C     29  14  13     2.712892575415   106.58649366   178.76395472
 C     30  14  13     4.560507835333    27.10625047    82.12560436
 C     32  30  14     2.652673401891    87.90059683   149.76154742
 C     33  32  30     2.609133588376   120.14881443   359.74174632
 C     34  33  32     4.627519515267   152.49203239     2.45173620
 C     31  29  14     2.585449236669   108.16950133     0.70383075
 C     14  13  12     2.600716325456   169.26375223   353.09862627
 C     30  14  13     2.609536633043    14.68948582   353.70041132
 N     34  33  32     2.556154803934   120.85575621     0.19603406
 C     37  14  29     2.654530526499   126.01551127   180.90772073
 C     15  14  13     2.582293994346    81.61824056   183.09049352
 C      2   1   3     8.029564866989   160.46836149   118.87547290
 C     41  15  14     2.758391104639   111.05201287   175.08990246
 C     42   2   1     4.559821839776    41.78584867   198.70634406
 C     44  42   2     2.652129475853    87.95153797   233.97558675
 C     45  44  42     2.611027836043   120.11137308     0.19721020
 C     42   2   1     4.629866436820   135.97209175   109.02119316
 C     43  41  15     2.559561325344   106.26758155     0.30894352
 C     15  14  13     2.584127074516   171.87382904   332.35056460
 C     42   2   1     2.611386828803    32.59078432   247.56162325
 C      9   2   1     2.655043698059   126.98745415   183.04199610
 N     42   2   1     2.556355970587   113.57249190   136.75778235
 H      1   2   7     2.046461726423   166.33112001   154.40524001
 H      2   1   3     2.040730117440   127.41893371   166.89259595
 H      4   3   1     2.047042727183   121.03464292   179.59562804
 H      5   4   3     2.044855701112   122.79555395   179.45531886
 H      6   5   4     2.064292058792   104.43883201   100.08847600
 H      6   5   4     2.060051989481    84.68960447   209.50748973
 H      6   5   4     2.059390559578   133.94175454   322.32785270
 H     55   4   3     2.000121349015   131.09319635   295.64830043
 H     10   1   2     2.048004592635   118.79193740   169.48754512
 H     12   9   2     1.920524309565   125.29023241   180.00180175
 H     14  13  12     1.917952867083    44.97226959   359.42596618
 H     18  14  13     2.046330847636   128.03556573   234.20482432
 H     61  10   1     1.817049063498   135.31087900   119.13664222
 H     21  20  18     2.047649722989   121.05669627   180.67006309
 H     22  21  20     2.045596898814   122.73097286   180.59748951
 H     23  18  14     2.063779938267   103.92715769   234.93429879
 H     23  18  14     2.057669673245   134.19244188    12.25587044
 H     23  18  14     2.059486796529    84.85857450   125.45241208
 H     24  19  17     2.041046823986   127.28078426   178.44613241
 H     26  18  14     2.047344503340   118.76995697   244.94906660
 H     30  14  13     2.046012340948   127.99711412   279.66882698
 H     31  29  14     2.040450114918   125.22293469   180.92530585
 H     33  32  30     2.046930203877   121.01964473   180.74284758
 H     34  33  32     2.045617847496   122.70821597   180.59516895
 H     35  34  33     2.064814429233   105.73575241    97.19771933
 H     35  34  33     2.058786158072    84.05943581   206.43036958
 H     35  34  33     2.058418400901   133.08365142   318.50306270
 H     36  31  29     2.039845353366   126.61599965   178.98859863
 H     38  30  73     2.047975821711   118.77264435   359.90091293
 H     42   2   1     2.045020725966   119.31790784   353.38931281
 H     43  41  15     2.041436952892   126.36969097   182.06329380
 H     45  44  42     2.047097678177   121.10105945   179.58025624
 H     46  45  44     2.045051284662   122.72144639   179.46906377
 H     47  42   2     2.062723288131   106.65128841   315.16475048
 H     47  42   2     2.057569012371   132.46019523    94.52397119
 H     47  42   2     2.058915377895    83.63838232   206.04504406
 H     48  43  41     2.041664347903   127.23657387   181.62955349
 H     50  42   2     2.046925842384   118.77001737    94.71359229

---------------------
BASIS SET INFORMATION
---------------------
There are 3 groups of distinct atoms

 Group   1 Type C   : 17s4p1d contracted to 3s2p1d pattern {881/31/1}
 Group   2 Type N   : 17s4p1d contracted to 3s2p1d pattern {881/31/1}
 Group   3 Type H   : 4s1p contracted to 2s1p pattern {31/1}

Atom   0C    basis set group =>   1
Atom   1N    basis set group =>   2
Atom   2C    basis set group =>   1
Atom   3N    basis set group =>   2
Atom   4C    basis set group =>   1
Atom   5N    basis set group =>   2
Atom   6C    basis set group =>   1
Atom   7N    basis set group =>   2
Atom   8C    basis set group =>   1
Atom   9N    basis set group =>   2
Atom  10C    basis set group =>   1
Atom  11N    basis set group =>   2
Atom  12C    basis set group =>   1
Atom  13N    basis set group =>   2
Atom  14C    basis set group =>   1
Atom  15N    basis set group =>   2
Atom  16C    basis set group =>   1
Atom  17C    basis set group =>   1
Atom  18C    basis set group =>   1
Atom  19C    basis set group =>   1
Atom  20C    basis set group =>   1
Atom  21C    basis set group =>   1
Atom  22C    basis set group =>   1
Atom  23C    basis set group =>   1
Atom  24C    basis set group =>   1
Atom  25C    basis set group =>   1
Atom  26C    basis set group =>   1
Atom  27C    basis set group =>   1
Atom  28C    basis set group =>   1
Atom  29C    basis set group =>   1
Atom  30C    basis set group =>   1
Atom  31C    basis set group =>   1
Atom  32C    basis set group =>   1
Atom  33C    basis set group =>   1
Atom  34C    basis set group =>   1
Atom  35C    basis set group =>   1
Atom  36C    basis set group =>   1
Atom  37C    basis set group =>   1
Atom  38C    basis set group =>   1
Atom  39C    basis set group =>   1
Atom  40C    basis set group =>   1
Atom  41C    basis set group =>   1
Atom  42C    basis set group =>   1
Atom  43C    basis set group =>   1
Atom  44C    basis set group =>   1
Atom  45C    basis set group =>   1
Atom  46C    basis set group =>   1
Atom  47C    basis set group =>   1
Atom  48C    basis set group =>   1
Atom  49C    basis set group =>   1
Atom  50C    basis set group =>   1
Atom  51C    basis set group =>   1
Atom  52H    basis set group =>   3
Atom  53H    basis set group =>   3
Atom  54H    basis set group =>   3
Atom  55H    basis set group =>   3
Atom  56H    basis set group =>   3
Atom  57H    basis set group =>   3
Atom  58H    basis set group =>   3
Atom  59H    basis set group =>   3
Atom  60H    basis set group =>   3
Atom  61H    basis set group =>   3
Atom  62H    basis set group =>   3
Atom  63H    basis set group =>   3
Atom  64H    basis set group =>   3
Atom  65H    basis set group =>   3
Atom  66H    basis set group =>   3
Atom  67H    basis set group =>   3
Atom  68H    basis set group =>   3
Atom  69H    basis set group =>   3
Atom  70H    basis set group =>   3
Atom  71H    basis set group =>   3
Atom  72H    basis set group =>   3
Atom  73H    basis set group =>   3
Atom  74H    basis set group =>   3
Atom  75H    basis set group =>   3
Atom  76H    basis set group =>   3
Atom  77H    basis set group =>   3
Atom  78H    basis set group =>   3
Atom  79H    basis set group =>   3
Atom  80H    basis set group =>   3
Atom  81H    basis set group =>   3
Atom  82H    basis set group =>   3
Atom  83H    basis set group =>   3
Atom  84H    basis set group =>   3
Atom  85H    basis set group =>   3
Atom  86H    basis set group =>   3
Atom  87H    basis set group =>   3
Atom  88H    basis set group =>   3
Atom  89H    basis set group =>   3


           ************************************************************
           *        Program running with 16 parallel MPI-processes    *
           *              working on a common directory               *
           ************************************************************
------------------------------------------------------------------------------
                           ORCA GTO INTEGRAL CALCULATION
------------------------------------------------------------------------------
------------------------------------------------------------------------------
                   ___                                                        
                  /   \      - P O W E R E D   B Y -                         
                 /     \                                                     
                 |  |  |   _    _      __       _____    __    __             
                 |  |  |  | |  | |    /  \     |  _  \  |  |  /  |          
                  \  \/   | |  | |   /    \    | | | |  |  | /  /          
                 / \  \   | |__| |  /  /\  \   | |_| |  |  |/  /          
                |  |  |   |  __  | /  /__\  \  |    /   |      \           
                |  |  |   | |  | | |   __   |  |    \   |  |\   \          
                \     /   | |  | | |  |  |  |  | |\  \  |  | \   \       
                 \___/    |_|  |_| |__|  |__|  |_| \__\ |__|  \__/        
                                                                              
                      - O R C A' S   B I G   F R I E N D -                    
                                      &                                       
                       - I N T E G R A L  F E E D E R -                       
                                                                              
 v1 FN, 2020, v2 2021                                                         
------------------------------------------------------------------------------


Reading SHARK input file /scratch/allen/tmpyp4_amber_gaff2/conf1/conf1/Conf197.orca.SHARKINP.tmp ... ok
----------------------
SHARK INTEGRAL PACKAGE
----------------------

Number of atoms                             ...     90
Number of basis functions                   ...   1230
Number of shells                            ...    738
Maximum angular momentum                    ...      2
Integral batch strategy                     ... SHARK/LIBINT Hybrid
RI-J (if used) integral strategy            ... SPLIT-RIJ (Revised 2003 algorithm where possible)
Printlevel                                  ...      1
Contraction scheme used                     ... PARTIAL GENERAL contraction
Coulomb Range Separation                    ... NOT USED
Exchange Range Separation                   ... NOT USED
Finite Nucleus Model                        ... NOT USED
Auxiliary Coulomb fitting basis             ... NOT available
Auxiliary J/K fitting basis                 ... NOT available
Auxiliary Correlation fitting basis         ... NOT available
Auxiliary 'external' fitting basis          ... NOT available
Integral threshold                          ...     2.500000e-11
Primitive cut-off                           ...     2.500000e-12
Primitive pair pre-selection threshold      ...     2.500000e-12

Calculating pre-screening integrals         ... done (  0.1 sec) Dimension = 738
Calculating pre-screening integrals (ORCA)  ... done (  0.3 sec) Dimension = 426
Organizing shell pair data                  ... done (  0.7 sec)
Shell pair information
Total number of shell pairs                 ...    272691
Shell pairs after pre-screening             ...     71721
Total number of primitive shell pairs       ...    422091
Primitive shell pairs kept                  ...     92626
          la=0 lb=0:  29445 shell pairs
          la=1 lb=0:  26026 shell pairs
          la=1 lb=1:   4701 shell pairs
          la=2 lb=0:   7894 shell pairs
          la=2 lb=1:   3126 shell pairs
          la=2 lb=2:    529 shell pairs

Calculating one electron integrals          ... done (  0.2 sec)
Calculating Nuclear repulsion               ... done (  0.0 sec) ENN=   6234.542674290895 Eh

SHARK setup successfully completed in   2.2 seconds

Maximum memory used throughout the entire GTOINT-calculation: 99.1 MB


           ************************************************************
           *        Program running with 16 parallel MPI-processes    *
           *              working on a common directory               *
           ************************************************************
-------------------------------------------------------------------------------
                                 ORCA SCF
-------------------------------------------------------------------------------

------------
SCF SETTINGS
------------
Hamiltonian:
 Ab initio Hamiltonian  Method          .... Hartree-Fock(GTOs)


General Settings:
 Integral files         IntName         .... /scratch/allen/tmpyp4_amber_gaff2/conf1/conf1/Conf197.orca
 Hartree-Fock type      HFTyp           .... RHF
 Total Charge           Charge          ....    0
 Multiplicity           Mult            ....    1
 Number of Electrons    NEL             ....  358
 Basis Dimension        Dim             ....  918
 Nuclear Repulsion      ENuc            ....   6234.5426742909 Eh

Convergence Acceleration:
 DIIS                   CNVDIIS         .... on
   Start iteration      DIISMaxIt       ....    12
   Startup error        DIISStart       ....  0.200000
   # of expansion vecs  DIISMaxEq       ....     5
   Bias factor          DIISBfac        ....   1.050
   Max. coefficient     DIISMaxC        ....  10.000
 Trust-Rad. Augm. Hess. CNVTRAH         .... auto
   Auto Start mean grad. ratio tolernc. ....  1.125000
   Auto Start start iteration           ....    20
   Auto Start num. interpolation iter.  ....    10
   Max. Number of Micro iterations      ....    16
   Max. Number of Macro iterations      .... Maxiter - #DIIS iter
   Number of Davidson start vectors     ....     2
   Converg. threshold I  (grad. norm)   ....   1.000e-05
   Converg. threshold II (energy diff.) ....   1.000e-08
   Grad. Scal. Fac. for Micro threshold ....   0.100
   Minimum threshold for Micro iter.    ....   0.010
   NR start threshold (gradient norm)   ....   0.001
   Initial trust radius                 ....   0.400
   Minimum AH scaling param. (alpha)    ....   1.000
   Maximum AH scaling param. (alpha)    .... 1000.000
   Orbital update algorithm             .... Taylor
   White noise on init. David. guess    .... on
   Maximum white noise                  ....   0.010
   Quad. conv. algorithm                .... NR
 SOSCF                  CNVSOSCF        .... on
   Start iteration      SOSCFMaxIt      ....   150
   Startup grad/error   SOSCFStart      ....  0.003300
 Level Shifting         CNVShift        .... on
   Level shift para.    LevelShift      ....    0.2500
   Turn off err/grad.   ShiftErr        ....    0.0010
 Zerner damping         CNVZerner       .... off
 Static damping         CNVDamp         .... on
   Fraction old density DampFac         ....    0.7000
   Max. Damping (<1)    DampMax         ....    0.9800
   Min. Damping (>=0)   DampMin         ....    0.0000
   Turn off err/grad.   DampErr         ....    0.1000
 Fernandez-Rico         CNVRico         .... off

SCF Procedure:
 Maximum # iterations   MaxIter         ....   125
 SCF integral mode      SCFMode         .... Direct
   Integral package                     .... SHARK and LIBINT hybrid scheme
 Reset frequency        DirectResetFreq ....    20
 Integral Threshold     Thresh          ....  2.500e-11 Eh
 Primitive CutOff       TCut            ....  2.500e-12 Eh

Convergence Tolerance:
 Convergence Check Mode ConvCheckMode   .... Total+1el-Energy
 Convergence forced     ConvForced      .... 1
 Energy Change          TolE            ....  1.000e-08 Eh
 1-El. energy change                    ....  1.000e-05 Eh
 Orbital Gradient       TolG            ....  1.000e-05
 Orbital Rotation angle TolX            ....  1.000e-05
 DIIS Error             TolErr          ....  5.000e-07


Diagonalization of the overlap matrix:
Smallest eigenvalue                        ... 1.917e-04
Time for diagonalization                   ...    0.474 sec
Threshold for overlap eigenvalues          ... 1.000e-08
Number of eigenvalues below threshold      ... 0
Time for construction of square roots      ...    0.266 sec
Total time needed                          ...    0.747 sec

Time for model grid setup =    1.295 sec

------------------------------
INITIAL GUESS: MODEL POTENTIAL
------------------------------
Loading Hartree-Fock densities                     ... done
Calculating cut-offs                               ... done
Initializing the effective Hamiltonian             ... done
Setting up the integral package (SHARK)            ... done
Starting the Coulomb interaction                   ... done (   1.4 sec)
Reading the grid                                   ... done
Mapping shells                                     ... done
Starting the XC term evaluation                    ... done (   0.2 sec)
Transforming the Hamiltonian                       ... done (   0.3 sec)
Diagonalizing the Hamiltonian                      ... done (   0.4 sec)
Back transforming the eigenvectors                 ... done (   0.1 sec)
Now organizing SCF variables                       ... done
                      ------------------
                      INITIAL GUESS DONE (   3.8 sec)
                      ------------------
--------------
SCF ITERATIONS
--------------
ITER       Energy         Delta-E        Max-DP      RMS-DP      [F,P]     Damp
               ***  Starting incremental Fock matrix formation  ***
  0  -2121.6186955306   0.000000000000 0.07459795  0.00126554  0.2313432 0.7000
  1  -2122.2625953922  -0.643899861612 0.06119500  0.00103401  0.1435244 0.7000
                               ***Turning on DIIS***
  2  -2122.6641179332  -0.401522540971 0.13244685  0.00233981  0.0802934 0.0000
  3  -2118.0180513362   4.646066597037 0.07696188  0.00071413  0.0435023 0.0000
  4  -2123.3569743026  -5.338922966417 0.02222503  0.00023404  0.0091633 0.0000
  5  -2123.4928682689  -0.135893966273 0.01046359  0.00013497  0.0048576 0.0000
  6  -2123.4771010824   0.015767186433 0.00642688  0.00008635  0.0022206 0.0000
  7  -2123.5699196287  -0.092818546311 0.00391067  0.00006780  0.0016158 0.0000
  8  -2123.5770942558  -0.007174627099 0.00330398  0.00006464  0.0015139 0.0000
  9  -2123.5500045499   0.027089705973 0.00265064  0.00004591  0.0012179 0.0000
 10  -2123.5578041309  -0.007799581019 0.00533017  0.00009601  0.0009529 0.0000
                      *** Initiating the SOSCF procedure ***
                           *** Shutting down DIIS ***
                      *** Re-Reading the Fockian *** 
                      *** Removing any level shift *** 
ITER      Energy       Delta-E        Grad      Rot      Max-DP    RMS-DP
 11  -2123.45194630   0.1058578356  0.000182  0.000182  0.000244  0.000005
               *** Restarting incremental Fock matrix formation ***
 12  -2123.51761300  -0.0656667014  0.000912  0.006216  0.001465  0.000035
 13  -2123.51772428  -0.0001112876  0.001124  0.030397  0.006685  0.000137
 14  -2123.51790969  -0.0001854034  0.000386  0.001784  0.000591  0.000012
 15  -2123.51792495  -0.0000152611  0.000178  0.002225  0.000530  0.000014
 16  -2123.51793207  -0.0000071217  0.000141  0.002253  0.000477  0.000009
 17  -2123.51793473  -0.0000026563  0.000127  0.001843  0.000301  0.000007
 18  -2123.51793598  -0.0000012507  0.000060  0.000962  0.000227  0.000004
 19  -2123.51793668  -0.0000007065  0.000044  0.001343  0.000230  0.000005
 20  -2123.51793709  -0.0000004086  0.000025  0.000830  0.000121  0.000003
 21  -2123.51793729  -0.0000001936  0.000026  0.001061  0.000157  0.000003
 22  -2123.51793748  -0.0000001893  0.000021  0.000970  0.000151  0.000003
 23  -2123.51793760  -0.0000001196  0.000015  0.000448  0.000073  0.000002
 24  -2123.51793764  -0.0000000497  0.000008  0.000327  0.000054  0.000001
 25  -2123.51793768  -0.0000000312  0.000008  0.000143  0.000041  0.000001
 26  -2123.51793769  -0.0000000125  0.000006  0.000094  0.000031  0.000000
 27  -2123.51793769  -0.0000000006  0.000003  0.000068  0.000022  0.000000
                  ***Gradient check signals convergence***
              ***Rediagonalizing the Fockian in SOSCF/NRSCF***

               *****************************************************
               *                     SUCCESS                       *
               *           SCF CONVERGED AFTER  28 CYCLES          *
               *****************************************************


----------------
TOTAL SCF ENERGY
----------------

Total Energy       :        -2123.51793769 Eh          -57783.86076 eV

Components:
Nuclear Repulsion  :         6234.54267429 Eh          169650.53103 eV
Electronic Energy  :        -8358.06061198 Eh         -227434.39179 eV
One Electron Energy:       -15309.62526110 Eh         -416596.08269 eV
Two Electron Energy:         6951.56464912 Eh          189161.69090 eV

Virial components:
Potential Energy   :        -4245.99825664 Eh         -115539.48648 eV
Kinetic Energy     :         2122.48031895 Eh           57755.62572 eV
Virial Ratio       :            2.00048887


---------------
SCF CONVERGENCE
---------------

  Last Energy change         ...    5.2205e-10  Tolerance :   1.0000e-08
  Last MAX-Density change    ...    9.8965e-06  Tolerance :   1.0000e-07
  Last RMS-Density change    ...    1.9674e-07  Tolerance :   5.0000e-09
  Last Orbital Gradient      ...    1.9157e-06  Tolerance :   1.0000e-05
  Last Orbital Rotation      ...    4.5909e-05  Tolerance :   1.0000e-05

             **** THE GBW FILE WAS UPDATED (/scratch/allen/tmpyp4_amber_gaff2/conf1/conf1/Conf197.orca.gbw) ****
             **** DENSITY /scratch/allen/tmpyp4_amber_gaff2/conf1/conf1/Conf197.orca.scfp WAS UPDATED ****
             **** ENERGY FILE WAS UPDATED (/scratch/allen/tmpyp4_amber_gaff2/conf1/conf1/Conf197.orca.en.tmp) ****
             **** THE GBW FILE WAS UPDATED (/scratch/allen/tmpyp4_amber_gaff2/conf1/conf1/Conf197.orca.gbw) ****
             **** DENSITY /scratch/allen/tmpyp4_amber_gaff2/conf1/conf1/Conf197.orca.scfp WAS UPDATED ****
----------------
ORBITAL ENERGIES
----------------

  NO   OCC          E(Eh)            E(eV) 
   0   2.0000     -15.679199      -426.6527 
   1   2.0000     -15.633644      -425.4131 
   2   2.0000     -15.632071      -425.3703 
   3   2.0000     -15.588545      -424.1859 
   4   2.0000     -15.525021      -422.4573 
   5   2.0000     -15.515705      -422.2038 
   6   2.0000     -15.453783      -420.5188 
   7   2.0000     -15.439730      -420.1364 
   8   2.0000     -11.328906      -308.2752 
   9   2.0000     -11.327884      -308.2474 
  10   2.0000     -11.327563      -308.2387 
  11   2.0000     -11.299114      -307.4645 
  12   2.0000     -11.298514      -307.4482 
  13   2.0000     -11.292712      -307.2903 
  14   2.0000     -11.291363      -307.2536 
  15   2.0000     -11.286811      -307.1297 
  16   2.0000     -11.286259      -307.1147 
  17   2.0000     -11.281486      -306.9848 
  18   2.0000     -11.270348      -306.6818 
  19   2.0000     -11.262953      -306.4805 
  20   2.0000     -11.261961      -306.4535 
  21   2.0000     -11.251716      -306.1748 
  22   2.0000     -11.250327      -306.1370 
  23   2.0000     -11.237400      -305.7852 
  24   2.0000     -11.236839      -305.7699 
  25   2.0000     -11.230891      -305.6081 
  26   2.0000     -11.230113      -305.5869 
  27   2.0000     -11.229923      -305.5817 
  28   2.0000     -11.229774      -305.5777 
  29   2.0000     -11.210833      -305.0623 
  30   2.0000     -11.209478      -305.0254 
  31   2.0000     -11.194945      -304.6300 
  32   2.0000     -11.191257      -304.5296 
  33   2.0000     -11.191239      -304.5291 
  34   2.0000     -11.188399      -304.4518 
  35   2.0000     -11.188322      -304.4497 
  36   2.0000     -11.186958      -304.4126 
  37   2.0000     -11.179032      -304.1969 
  38   2.0000     -11.174648      -304.0776 
  39   2.0000     -11.174445      -304.0721 
  40   2.0000     -11.171978      -304.0050 
  41   2.0000     -11.170838      -303.9740 
  42   2.0000     -11.168143      -303.9006 
  43   2.0000     -11.161768      -303.7272 
  44   2.0000     -11.160361      -303.6889 
  45   2.0000     -11.156713      -303.5896 
  46   2.0000     -11.156610      -303.5868 
  47   2.0000     -11.153112      -303.4916 
  48   2.0000     -11.147016      -303.3257 
  49   2.0000     -11.135499      -303.0123 
  50   2.0000     -11.129582      -302.8513 
  51   2.0000     -11.117349      -302.5185 
  52   2.0000      -1.359875       -37.0041 
  53   2.0000      -1.320931       -35.9444 
  54   2.0000      -1.319825       -35.9143 
  55   2.0000      -1.281385       -34.8683 
  56   2.0000      -1.226041       -33.3623 
  57   2.0000      -1.210375       -32.9360 
  58   2.0000      -1.173389       -31.9295 
  59   2.0000      -1.150653       -31.3109 
  60   2.0000      -1.143238       -31.1091 
  61   2.0000      -1.110202       -30.2101 
  62   2.0000      -1.108932       -30.1756 
  63   2.0000      -1.081604       -29.4319 
  64   2.0000      -1.077758       -29.3273 
  65   2.0000      -1.045120       -28.4392 
  66   2.0000      -1.044476       -28.4216 
  67   2.0000      -1.040852       -28.3230 
  68   2.0000      -1.014894       -27.6167 
  69   2.0000      -1.013441       -27.5771 
  70   2.0000      -1.009145       -27.4602 
  71   2.0000      -0.993419       -27.0323 
  72   2.0000      -0.985795       -26.8248 
  73   2.0000      -0.981529       -26.7088 
  74   2.0000      -0.972990       -26.4764 
  75   2.0000      -0.962029       -26.1781 
  76   2.0000      -0.954542       -25.9744 
  77   2.0000      -0.945890       -25.7390 
  78   2.0000      -0.937067       -25.4989 
  79   2.0000      -0.917304       -24.9611 
  80   2.0000      -0.910095       -24.7650 
  81   2.0000      -0.896585       -24.3973 
  82   2.0000      -0.876399       -23.8480 
  83   2.0000      -0.872016       -23.7288 
  84   2.0000      -0.870578       -23.6896 
  85   2.0000      -0.859520       -23.3887 
  86   2.0000      -0.843020       -22.9397 
  87   2.0000      -0.836076       -22.7508 
  88   2.0000      -0.827192       -22.5091 
  89   2.0000      -0.796775       -21.6813 
  90   2.0000      -0.789417       -21.4811 
  91   2.0000      -0.761449       -20.7201 
  92   2.0000      -0.752407       -20.4740 
  93   2.0000      -0.733548       -19.9608 
  94   2.0000      -0.726738       -19.7756 
  95   2.0000      -0.723546       -19.6887 
  96   2.0000      -0.718728       -19.5576 
  97   2.0000      -0.716422       -19.4948 
  98   2.0000      -0.712242       -19.3811 
  99   2.0000      -0.698120       -18.9968 
 100   2.0000      -0.697262       -18.9735 
 101   2.0000      -0.692030       -18.8311 
 102   2.0000      -0.685008       -18.6400 
 103   2.0000      -0.683926       -18.6106 
 104   2.0000      -0.678682       -18.4679 
 105   2.0000      -0.674360       -18.3503 
 106   2.0000      -0.672284       -18.2938 
 107   2.0000      -0.660539       -17.9742 
 108   2.0000      -0.658012       -17.9054 
 109   2.0000      -0.652777       -17.7630 
 110   2.0000      -0.652000       -17.7418 
 111   2.0000      -0.645744       -17.5716 
 112   2.0000      -0.645205       -17.5569 
 113   2.0000      -0.637686       -17.3523 
 114   2.0000      -0.636696       -17.3254 
 115   2.0000      -0.628241       -17.0953 
 116   2.0000      -0.622585       -16.9414 
 117   2.0000      -0.621467       -16.9110 
 118   2.0000      -0.613044       -16.6818 
 119   2.0000      -0.612087       -16.6557 
 120   2.0000      -0.611703       -16.6453 
 121   2.0000      -0.610927       -16.6242 
 122   2.0000      -0.601174       -16.3588 
 123   2.0000      -0.587951       -15.9990 
 124   2.0000      -0.581451       -15.8221 
 125   2.0000      -0.580865       -15.8061 
 126   2.0000      -0.580072       -15.7846 
 127   2.0000      -0.571101       -15.5404 
 128   2.0000      -0.568178       -15.4609 
 129   2.0000      -0.559782       -15.2324 
 130   2.0000      -0.553973       -15.0744 
 131   2.0000      -0.547794       -14.9062 
 132   2.0000      -0.542591       -14.7647 
 133   2.0000      -0.541195       -14.7267 
 134   2.0000      -0.538554       -14.6548 
 135   2.0000      -0.536135       -14.5890 
 136   2.0000      -0.531149       -14.4533 
 137   2.0000      -0.519505       -14.1365 
 138   2.0000      -0.516800       -14.0628 
 139   2.0000      -0.514815       -14.0088 
 140   2.0000      -0.512134       -13.9359 
 141   2.0000      -0.510317       -13.8864 
 142   2.0000      -0.508641       -13.8408 
 143   2.0000      -0.504525       -13.7288 
 144   2.0000      -0.502549       -13.6750 
 145   2.0000      -0.496117       -13.5000 
 146   2.0000      -0.489230       -13.3126 
 147   2.0000      -0.481859       -13.1121 
 148   2.0000      -0.477738       -12.9999 
 149   2.0000      -0.467512       -12.7216 
 150   2.0000      -0.466382       -12.6909 
 151   2.0000      -0.456803       -12.4302 
 152   2.0000      -0.451510       -12.2862 
 153   2.0000      -0.444793       -12.1034 
 154   2.0000      -0.438897       -11.9430 
 155   2.0000      -0.427563       -11.6346 
 156   2.0000      -0.410161       -11.1611 
 157   2.0000      -0.403547       -10.9811 
 158   2.0000      -0.390981       -10.6391 
 159   2.0000      -0.387282       -10.5385 
 160   2.0000      -0.381221       -10.3736 
 161   2.0000      -0.378405       -10.2969 
 162   2.0000      -0.369476       -10.0539 
 163   2.0000      -0.356492        -9.7007 
 164   2.0000      -0.355959        -9.6861 
 165   2.0000      -0.341827        -9.3016 
 166   2.0000      -0.337664        -9.1883 
 167   2.0000      -0.324692        -8.8353 
 168   2.0000      -0.321666        -8.7530 
 169   2.0000      -0.305190        -8.3046 
 170   2.0000      -0.299437        -8.1481 
 171   2.0000      -0.285528        -7.7696 
 172   2.0000      -0.279147        -7.5960 
 173   2.0000      -0.263650        -7.1743 
 174   2.0000      -0.241580        -6.5737 
 175   2.0000      -0.189989        -5.1699 
 176   2.0000      -0.180917        -4.9230 
 177   2.0000      -0.079078        -2.1518 
 178   2.0000      -0.059501        -1.6191 
 179   0.0000       0.028325         0.7708 
 180   0.0000       0.065404         1.7797 
 181   0.0000       0.090351         2.4586 
 182   0.0000       0.106631         2.9016 
 183   0.0000       0.114662         3.1201 
 184   0.0000       0.137097         3.7306 
 185   0.0000       0.139378         3.7927 
 186   0.0000       0.141253         3.8437 
 187   0.0000       0.163985         4.4623 
 188   0.0000       0.165264         4.4971 
 189   0.0000       0.165548         4.5048 
 190   0.0000       0.172722         4.7000 
 191   0.0000       0.180680         4.9166 
 192   0.0000       0.184088         5.0093 
 193   0.0000       0.188862         5.1392 
 194   0.0000       0.204983         5.5779 
 195   0.0000       0.205494         5.5918 
 196   0.0000       0.208426         5.6716 
 197   0.0000       0.208507         5.6738 
 198   0.0000       0.216828         5.9002 
 199   0.0000       0.228461         6.2167 
 200   0.0000       0.233009         6.3405 
 201   0.0000       0.234109         6.3704 
 202   0.0000       0.239023         6.5042 
 203   0.0000       0.239735         6.5235 
 204   0.0000       0.246393         6.7047 
 205   0.0000       0.255252         6.9457 
 206   0.0000       0.256383         6.9765 
 207   0.0000       0.257418         7.0047 
 208   0.0000       0.259355         7.0574 
 209   0.0000       0.260939         7.1005 
 210   0.0000       0.264089         7.1862 
 211   0.0000       0.267150         7.2695 
 212   0.0000       0.268567         7.3081 
 213   0.0000       0.269843         7.3428 
 214   0.0000       0.273273         7.4361 
 215   0.0000       0.276393         7.5210 
 216   0.0000       0.278998         7.5919 
 217   0.0000       0.281399         7.6572 
 218   0.0000       0.285493         7.7687 
 219   0.0000       0.287618         7.8265 
 220   0.0000       0.288756         7.8574 
 221   0.0000       0.292176         7.9505 
 222   0.0000       0.294380         8.0105 
 223   0.0000       0.296813         8.0767 
 224   0.0000       0.297276         8.0893 
 225   0.0000       0.301207         8.1962 
 226   0.0000       0.304818         8.2945 
 227   0.0000       0.308490         8.3944 
 228   0.0000       0.312861         8.5134 
 229   0.0000       0.324653         8.8343 
 230   0.0000       0.327456         8.9105 
 231   0.0000       0.334070         9.0905 
 232   0.0000       0.344237         9.3672 
 233   0.0000       0.355921         9.6851 
 234   0.0000       0.360555         9.8112 
 235   0.0000       0.364289         9.9128 
 236   0.0000       0.376118        10.2347 
 237   0.0000       0.390375        10.6226 
 238   0.0000       0.395738        10.7686 
 239   0.0000       0.399429        10.8690 
 240   0.0000       0.407432        11.0868 
 241   0.0000       0.411385        11.1944 
 242   0.0000       0.412080        11.2133 
 243   0.0000       0.418643        11.3918 
 244   0.0000       0.429359        11.6835 
 245   0.0000       0.434978        11.8363 
 246   0.0000       0.436760        11.8848 
 247   0.0000       0.440884        11.9971 
 248   0.0000       0.441940        12.0258 
 249   0.0000       0.448441        12.2027 
 250   0.0000       0.456738        12.4285 
 251   0.0000       0.464652        12.6438 
 252   0.0000       0.467399        12.7186 
 253   0.0000       0.469477        12.7751 
 254   0.0000       0.471986        12.8434 
 255   0.0000       0.474767        12.9191 
 256   0.0000       0.475805        12.9473 
 257   0.0000       0.480471        13.0743 
 258   0.0000       0.489438        13.3183 
 259   0.0000       0.495441        13.4816 
 260   0.0000       0.503571        13.7029 
 261   0.0000       0.505666        13.7599 
 262   0.0000       0.506056        13.7705 
 263   0.0000       0.513547        13.9743 
 264   0.0000       0.517069        14.0701 
 265   0.0000       0.518126        14.0989 
 266   0.0000       0.523704        14.2507 
 267   0.0000       0.529872        14.4185 
 268   0.0000       0.532254        14.4834 
 269   0.0000       0.536543        14.6001 
 270   0.0000       0.542745        14.7688 
 271   0.0000       0.547882        14.9086 
 272   0.0000       0.558024        15.1846 
 273   0.0000       0.559954        15.2371 
 274   0.0000       0.561236        15.2720 
 275   0.0000       0.566523        15.4159 
 276   0.0000       0.571419        15.5491 
 277   0.0000       0.573830        15.6147 
 278   0.0000       0.579412        15.7666 
 279   0.0000       0.586092        15.9484 
 280   0.0000       0.590873        16.0785 
 281   0.0000       0.592749        16.1295 
 282   0.0000       0.594260        16.1706 
 283   0.0000       0.595460        16.2033 
 284   0.0000       0.598051        16.2738 
 285   0.0000       0.602484        16.3944 
 286   0.0000       0.606552        16.5051 
 287   0.0000       0.610561        16.6142 
 288   0.0000       0.615405        16.7460 
 289   0.0000       0.624087        16.9823 
 290   0.0000       0.625493        17.0205 
 291   0.0000       0.629389        17.1265 
 292   0.0000       0.632912        17.2224 
 293   0.0000       0.636065        17.3082 
 294   0.0000       0.646270        17.5859 
 295   0.0000       0.647378        17.6160 
 296   0.0000       0.653189        17.7742 
 297   0.0000       0.655294        17.8315 
 298   0.0000       0.661361        17.9965 
 299   0.0000       0.665769        18.1165 
 300   0.0000       0.671178        18.2637 
 301   0.0000       0.675547        18.3826 
 302   0.0000       0.676708        18.4142 
 303   0.0000       0.679229        18.4827 
 304   0.0000       0.680568        18.5192 
 305   0.0000       0.684020        18.6131 
 306   0.0000       0.689329        18.7576 
 307   0.0000       0.693250        18.8643 
 308   0.0000       0.695495        18.9254 
 309   0.0000       0.700068        19.0498 
 310   0.0000       0.702554        19.1175 
 311   0.0000       0.704020        19.1574 
 312   0.0000       0.706081        19.2134 
 313   0.0000       0.711289        19.3552 
 314   0.0000       0.711929        19.3726 
 315   0.0000       0.715871        19.4799 
 316   0.0000       0.717071        19.5125 
 317   0.0000       0.718105        19.5406 
 318   0.0000       0.723809        19.6958 
 319   0.0000       0.726304        19.7637 
 320   0.0000       0.727958        19.8087 
 321   0.0000       0.729317        19.8457 
 322   0.0000       0.730505        19.8780 
 323   0.0000       0.732553        19.9338 
 324   0.0000       0.736120        20.0308 
 325   0.0000       0.742146        20.1948 
 326   0.0000       0.743622        20.2350 
 327   0.0000       0.747113        20.3300 
 328   0.0000       0.752761        20.4837 
 329   0.0000       0.754154        20.5216 
 330   0.0000       0.758477        20.6392 
 331   0.0000       0.760636        20.6980 
 332   0.0000       0.764724        20.8092 
 333   0.0000       0.767900        20.8956 
 334   0.0000       0.769503        20.9392 
 335   0.0000       0.775227        21.0950 
 336   0.0000       0.779575        21.2133 
 337   0.0000       0.781667        21.2702 
 338   0.0000       0.786214        21.3940 
 339   0.0000       0.789407        21.4809 
 340   0.0000       0.791999        21.5514 
 341   0.0000       0.796186        21.6653 
 342   0.0000       0.799041        21.7430 
 343   0.0000       0.803778        21.8719 
 344   0.0000       0.807080        21.9618 
 345   0.0000       0.808077        21.9889 
 346   0.0000       0.809283        22.0217 
 347   0.0000       0.811752        22.0889 
 348   0.0000       0.816040        22.2056 
 349   0.0000       0.817995        22.2588 
 350   0.0000       0.818507        22.2727 
 351   0.0000       0.822549        22.3827 
 352   0.0000       0.823798        22.4167 
 353   0.0000       0.827365        22.5137 
 354   0.0000       0.830749        22.6058 
 355   0.0000       0.832341        22.6491 
 356   0.0000       0.834947        22.7201 
 357   0.0000       0.836560        22.7640 
 358   0.0000       0.838066        22.8049 
 359   0.0000       0.839926        22.8555 
 360   0.0000       0.841165        22.8893 
 361   0.0000       0.841709        22.9041 
 362   0.0000       0.844432        22.9782 
 363   0.0000       0.849194        23.1077 
 364   0.0000       0.852083        23.1864 
 365   0.0000       0.857096        23.3228 
 366   0.0000       0.859756        23.3952 
 367   0.0000       0.862843        23.4791 
 368   0.0000       0.866049        23.5664 
 369   0.0000       0.868113        23.6225 
 370   0.0000       0.870482        23.6870 
 371   0.0000       0.872913        23.7532 
 372   0.0000       0.874529        23.7972 
 373   0.0000       0.877418        23.8758 
 374   0.0000       0.880329        23.9550 
 375   0.0000       0.883162        24.0321 
 376   0.0000       0.888780        24.1849 
 377   0.0000       0.889844        24.2139 
 378   0.0000       0.890890        24.2424 
 379   0.0000       0.892072        24.2745 
 380   0.0000       0.897201        24.4141 
 381   0.0000       0.897723        24.4283 
 382   0.0000       0.900635        24.5075 
 383   0.0000       0.901903        24.5420 
 384   0.0000       0.905886        24.6504 
 385   0.0000       0.906775        24.6746 
 386   0.0000       0.907643        24.6982 
 387   0.0000       0.910409        24.7735 
 388   0.0000       0.916251        24.9325 
 389   0.0000       0.918240        24.9866 
 390   0.0000       0.920627        25.0515 
 391   0.0000       0.925290        25.1784 
 392   0.0000       0.927208        25.2306 
 393   0.0000       0.928613        25.2688 
 394   0.0000       0.929345        25.2888 
 395   0.0000       0.932949        25.3868 
 396   0.0000       0.934084        25.4177 
 397   0.0000       0.938511        25.5382 
 398   0.0000       0.943435        25.6722 
 399   0.0000       0.946534        25.7565 
 400   0.0000       0.947966        25.7955 
 401   0.0000       0.953050        25.9338 
 402   0.0000       0.955554        26.0019 
 403   0.0000       0.956340        26.0233 
 404   0.0000       0.960536        26.1375 
 405   0.0000       0.962856        26.2006 
 406   0.0000       0.970456        26.4074 
 407   0.0000       0.977583        26.6014 
 408   0.0000       0.982004        26.7217 
 409   0.0000       0.985886        26.8273 
 410   0.0000       0.986994        26.8575 
 411   0.0000       0.992448        27.0059 
 412   0.0000       0.997838        27.1526 
 413   0.0000       1.001064        27.2403 
 414   0.0000       1.007584        27.4177 
 415   0.0000       1.009289        27.4641 
 416   0.0000       1.015291        27.6275 
 417   0.0000       1.018481        27.7143 
 418   0.0000       1.025647        27.9093 
 419   0.0000       1.032985        28.1090 
 420   0.0000       1.033188        28.1145 
 421   0.0000       1.037055        28.2197 
 422   0.0000       1.042920        28.3793 
 423   0.0000       1.052800        28.6482 
 424   0.0000       1.061482        28.8844 
 425   0.0000       1.066006        29.0075 
 426   0.0000       1.069399        29.0998 
 427   0.0000       1.073795        29.2195 
 428   0.0000       1.077878        29.3306 
 429   0.0000       1.086253        29.5584 
 430   0.0000       1.088238        29.6125 
 431   0.0000       1.091275        29.6951 
 432   0.0000       1.098865        29.9016 
 433   0.0000       1.102460        29.9995 
 434   0.0000       1.103764        30.0349 
 435   0.0000       1.110084        30.2069 
 436   0.0000       1.111632        30.2491 
 437   0.0000       1.115115        30.3438 
 438   0.0000       1.120522        30.4909 
 439   0.0000       1.121508        30.5178 
 440   0.0000       1.125292        30.6208 
 441   0.0000       1.126250        30.6468 
 442   0.0000       1.131177        30.7809 
 443   0.0000       1.133906        30.8551 
 444   0.0000       1.134960        30.8838 
 445   0.0000       1.138031        30.9674 
 446   0.0000       1.143611        31.1192 
 447   0.0000       1.149519        31.2800 
 448   0.0000       1.150085        31.2954 
 449   0.0000       1.154332        31.4110 
 450   0.0000       1.157025        31.4842 
 451   0.0000       1.161691        31.6112 
 452   0.0000       1.166570        31.7440 
 453   0.0000       1.168329        31.7918 
 454   0.0000       1.169241        31.8167 
 455   0.0000       1.172729        31.9116 
 456   0.0000       1.180261        32.1165 
 457   0.0000       1.183566        32.2065 
 458   0.0000       1.191999        32.4359 
 459   0.0000       1.197423        32.5835 
 460   0.0000       1.201895        32.7052 
 461   0.0000       1.202916        32.7330 
 462   0.0000       1.204216        32.7684 
 463   0.0000       1.208487        32.8846 
 464   0.0000       1.208935        32.8968 
 465   0.0000       1.216287        33.0969 
 466   0.0000       1.216686        33.1077 
 467   0.0000       1.219529        33.1851 
 468   0.0000       1.225536        33.3485 
 469   0.0000       1.229856        33.4661 
 470   0.0000       1.231988        33.5241 
 471   0.0000       1.235627        33.6231 
 472   0.0000       1.238514        33.7017 
 473   0.0000       1.242310        33.8050 
 474   0.0000       1.243826        33.8462 
 475   0.0000       1.248529        33.9742 
 476   0.0000       1.250068        34.0161 
 477   0.0000       1.251509        34.0553 
 478   0.0000       1.253171        34.1005 
 479   0.0000       1.258816        34.2541 
 480   0.0000       1.261019        34.3141 
 481   0.0000       1.263371        34.3781 
 482   0.0000       1.268189        34.5092 
 483   0.0000       1.271557        34.6008 
 484   0.0000       1.278141        34.7800 
 485   0.0000       1.281523        34.8720 
 486   0.0000       1.283479        34.9253 
 487   0.0000       1.288839        35.0711 
 488   0.0000       1.291206        35.1355 
 489   0.0000       1.292818        35.1794 
 490   0.0000       1.299754        35.3681 
 491   0.0000       1.300291        35.3827 
 492   0.0000       1.306433        35.5498 
 493   0.0000       1.311359        35.6839 
 494   0.0000       1.312588        35.7173 
 495   0.0000       1.318979        35.8912 
 496   0.0000       1.321392        35.9569 
 497   0.0000       1.322954        35.9994 
 498   0.0000       1.327249        36.1163 
 499   0.0000       1.331138        36.2221 
 500   0.0000       1.334210        36.3057 
 501   0.0000       1.340722        36.4829 
 502   0.0000       1.342172        36.5224 
 503   0.0000       1.343882        36.5689 
 504   0.0000       1.347679        36.6722 
 505   0.0000       1.351327        36.7715 
 506   0.0000       1.351768        36.7835 
 507   0.0000       1.357680        36.9444 
 508   0.0000       1.359465        36.9929 
 509   0.0000       1.361215        37.0405 
[...]
      pz      :     0.022120  p :     0.079779
      px      :     0.043610
      py      :     0.014050
 77 H s       :     0.884536  s :     0.884536
      pz      :     0.047976  p :     0.079290
      px      :     0.015024
      py      :     0.016291
 78 H s       :     0.884875  s :     0.884875
      pz      :     0.025883  p :     0.079261
      px      :     0.020456
      py      :     0.032923
 79 H s       :     0.910772  s :     0.910772
      pz      :     0.021794  p :     0.086300
      px      :     0.021660
      py      :     0.042847
 80 H s       :     0.864424  s :     0.864424
      pz      :     0.039389  p :     0.084826
      px      :     0.030282
      py      :     0.015155
 81 H s       :     0.886755  s :     0.886755
      pz      :     0.037827  p :     0.084124
      px      :     0.016177
      py      :     0.030120
 82 H s       :     0.915999  s :     0.915999
      pz      :     0.021950  p :     0.086728
      px      :     0.031654
      py      :     0.033124
 83 H s       :     0.873304  s :     0.873304
      pz      :     0.039285  p :     0.084105
      px      :     0.015273
      py      :     0.029547
 84 H s       :     0.886589  s :     0.886589
      pz      :     0.035776  p :     0.083433
      px      :     0.031699
      py      :     0.015958
 85 H s       :     0.892736  s :     0.892736
      pz      :     0.022493  p :     0.079790
      px      :     0.014066
      py      :     0.043232
 86 H s       :     0.890930  s :     0.890930
      pz      :     0.024733  p :     0.078834
      px      :     0.032984
      py      :     0.021116
 87 H s       :     0.889811  s :     0.889811
      pz      :     0.048018  p :     0.078744
      px      :     0.015587
      py      :     0.015139
 88 H s       :     0.910574  s :     0.910574
      pz      :     0.021618  p :     0.087014
      px      :     0.042941
      py      :     0.022455
 89 H s       :     0.871176  s :     0.871176
      pz      :     0.037955  p :     0.083851
      px      :     0.030497
      py      :     0.015400


                      *****************************
                      * MAYER POPULATION ANALYSIS *
                      *****************************

  NA   - Mulliken gross atomic population
  ZA   - Total nuclear charge
  QA   - Mulliken gross atomic charge
  VA   - Mayer's total valence
  BVA  - Mayer's bonded valence
  FA   - Mayer's free valence

  ATOM       NA         ZA         QA         VA         BVA        FA
  0 C      5.7873     6.0000     0.2127     3.8463     3.8463     0.0000
  1 N      7.4554     7.0000    -0.4554     3.3418     3.3418     0.0000
  2 C      6.0728     6.0000    -0.0728     3.9230     3.9230    -0.0000
  3 N      7.3406     7.0000    -0.3406     3.4554     3.4554    -0.0000
  4 C      6.0611     6.0000    -0.0611     4.0941     4.0941     0.0000
  5 N      7.5675     7.0000    -0.5675     3.0950     3.0950    -0.0000
  6 C      6.1176     6.0000    -0.1176     3.9559     3.9559    -0.0000
  7 N      7.3408     7.0000    -0.3408     3.4326     3.4326    -0.0000
  8 C      5.7850     6.0000     0.2150     3.8491     3.8491    -0.0000
  9 N      7.5622     7.0000    -0.5622     3.0769     3.0769    -0.0000
 10 C      5.8811     6.0000     0.1189     3.9093     3.9093     0.0000
 11 N      7.4385     7.0000    -0.4385     3.3778     3.3778    -0.0000
 12 C      6.0620     6.0000    -0.0620     3.8584     3.8584    -0.0000
 13 N      7.4295     7.0000    -0.4295     3.4278     3.4278    -0.0000
 14 C      5.7774     6.0000     0.2226     3.7938     3.7938    -0.0000
 15 N      7.4409     7.0000    -0.4409     3.3728     3.3728    -0.0000
 16 C      5.7693     6.0000     0.2307     3.7762     3.7762     0.0000
 17 C      6.1092     6.0000    -0.1092     3.9452     3.9452     0.0000
 18 C      6.1833     6.0000    -0.1833     3.7600     3.7600     0.0000
 19 C      5.7832     6.0000     0.2168     3.8701     3.8701     0.0000
 20 C      5.7865     6.0000     0.2135     3.8292     3.8292    -0.0000
 21 C      6.0677     6.0000    -0.0677     3.8368     3.8368    -0.0000
 22 C      6.0910     6.0000    -0.0910     3.9829     3.9829    -0.0000
 23 C      6.0395     6.0000    -0.0395     3.9926     3.9926    -0.0000
 24 C      5.8065     6.0000     0.1935     3.8211     3.8211    -0.0000
 25 C      5.8854     6.0000     0.1146     3.8917     3.8917    -0.0000
 26 C      6.0892     6.0000    -0.0892     3.9104     3.9104    -0.0000
 27 C      5.7845     6.0000     0.2155     3.8621     3.8621    -0.0000
 28 C      6.0618     6.0000    -0.0618     3.9886     3.9886    -0.0000
 29 C      6.1814     6.0000    -0.1814     3.7457     3.7457    -0.0000
 30 C      5.7540     6.0000     0.2460     3.8011     3.8011    -0.0000
 31 C      5.7700     6.0000     0.2300     3.8172     3.8172    -0.0000
 32 C      6.0617     6.0000    -0.0617     3.9230     3.9230     0.0000
 33 C      6.0604     6.0000    -0.0604     3.9714     3.9714    -0.0000
 34 C      6.0513     6.0000    -0.0513     3.9835     3.9835    -0.0000
 35 C      5.7716     6.0000     0.2284     3.8166     3.8166    -0.0000
 36 C      5.8917     6.0000     0.1083     3.8749     3.8749     0.0000
 37 C      6.0643     6.0000    -0.0643     3.9178     3.9178     0.0000
 38 C      5.7690     6.0000     0.2310     3.8007     3.8007     0.0000
 39 C      6.0576     6.0000    -0.0576     3.9832     3.9832     0.0000
 40 C      6.1815     6.0000    -0.1815     3.7270     3.7270    -0.0000
 41 C      5.7739     6.0000     0.2261     3.8873     3.8873     0.0000
 42 C      5.8025     6.0000     0.1975     3.8257     3.8257    -0.0000
 43 C      6.0724     6.0000    -0.0724     3.9000     3.9000     0.0000
 44 C      6.0892     6.0000    -0.0892     3.9850     3.9850     0.0000
 45 C      6.0614     6.0000    -0.0614     3.9920     3.9920    -0.0000
 46 C      5.7882     6.0000     0.2118     3.8284     3.8284    -0.0000
 47 C      5.8847     6.0000     0.1153     3.8927     3.8927     0.0000
 48 C      6.0668     6.0000    -0.0668     3.9095     3.9095    -0.0000
 49 C      5.7611     6.0000     0.2389     3.8940     3.8940    -0.0000
 50 C      6.0464     6.0000    -0.0464     3.9903     3.9903     0.0000
 51 C      6.1930     6.0000    -0.1930     3.7363     3.7363    -0.0000
 52 H      0.9637     1.0000     0.0363     0.9857     0.9857    -0.0000
 53 H      1.0177     1.0000    -0.0177     0.9988     0.9988    -0.0000
 54 H      0.9559     1.0000     0.0441     1.0175     1.0175     0.0000
 55 H      0.9651     1.0000     0.0349     0.9864     0.9864    -0.0000
 56 H      0.9506     1.0000     0.0494     0.9695     0.9695    -0.0000
 57 H      0.9531     1.0000     0.0469     0.9825     0.9825    -0.0000
 58 H      0.9524     1.0000     0.0476     0.9848     0.9848     0.0000
 59 H      1.0075     1.0000    -0.0075     0.9996     0.9996     0.0000
 60 H      0.9542     1.0000     0.0458     1.0175     1.0175     0.0000
 61 H      0.8288     1.0000     0.1712     1.0422     1.0422     0.0000
 62 H      0.8245     1.0000     0.1755     1.0436     1.0436    -0.0000
 63 H      0.9449     1.0000     0.0551     0.9853     0.9853    -0.0000
 64 H      1.0245     1.0000    -0.0245     0.9912     0.9912    -0.0000
 65 H      0.9528     1.0000     0.0472     1.0098     1.0098    -0.0000
 66 H      0.9445     1.0000     0.0555     0.9855     0.9855    -0.0000
 67 H      0.9377     1.0000     0.0623     0.9719     0.9719    -0.0000
 68 H      0.9428     1.0000     0.0572     0.9868     0.9868    -0.0000
 69 H      0.9437     1.0000     0.0563     0.9828     0.9828    -0.0000
 70 H      1.0306     1.0000    -0.0306     0.9940     0.9940    -0.0000
 71 H      0.9554     1.0000     0.0446     1.0059     1.0059     0.0000
 72 H      0.9287     1.0000     0.0713     0.9836     0.9836     0.0000
 73 H      1.0080     1.0000    -0.0080     1.0010     1.0010     0.0000
 74 H      0.9396     1.0000     0.0604     1.0101     1.0101     0.0000
 75 H      0.9293     1.0000     0.0707     0.9838     0.9838    -0.0000
 76 H      0.9251     1.0000     0.0749     0.9721     0.9721    -0.0000
 77 H      0.9320     1.0000     0.0680     0.9855     0.9855    -0.0000
 78 H      0.9327     1.0000     0.0673     0.9854     0.9854    -0.0000
 79 H      1.0167     1.0000    -0.0167     0.9975     0.9975    -0.0000
 80 H      0.9387     1.0000     0.0613     1.0072     1.0072    -0.0000
 81 H      0.9455     1.0000     0.0545     0.9856     0.9856    -0.0000
 82 H      1.0248     1.0000    -0.0248     0.9935     0.9935    -0.0000
 83 H      0.9579     1.0000     0.0421     1.0082     1.0082    -0.0000
 84 H      0.9456     1.0000     0.0544     0.9852     0.9852    -0.0000
 85 H      0.9389     1.0000     0.0611     0.9716     0.9716    -0.0000
 86 H      0.9443     1.0000     0.0557     0.9839     0.9839    -0.0000
 87 H      0.9427     1.0000     0.0573     0.9856     0.9856     0.0000
 88 H      1.0144     1.0000    -0.0144     0.9968     0.9968    -0.0000
 89 H      0.9532     1.0000     0.0468     1.0076     1.0076     0.0000

  Mayer bond orders larger than 0.100000
B(  0-C ,  1-N ) :   1.0919 B(  0-C , 17-C ) :   1.7185 B(  0-C , 52-H ) :   0.9630 
B(  1-N ,  8-C ) :   1.0966 B(  1-N , 10-C ) :   0.9775 B(  2-C , 12-C ) :   1.4921 
B(  2-C , 16-C ) :   1.3692 B(  2-C , 53-H ) :   0.9729 B(  3-N , 14-C ) :   1.2211 
B(  3-N , 16-C ) :   1.1822 B(  3-N , 61-H ) :   0.8988 B(  4-C ,  6-C ) :   1.2166 
B(  4-C , 17-C ) :   1.2142 B(  4-C , 18-C ) :   1.4675 B(  5-N , 19-C ) :   1.4580 
B(  5-N , 27-C ) :   1.3721 B(  6-C ,  8-C ) :   1.7118 B(  6-C , 54-H ) :   0.9132 
B(  7-N , 30-C ) :   1.1957 B(  7-N , 38-C ) :   1.1895 B(  7-N , 62-H ) :   0.8968 
B(  8-C , 55-H ) :   0.9642 B(  9-N , 41-C ) :   1.3944 B(  9-N , 49-C ) :   1.4250 
B( 10-C , 56-H ) :   0.9775 B( 10-C , 57-H ) :   0.9823 B( 10-C , 58-H ) :   0.9841 
B( 11-N , 20-C ) :   1.1309 B( 11-N , 24-C ) :   1.1066 B( 11-N , 25-C ) :   0.9604 
B( 12-C , 14-C ) :   1.3574 B( 12-C , 59-H ) :   0.9459 B( 13-N , 31-C ) :   1.1611 
B( 13-N , 35-C ) :   1.1601 B( 13-N , 36-C ) :   0.9415 B( 14-C , 18-C ) :   1.1209 
B( 15-N , 42-C ) :   1.1081 B( 15-N , 46-C ) :   1.1247 B( 15-N , 47-C ) :   0.9611 
B( 16-C , 51-C ) :   1.1681 B( 17-C , 60-H ) :   0.8970 B( 18-C , 19-C ) :   1.1204 
B( 19-C , 21-C ) :   1.2522 B( 20-C , 28-C ) :   1.6290 B( 20-C , 63-H ) :   0.9703 
B( 21-C , 26-C ) :   1.5842 B( 21-C , 64-H ) :   0.9276 B( 22-C , 23-C ) :   1.2890 
B( 22-C , 28-C ) :   1.2634 B( 22-C , 29-C ) :   1.2258 B( 23-C , 24-C ) :   1.6206 
B( 23-C , 65-H ) :   0.9703 B( 24-C , 66-H ) :   0.9695 B( 25-C , 67-H ) :   0.9761 
B( 25-C , 68-H ) :   0.9828 B( 25-C , 69-H ) :   0.9823 B( 26-C , 27-C ) :   1.2586 
B( 26-C , 70-H ) :   0.9681 B( 27-C , 29-C ) :   1.2066 B( 28-C , 71-H ) :   0.9720 
B( 29-C , 30-C ) :   1.2463 B( 30-C , 32-C ) :   1.2793 B( 31-C , 39-C ) :   1.5880 
B( 31-C , 72-H ) :   0.9681 B( 32-C , 37-C ) :   1.5794 B( 32-C , 73-H ) :   0.9786 
B( 33-C , 34-C ) :   1.3067 B( 33-C , 39-C ) :   1.3040 B( 33-C , 40-C ) :   1.1767 
B( 34-C , 35-C ) :   1.5857 B( 34-C , 74-H ) :   0.9696 B( 35-C , 75-H ) :   0.9681 
B( 36-C , 76-H ) :   0.9768 B( 36-C , 77-H ) :   0.9816 B( 36-C , 78-H ) :   0.9823 
B( 37-C , 38-C ) :   1.2853 B( 37-C , 79-H ) :   0.9764 B( 38-C , 40-C ) :   1.2336 
B( 39-C , 80-H ) :   0.9705 B( 40-C , 41-C ) :   1.2505 B( 41-C , 43-C ) :   1.1843 
B( 42-C , 50-C ) :   1.6327 B( 42-C , 81-H ) :   0.9696 B( 43-C , 48-C ) :   1.6686 
B( 43-C , 82-H ) :   0.9721 B( 44-C , 45-C ) :   1.2639 B( 44-C , 50-C ) :   1.2728 
B( 44-C , 51-C ) :   1.2602 B( 45-C , 46-C ) :   1.6342 B( 45-C , 83-H ) :   0.9718 
B( 46-C , 84-H ) :   0.9700 B( 47-C , 85-H ) :   0.9762 B( 47-C , 86-H ) :   0.9829 
B( 47-C , 87-H ) :   0.9824 B( 48-C , 49-C ) :   1.1878 B( 48-C , 88-H ) :   0.9748 
B( 49-C , 51-C ) :   1.2446 B( 50-C , 89-H ) :   0.9709 

-------
TIMINGS
-------

Total SCF time: 0 days 0 hours 28 min 54 sec 

Total time                  ....    1734.568 sec
Sum of individual times     ....    1729.772 sec  ( 99.7%)

Fock matrix formation       ....    1701.902 sec  ( 98.1%)
Diagonalization             ....       8.862 sec  (  0.5%)
Density matrix formation    ....       0.531 sec  (  0.0%)
Population analysis         ....       0.586 sec  (  0.0%)
Initial guess               ....       2.514 sec  (  0.1%)
Orbital Transformation      ....       0.000 sec  (  0.0%)
Orbital Orthonormalization  ....       0.000 sec  (  0.0%)
DIIS solution               ....       3.965 sec  (  0.2%)
SOSCF solution              ....      10.117 sec  (  0.6%)

Maximum memory used throughout the entire SCF-calculation: 302.7 MB


           ************************************************************
           *        Program running with 16 parallel MPI-processes    *
           *              working on a common directory               *
           ************************************************************

------------------------------------------------------------------------------
                                ORCA  MP2 
------------------------------------------------------------------------------

Freezing NCore=104 chemical core electrons

----------
MP2 ENERGY (disk based algorithm)
----------

Dimension of the basis                    ...  918
Memory devoted to MP2                     ... 2000 MB   
Data format for buffers                   ... DOUBLE
Compression type for matrix containers    ... UNCOMPRESSED

-------------------------------
PARTIAL EXCHANGE TRANSFORMATION
-------------------------------

Transformation type                        ... one-operator
Generation of integrals (i,mue|j,nue)      ... ON
Generation of integrals (mue,kappa|nue,tau)... OFF
Generation of integrals (i,mue|a,nue)      ... OFF
Dimension of the basis                     ...  918
Number of internal MOs                     ...  127 (  52- 178)
Pair cutoff                                ... 2.500e-12 Eh
Number of AO pairs in the trafo            ... 421821
Total Number of distinct AO pairs          ... 421821
Memory devoted for trafo                   ... 2000.0 MB 
Max. Number of MO pairs treated together   ...  311      
Number Format for Storage                  ... Double (8 Byte)
Integral package used                      ... LIBINT

Starting integral evaluation:
    ... done with AO integral generation
Closing buffer AOK     (38.32 GB; CompressionRatio= 1.32)
Collecting buffer AOK 
Number of MO pairs included in the trafo   ... 8128
------------------------
SORTING OF (i,mue|j,nue)
------------------------

IBATCH = 1 of  2
IBATCH = 2 of  2
Closing buffer KAO     (51.03 GB; CompressionRatio= 1.00)
Collecting buffer KAO 
N(AO-Batches) Done                         ...  86023121 
N(AO-Batches) Skipped                      ...  82400081 
N(IJ)-pairs Skipped                        ...         0 
TOTAL TIME for half transformation         ...  2743.948 sec
AO-integral generation                     ...   210.088 sec
Half transformation                        ...   425.338 sec
K-integral sorting                         ...  1883.700 sec

Finished integral transformation - now doing MP2 part

OPERATOR COMBINATION   0   0: ij=( 52..178, 52..178)
Process 10:   Internal MO 132
Process 13:   Internal MO 156
Process  7:   Internal MO 108
Process  1:   Internal MO  60
Process  4:   Internal MO  84
Process  0:   Internal MO  54
Process  0:   Internal MO  57
Process  1:   Internal MO  63
Process  5:   Internal MO  93
Process  3:   Internal MO  78
Process  8:   Internal MO 117
Process  1:   Internal MO  66
Process  6:   Internal MO 102
Process 11:   Internal MO 141
Process 14:   Internal MO 165
Process  4:   Internal MO  87
Process  9:   Internal MO 126
Process  3:   Internal MO  81
Process  7:   Internal MO 111
Process 12:   Internal MO 150
Process  5:   Internal MO  96
Process 15:   Internal MO 174
Process  2:   Internal MO  69
Process  4:   Internal MO  90
Process  6:   Internal MO 105
Process 10:   Internal MO 135
Process  8:   Internal MO 120
Process  2:   Internal MO  72
Process  7:   Internal MO 114
Process  5:   Internal MO  99
Process  9:   Internal MO 129
Process  2:   Internal MO  75
Process 11:   Internal MO 144
Process 13:   Internal MO 159
Process 12:   Internal MO 153
Process 14:   Internal MO 168
Process  8:   Internal MO 123
Process 10:   Internal MO 138
Process 15:   Internal MO 177
Process 11:   Internal MO 147
Process 13:   Internal MO 162
Process 14:   Internal MO 171
-----------------------------------------------
 MP2 CORRELATION ENERGY   :     -7.288571923 Eh
-----------------------------------------------


-------
TIMINGS
-------
Total time                : 3093.205 sec
Integral trafo            : 2747.707 sec ( 88.8%)
K(i,j)                    :    6.271 sec (  0.2%)
T(i,j)                    :    0.659 sec (  0.0%)

---------------------------------------
MP2 TOTAL ENERGY:    -2130.806509612 Eh
---------------------------------------

Maximum memory used throughout the entire MP2-calculation: 2275.3 MB

-------------------------   --------------------
FINAL SINGLE POINT ENERGY     -2130.806509612049
-------------------------   --------------------


                            ***************************************
                            *     ORCA property calculations      *
                            ***************************************


  WARNING: The energy has been calculated at the MP2 level but the densities
           used in the property calculations are still SCF densities
           MP2 response densities have not been calculated 
           use %mp2 Density relaxed end
           or  %mp2 Density unrelaxed end

                                    ---------------------
                                    Active property flags
                                    ---------------------
   (+) Dipole Moment


------------------------------------------------------------------------------
                       ORCA ELECTRIC PROPERTIES CALCULATION
------------------------------------------------------------------------------

Dipole Moment Calculation                       ... on
Quadrupole Moment Calculation                   ... off
Polarizability Calculation                      ... off
GBWName                                         ... /scratch/allen/tmpyp4_amber_gaff2/conf1/conf1/Conf197.orca.gbw
Electron density                                ... /scratch/allen/tmpyp4_amber_gaff2/conf1/conf1/Conf197.orca.scfp
The origin for moment calculation is the CENTER OF MASS  = ( 0.003045, -0.002010 -0.000350)

-------------
DIPOLE MOMENT
-------------
                                X             Y             Z
Electronic contribution:      2.73218      -4.30426      -0.18470
Nuclear contribution   :      0.07394       0.23576       0.18198
                        -----------------------------------------
Total Dipole Moment    :      2.80612      -4.06850      -0.00273
                        -----------------------------------------
Magnitude (a.u.)       :      4.94236
Magnitude (Debye)      :     12.56249



--------------------
Rotational spectrum 
--------------------
 
Rotational constants in cm-1:     0.001501     0.001479     0.000760 
Rotational constants in MHz :    45.004493    44.348034    22.786103 

 Dipole components along the rotational axes: 
x,y,z [a.u.] :     3.511107     3.478375    -0.001909 
x,y,z [Debye]:     8.924526     8.841327    -0.004852 

 

Timings for individual modules:

Sum of individual times         ...     4851.637 sec (=  80.861 min)
GTO integral calculation        ...        3.429 sec (=   0.057 min)   0.1 %
SCF iterations                  ...     1735.774 sec (=  28.930 min)  35.8 %
MP2 module                      ...     3112.434 sec (=  51.874 min)  64.2 %
                             ****ORCA TERMINATED NORMALLY****
TOTAL RUN TIME: 0 days 1 hours 20 minutes 55 seconds 250 msec
# of primitive gaussian functions

