
                                 *****************
                                 * O   R   C   A *
                                 *****************

                                            #,                                       
                                            ###                                      
                                            ####                                     
                                            #####                                    
                                            ######                                   
                                           ########,                                 
                                     ,,################,,,,,                         
                               ,,#################################,,                 
                          ,,##########################################,,             
                       ,#########################################, ''#####,          
                    ,#############################################,,   '####,        
                  ,##################################################,,,,####,       
                ,###########''''           ''''###############################       
              ,#####''   ,,,,##########,,,,          '''####'''          '####       
            ,##' ,,,,###########################,,,                        '##       
           ' ,,###''''                  '''############,,,                           
         ,,##''                                '''############,,,,        ,,,,,,###''
      ,#''                                            '''#######################'''  
     '                                                          ''''####''''         
             ,#######,   #######,   ,#######,      ##                                
            ,#'     '#,  ##    ##  ,#'     '#,    #''#        ######   ,####,        
            ##       ##  ##   ,#'  ##            #'  '#       #        #'  '#        
            ##       ##  #######   ##           ,######,      #####,   #    #        
            '#,     ,#'  ##    ##  '#,     ,#' ,#      #,         ##   #,  ,#        
             '#######'   ##     ##  '#######'  #'      '#     #####' # '####'        



                  #######################################################
                  #                        -***-                        #
                  #          Department of theory and spectroscopy      #
                  #    Directorship and core code : Frank Neese         #
                  #        Max Planck Institute fuer Kohlenforschung    #
                  #                Kaiser Wilhelm Platz 1               #
                  #                 D-45470 Muelheim/Ruhr               #
                  #                      Germany                        #
                  #                                                     #
                  #                  All rights reserved                #
                  #                        -***-                        #
                  #######################################################


                         Program Version 5.0.4 -  RELEASE  -


 With contributions from (in alphabetic order):
   Daniel Aravena         : Magnetic Suceptibility
   Michael Atanasov       : Ab Initio Ligand Field Theory (pilot matlab implementation)
   Alexander A. Auer      : GIAO ZORA, VPT2 properties, NMR spectrum
   Ute Becker             : Parallelization
   Giovanni Bistoni       : ED, misc. LED, open-shell LED, HFLD
   Martin Brehm           : Molecular dynamics
   Dmytro Bykov           : SCF Hessian
   Vijay G. Chilkuri      : MRCI spin determinant printing, contributions to CSF-ICE
   Dipayan Datta          : RHF DLPNO-CCSD density
   Achintya Kumar Dutta   : EOM-CC, STEOM-CC
   Dmitry Ganyushin       : Spin-Orbit,Spin-Spin,Magnetic field MRCI
   Miquel Garcia          : C-PCM and meta-GGA Hessian, CC/C-PCM, Gaussian charge scheme
   Yang Guo               : DLPNO-NEVPT2, F12-NEVPT2, CIM, IAO-localization
   Andreas Hansen         : Spin unrestricted coupled pair/coupled cluster methods
   Benjamin Helmich-Paris : MC-RPA, TRAH-SCF, COSX integrals
   Lee Huntington         : MR-EOM, pCC
   Robert Izsak           : Overlap fitted RIJCOSX, COSX-SCS-MP3, EOM
   Marcus Kettner         : VPT2
   Christian Kollmar      : KDIIS, OOCD, Brueckner-CCSD(T), CCSD density, CASPT2, CASPT2-K
   Simone Kossmann        : Meta GGA functionals, TD-DFT gradient, OOMP2, MP2 Hessian
   Martin Krupicka        : Initial AUTO-CI
   Lucas Lang             : DCDCAS
   Marvin Lechner         : AUTO-CI (C++ implementation), FIC-MRCC
   Dagmar Lenk            : GEPOL surface, SMD
   Dimitrios Liakos       : Extrapolation schemes; Compound Job, initial MDCI parallelization
   Dimitrios Manganas     : Further ROCIS development; embedding schemes
   Dimitrios Pantazis     : SARC Basis sets
   Anastasios Papadopoulos: AUTO-CI, single reference methods and gradients
   Taras Petrenko         : DFT Hessian,TD-DFT gradient, ASA, ECA, R-Raman, ABS, FL, XAS/XES, NRVS
   Peter Pinski           : DLPNO-MP2, DLPNO-MP2 Gradient
   Christoph Reimann      : Effective Core Potentials
   Marius Retegan         : Local ZFS, SOC
   Christoph Riplinger    : Optimizer, TS searches, QM/MM, DLPNO-CCSD(T), (RO)-DLPNO pert. Triples
   Tobias Risthaus        : Range-separated hybrids, TD-DFT gradient, RPA, STAB
   Michael Roemelt        : Original ROCIS implementation
   Masaaki Saitow         : Open-shell DLPNO-CCSD energy and density
   Barbara Sandhoefer     : DKH picture change effects
   Avijit Sen             : IP-ROCIS
   Kantharuban Sivalingam : CASSCF convergence, NEVPT2, FIC-MRCI
   Bernardo de Souza      : ESD, SOC TD-DFT
   Georgi Stoychev        : AutoAux, RI-MP2 NMR, DLPNO-MP2 response
   Willem Van den Heuvel  : Paramagnetic NMR
   Boris Wezisla          : Elementary symmetry handling
   Frank Wennmohs         : Technical directorship


 We gratefully acknowledge several colleagues who have allowed us to
 interface, adapt or use parts of their codes:
   Stefan Grimme, W. Hujo, H. Kruse, P. Pracht,  : VdW corrections, initial TS optimization,
                  C. Bannwarth, S. Ehlert          DFT functionals, gCP, sTDA/sTD-DF
   Ed Valeev, F. Pavosevic, A. Kumar             : LibInt (2-el integral package), F12 methods
   Garnet Chan, S. Sharma, J. Yang, R. Olivares  : DMRG
   Ulf Ekstrom                                   : XCFun DFT Library
   Mihaly Kallay                                 : mrcc  (arbitrary order and MRCC methods)
   Jiri Pittner, Ondrej Demel                    : Mk-CCSD
   Frank Weinhold                                : gennbo (NPA and NBO analysis)
   Christopher J. Cramer and Donald G. Truhlar   : smd solvation model
   Lars Goerigk                                  : TD-DFT with DH, B97 family of functionals
   V. Asgeirsson, H. Jonsson                     : NEB implementation
   FAccTs GmbH                                   : IRC, NEB, NEB-TS, DLPNO-Multilevel, CI-OPT
                                                   MM, QMMM, 2- and 3-layer-ONIOM, Crystal-QMMM,
                                                   LR-CPCM, SF, NACMEs, symmetry and pop. for TD-DFT,
                                                   nearIR, NL-DFT gradient (VV10), updates on ESD,
                                                   ML-optimized integration grids
   S Lehtola, MJT Oliveira, MAL Marques          : LibXC Library
   Liviu Ungur et al                             : ANISO software


 Your calculation uses the libint2 library for the computation of 2-el integrals
 For citations please refer to: http://libint.valeyev.net

 Your ORCA version has been built with support for libXC version: 5.1.0
 For citations please refer to: https://tddft.org/programs/libxc/

 This ORCA versions uses:
   CBLAS   interface :  Fast vector & matrix operations
   LAPACKE interface :  Fast linear algebra routines
   SCALAPACK package :  Parallel linear algebra routines
   Shared memory     :  Shared parallel matrices
   BLAS/LAPACK       :  OpenBLAS 0.3.15  USE64BITINT DYNAMIC_ARCH NO_AFFINITY Sandybridge SINGLE_THREADED
        Core in use  :  Sandybridge
   Copyright (c) 2011-2014, The OpenBLAS Project


================================================================================

----- Orbital basis set information -----
Your calculation utilizes the basis: cc-pVDZ 
       H, B-Ne : Obtained from the ccRepo (grant-hill.group.shef.ac.uk/ccrepo) Feb. 2017
                 T. H. Dunning, Jr., J. Chem. Phys. 90, 1007 (1989)
            He : Obtained from the ccRepo (grant-hill.group.shef.ac.uk/ccrepo) Feb. 2017
                 D. E. Woon, T. H. Dunning, Jr., J. Chem. Phys. 100, 2975 (1994)
  Li-Be, Na-Mg : Obtained from the ccRepo (grant-hill.group.shef.ac.uk/ccrepo) Feb. 2017
                 B. P. Prascher, D. E. Woon, K. A. Peterson, T. H. Dunning, Jr., A. K. Wilson, Theor. Chem. Acc. 128, 69 (2011)
         Al-Ar : Obtained from the ccRepo (grant-hill.group.shef.ac.uk/ccrepo) Feb. 2017
                 D. E. Woon, T. H. Dunning, Jr., J. Chem. Phys. 98, 1358 (1993)
            Ca : Obtained from the Peterson Research Group Website (tyr0.chem.wsu.edu/~kipeters) Feb. 2017
                 J. Koput, K. A. Peterson, J. Phys. Chem. 106, 9595 (2002)
         Sc-Zn : Obtained from the ccRepo (grant-hill.group.shef.ac.uk/ccrepo) Feb. 2017
                 N. B. Balabanov, K. A. Peterson, J. Chem. Phys. 123, 064107 (2005)
                 N. B. Balabanov, K. A. Peterson, J. Chem. Phys. 125, 074110 (2006)
         Ga-Kr : Obtained from the ccRepo (grant-hill.group.shef.ac.uk/ccrepo) Feb. 2017
                 A. K. Wilson, D. E. Woon, K. A. Peterson, T. H. Dunning, Jr., J. Chem. Phys. 110, 7667 (1999)

================================================================================
                                        WARNINGS
                       Please study these warnings very carefully!
================================================================================


WARNING: No MP2 level density has been requested!
         To caclulate MP2 level properties use
         %mp2 Density relaxed end
         or
         %mp2 Density unrelaxed end

WARNING: Post HF methods need fully converged wavefunctions
  ===> : Setting SCFConvForced true
         You can overwrite this default with %scf ConvForced false 


INFO   : the flag for use of the SHARK integral package has been found!

================================================================================
                                       INPUT FILE
================================================================================
NAME = /scratch/allen/tmpyp4_amber_gaff2/2.Mdgx/conf11/conf11/Conf332.orca
|  1> ! PAL2
|  2> ! mp2 cc-pvdz TightSCF  NoKeepInts
|  3> 
|  4> %scf
|  5>   MaxCore 2000
|  6> end
|  7> %mp2
|  8>   MaxCore 2000
|  9> end
| 10> * xyz 0 1
| 11>    C       -3.16300         6.39400         0.68000
| 12>    C        1.47400         4.04100         0.05700
| 13>    C       -2.80200         4.09300         0.04900
| 14>    C       -4.07600         4.10800        -0.54000
| 15>    C       -4.84300         5.25500        -0.50300
| 16>    C       -5.21800         7.59900         0.09200
| 17>    C        0.13200         4.30700         0.06100
| 18>    C       -0.56900         3.05600         0.04700
| 19>    C        1.64900         2.61800         0.02300
| 20>    C       -2.35600         5.27300         0.66400
| 21>    N       -4.38600         6.37500         0.10300
| 22>    N        0.38800         2.06700         0.02500
| 23>    N       -2.01000         0.39500        -0.07500
| 24>    N       -0.38800        -2.07400        -0.02700
| 25>    N        2.01000        -0.40100         0.06500
| 26>    C       -1.96000         2.86100         0.02400
| 27>    C       -2.62300         1.61500        -0.01800
| 28>    C       -5.57300        -4.32900         1.06600
| 29>    C       -4.07300         1.47100         0.05600
| 30>    C       -4.10600        -2.75600        -0.02600
| 31>    C       -4.99500        -2.75700        -1.11100
| 32>    C       -6.13200        -3.54200        -1.07600
| 33>    C       -7.65100        -5.11300         0.04000
| 34>    C       -4.32400         0.14100         0.03700
| 35>    C       -3.02500        -0.52000        -0.04800
| 36>    C       -4.42200        -3.56600         1.07500
| 37>    N       -6.40700        -4.31300         0.00100
| 38>    C       -2.86700        -1.92200        -0.04000
| 39>    C       -1.65000        -2.62400        -0.02700
| 40>    C        3.56800        -6.14200        -1.04000
| 41>    C       -1.47600        -4.04900        -0.03400
| 42>    C        2.80300        -4.09900        -0.00800
| 43>    C        3.65700        -4.38400         1.06900
| 44>    C        4.42700        -5.53000         1.05900
| 45>    C        5.24500        -7.58800         0.01400
| 46>    C       -0.13400        -4.31500        -0.02200
| 47>    C        0.56800        -3.06400        -0.02700
| 48>    C        2.77500        -5.01200        -1.07400
| 49>    N        4.37600        -6.39100         0.01700
| 50>    C        1.95900        -2.86900        -0.00900
| 51>    C        2.62100        -1.62200         0.00900
| 52>    C        5.54300         4.33900        -1.13000
| 53>    C        4.07000        -1.47900        -0.09400
| 54>    C        4.10400         2.75100        -0.02100
| 55>    C        5.02700         2.72900         1.03600
| 56>    C        6.16600         3.50900         0.97800
| 57>    C        7.61900         5.15300        -0.11500
| 58>    C        4.32100        -0.14800        -0.09200
| 59>    C        3.02500         0.51400         0.01500
| 60>    C        4.38700         3.58200        -1.11500
| 61>    C        2.86600         1.91600         0.01300
| 62>    N        6.41300         4.29600        -0.09500
| 63>    H       -2.86600         7.32200         1.15300
| 64>    H        2.27400         4.76600         0.08100
| 65>    H       -4.47100         3.23100        -1.03800
| 66>    H       -5.82700         5.31700        -0.95100
| 67>    H       -5.02900         8.14900        -0.83300
| 68>    H       -6.26700         7.31100         0.15000
| 69>    H       -4.95000         8.21200         0.95300
| 70>    H       -0.33200         5.28200         0.06900
| 71>    H       -1.38800         5.32100         1.14800
| 72>    H        0.18200         1.07200         0.00500
| 73>    H       -0.18300        -1.08000        -0.02100
| 74>    H       -5.86400        -4.96200         1.89500
| 75>    H       -4.79400         2.27200         0.13900
| 76>    H       -4.80000        -2.16000        -1.99400
| 77>    H       -6.84100        -3.58200        -1.89300
| 78>    H       -8.42800        -4.53600         0.54600
| 79>    H       -7.95600        -5.33700        -0.98100
| 80>    H       -7.45600        -6.03700         0.58400
| 81>    H       -5.28700        -0.34400         0.10000
| 82>    H       -3.78000        -3.60100         1.94700
| 83>    H        3.58700        -6.86800        -1.84300
| 84>    H       -2.27600        -4.77400        -0.05000
| 85>    H        3.71400        -3.72400         1.92600
| 86>    H        5.09200        -5.79500         1.87100
| 87>    H        6.20500        -7.32900        -0.43900
| 88>    H        5.39300        -7.91700         1.04200
| 89>    H        4.75900        -8.37300        -0.56400
| 90>    H        0.32900        -5.29000        -0.00800
| 91>    H        2.14600        -4.84200        -1.94000
| 92>    H        5.80800         4.98600        -1.95600
| 93>    H        4.78800        -2.28100        -0.18500
| 94>    H        4.86000         2.11400         1.91200
| 95>    H        6.90100         3.53100         1.77200
| 96>    H        7.38300         6.10900         0.35600
| 97>    H        8.41400         4.65200         0.43500
| 98>    H        7.92100         5.31000        -1.15000
| 99>    H        5.28300         0.33600        -0.17900
|100>    H        3.72000         3.63200        -1.96700
|101> *
|102> 
|103>                          ****END OF INPUT****
================================================================================

                       ****************************
                       * Single Point Calculation *
                       ****************************

---------------------------------
CARTESIAN COORDINATES (ANGSTROEM)
---------------------------------
  C     -3.163000    6.394000    0.680000
  C      1.474000    4.041000    0.057000
  C     -2.802000    4.093000    0.049000
  C     -4.076000    4.108000   -0.540000
  C     -4.843000    5.255000   -0.503000
  C     -5.218000    7.599000    0.092000
  C      0.132000    4.307000    0.061000
  C     -0.569000    3.056000    0.047000
  C      1.649000    2.618000    0.023000
  C     -2.356000    5.273000    0.664000
  N     -4.386000    6.375000    0.103000
  N      0.388000    2.067000    0.025000
  N     -2.010000    0.395000   -0.075000
  N     -0.388000   -2.074000   -0.027000
  N      2.010000   -0.401000    0.065000
  C     -1.960000    2.861000    0.024000
  C     -2.623000    1.615000   -0.018000
  C     -5.573000   -4.329000    1.066000
  C     -4.073000    1.471000    0.056000
  C     -4.106000   -2.756000   -0.026000
  C     -4.995000   -2.757000   -1.111000
  C     -6.132000   -3.542000   -1.076000
  C     -7.651000   -5.113000    0.040000
  C     -4.324000    0.141000    0.037000
  C     -3.025000   -0.520000   -0.048000
  C     -4.422000   -3.566000    1.075000
  N     -6.407000   -4.313000    0.001000
  C     -2.867000   -1.922000   -0.040000
  C     -1.650000   -2.624000   -0.027000
  C      3.568000   -6.142000   -1.040000
  C     -1.476000   -4.049000   -0.034000
  C      2.803000   -4.099000   -0.008000
  C      3.657000   -4.384000    1.069000
  C      4.427000   -5.530000    1.059000
  C      5.245000   -7.588000    0.014000
  C     -0.134000   -4.315000   -0.022000
  C      0.568000   -3.064000   -0.027000
  C      2.775000   -5.012000   -1.074000
  N      4.376000   -6.391000    0.017000
  C      1.959000   -2.869000   -0.009000
  C      2.621000   -1.622000    0.009000
  C      5.543000    4.339000   -1.130000
  C      4.070000   -1.479000   -0.094000
  C      4.104000    2.751000   -0.021000
  C      5.027000    2.729000    1.036000
  C      6.166000    3.509000    0.978000
  C      7.619000    5.153000   -0.115000
  C      4.321000   -0.148000   -0.092000
  C      3.025000    0.514000    0.015000
  C      4.387000    3.582000   -1.115000
  C      2.866000    1.916000    0.013000
  N      6.413000    4.296000   -0.095000
  H     -2.866000    7.322000    1.153000
  H      2.274000    4.766000    0.081000
  H     -4.471000    3.231000   -1.038000
  H     -5.827000    5.317000   -0.951000
  H     -5.029000    8.149000   -0.833000
  H     -6.267000    7.311000    0.150000
  H     -4.950000    8.212000    0.953000
  H     -0.332000    5.282000    0.069000
  H     -1.388000    5.321000    1.148000
  H      0.182000    1.072000    0.005000
  H     -0.183000   -1.080000   -0.021000
  H     -5.864000   -4.962000    1.895000
  H     -4.794000    2.272000    0.139000
  H     -4.800000   -2.160000   -1.994000
  H     -6.841000   -3.582000   -1.893000
  H     -8.428000   -4.536000    0.546000
  H     -7.956000   -5.337000   -0.981000
  H     -7.456000   -6.037000    0.584000
  H     -5.287000   -0.344000    0.100000
  H     -3.780000   -3.601000    1.947000
  H      3.587000   -6.868000   -1.843000
  H     -2.276000   -4.774000   -0.050000
  H      3.714000   -3.724000    1.926000
  H      5.092000   -5.795000    1.871000
  H      6.205000   -7.329000   -0.439000
  H      5.393000   -7.917000    1.042000
  H      4.759000   -8.373000   -0.564000
  H      0.329000   -5.290000   -0.008000
  H      2.146000   -4.842000   -1.940000
  H      5.808000    4.986000   -1.956000
  H      4.788000   -2.281000   -0.185000
  H      4.860000    2.114000    1.912000
  H      6.901000    3.531000    1.772000
  H      7.383000    6.109000    0.356000
  H      8.414000    4.652000    0.435000
  H      7.921000    5.310000   -1.150000
  H      5.283000    0.336000   -0.179000
  H      3.720000    3.632000   -1.967000

----------------------------
CARTESIAN COORDINATES (A.U.)
----------------------------
  NO LB      ZA    FRAG     MASS         X           Y           Z
   0 C     6.0000    0    12.011   -5.977204   12.082909    1.285014
   1 C     6.0000    0    12.011    2.785456    7.636383    0.107714
   2 C     6.0000    0    12.011   -5.295013    7.734649    0.092597
   3 C     6.0000    0    12.011   -7.702524    7.762995   -1.020452
   4 C     6.0000    0    12.011   -9.151944    9.930511   -0.950532
   5 C     6.0000    0    12.011   -9.860591   14.360029    0.173855
   6 C     6.0000    0    12.011    0.249444    8.139050    0.115273
   7 C     6.0000    0    12.011   -1.075254    5.775003    0.088817
   8 C     6.0000    0    12.011    3.116158    4.947303    0.043464
   9 C     6.0000    0    12.011   -4.452195    9.964526    1.254778
  10 N     7.0000    0    14.007   -8.288339   12.047004    0.194642
  11 N     7.0000    0    14.007    0.733214    3.906064    0.047243
  12 N     7.0000    0    14.007   -3.798350    0.746442   -0.141729
  13 N     7.0000    0    14.007   -0.733214   -3.919292   -0.051023
  14 N     7.0000    0    14.007    3.798350   -0.757780    0.122832
  15 C     6.0000    0    12.011   -3.703863    5.406506    0.045353
  16 C     6.0000    0    12.011   -4.956752    3.051908   -0.034015
  17 C     6.0000    0    12.011  -10.531444   -8.180624    2.014448
  18 C     6.0000    0    12.011   -7.696855    2.779787    0.105825
  19 C     6.0000    0    12.011   -7.759216   -5.208085   -0.049133
  20 C     6.0000    0    12.011   -9.439182   -5.209975   -2.099486
  21 C     6.0000    0    12.011  -11.587801   -6.693410   -2.033345
  22 C     6.0000    0    12.011  -14.458295   -9.662170    0.075589
  23 C     6.0000    0    12.011   -8.171176    0.266451    0.069920
  24 C     6.0000    0    12.011   -5.716422   -0.982658   -0.090707
  25 C     6.0000    0    12.011   -8.356369   -6.738763    2.031456
  26 N     7.0000    0    14.007  -12.107475   -8.150389    0.001890
  27 C     6.0000    0    12.011   -5.417845   -3.632054   -0.075589
  28 C     6.0000    0    12.011   -3.118048   -4.958641   -0.051023
  29 C     6.0000    0    12.011    6.742543  -11.606698   -1.965315
  30 C     6.0000    0    12.011   -2.789236   -7.651501   -0.064251
  31 C     6.0000    0    12.011    5.296902   -7.745987   -0.015118
  32 C     6.0000    0    12.011    6.910728   -8.284559    2.020117
  33 C     6.0000    0    12.011    8.365818  -10.450186    2.001220
  34 C     6.0000    0    12.011    9.911614  -14.339242    0.026456
  35 C     6.0000    0    12.011   -0.253223   -8.154168   -0.041574
  36 C     6.0000    0    12.011    1.073364   -5.790121   -0.051023
  37 C     6.0000    0    12.011    5.243990   -9.471307   -2.029566
  38 N     7.0000    0    14.007    8.269442  -12.077240    0.032125
  39 C     6.0000    0    12.011    3.701973   -5.421624   -0.017008
  40 C     6.0000    0    12.011    4.952972   -3.065136    0.017008
  41 C     6.0000    0    12.011   10.474752    8.199522   -2.135391
  42 C     6.0000    0    12.011    7.691185   -2.794905   -0.177634
  43 C     6.0000    0    12.011    7.755436    5.198637   -0.039684
  44 C     6.0000    0    12.011    9.499653    5.157063    1.957756
  45 C     6.0000    0    12.011   11.652051    6.631049    1.848152
  46 C     6.0000    0    12.011   14.397823    9.737759   -0.217319
  47 C     6.0000    0    12.011    8.165507   -0.279679   -0.173855
  48 C     6.0000    0    12.011    5.716422    0.971319    0.028346
  49 C     6.0000    0    12.011    8.290229    6.768999   -2.107045
  50 C     6.0000    0    12.011    5.415955    3.620715    0.024566
  51 N     7.0000    0    14.007   12.118814    8.118263   -0.179524
  52 H     1.0000    0     1.008   -5.415955   13.836575    2.178854
  53 H     1.0000    0     1.008    4.297237    9.006435    0.153068
  54 H     1.0000    0     1.008   -8.448966    6.105705   -1.961536
  55 H     1.0000    0     1.008  -11.011434   10.047674   -1.797130
  56 H     1.0000    0     1.008   -9.503433   15.399378   -1.574142
  57 H     1.0000    0     1.008  -11.842914   13.815788    0.283459
  58 H     1.0000    0     1.008   -9.354144   15.518431    1.800909
  59 H     1.0000    0     1.008   -0.627389    9.981533    0.130391
  60 H     1.0000    0     1.008   -2.622940   10.055233    2.169406
  61 H     1.0000    0     1.008    0.343930    2.025786    0.009449
  62 H     1.0000    0     1.008   -0.345820   -2.040904   -0.039684
  63 H     1.0000    0     1.008  -11.081354   -9.376821    3.581031
  64 H     1.0000    0     1.008   -9.059347    4.293458    0.262672
  65 H     1.0000    0     1.008   -9.070685   -4.081808   -3.768114
  66 H     1.0000    0     1.008  -12.927616   -6.768999   -3.577252
  67 H     1.0000    0     1.008  -15.926612   -8.571798    1.031790
  68 H     1.0000    0     1.008  -15.034661  -10.085468   -1.853821
  69 H     1.0000    0     1.008  -14.089798  -11.408277    1.103600
  70 H     1.0000    0     1.008   -9.990982   -0.650066    0.188973
  71 H     1.0000    0     1.008   -7.143165   -6.804904    3.679297
  72 H     1.0000    0     1.008    6.778448  -12.978639   -3.482765
  73 H     1.0000    0     1.008   -4.301017   -9.021553   -0.094486
  74 H     1.0000    0     1.008    7.018443   -7.037340    3.639613
  75 H     1.0000    0     1.008    9.622485  -10.950963    3.535678
  76 H     1.0000    0     1.008   11.725751  -13.849803   -0.829590
  77 H     1.0000    0     1.008   10.191293  -14.960962    1.969095
  78 H     1.0000    0     1.008    8.993207  -15.822677   -1.065806
  79 H     1.0000    0     1.008    0.621720   -9.996651   -0.015118
  80 H     1.0000    0     1.008    4.055352   -9.150054   -3.666069
  81 H     1.0000    0     1.008   10.975529    9.422175   -3.696304
  82 H     1.0000    0     1.008    9.048009   -4.310465   -0.349599
  83 H     1.0000    0     1.008    9.184069    3.994881    3.613156
  84 H     1.0000    0     1.008   13.041000    6.672623    3.348595
  85 H     1.0000    0     1.008   13.951848   11.544337    0.672743
  86 H     1.0000    0     1.008   15.900156    8.791006    0.822031
  87 H     1.0000    0     1.008   14.968521   10.034446   -2.173185
  88 H     1.0000    0     1.008    9.983423    0.634948   -0.338261
  89 H     1.0000    0     1.008    7.029781    6.863485   -3.717091

--------------------------------
INTERNAL COORDINATES (ANGSTROEM)
--------------------------------
 C      0   0   0     0.000000000000     0.00000000     0.00000000
 C      1   0   0     5.237032270284     0.00000000     0.00000000
 C      1   2   0     2.413106504073    53.70142547     0.00000000
 C      3   1   2     1.403645966759    87.92281128   203.77373337
 C      4   3   1     1.380314094690   120.13100204     0.15485254
 C      5   4   3     2.447240486752   152.57062703     1.61553121
 C      2   1   3     1.368114030335    17.01484927     8.61040418
 C      7   2   1     1.434084376876   108.05010202   202.74686139
 C      2   1   3     1.434123425651   123.82653156   343.23173786
 C      1   2   3     1.381356579598    27.96096092    25.39876129
 N      1   2   3     1.352412289208   138.04179357   322.92233722
 N      9   2   1     1.376127174356   106.58526707     6.82485512
 N     12   9   2     2.925062050624   168.53581413   171.12065651
 N     13  12   9     2.954513327098    91.55032014    11.12112580
 N     14  13  12     2.925371258490    88.43092389   359.84326247
 C      8   7   2     1.404790019896   127.24786865   181.11170171
 C     13  12   9     1.366535034311    81.72106996   188.00453233
 C     14  13  12     5.758810554272    80.56209567   166.76250791
 C     17  13  12     1.459010623676   111.08861209   183.82872609
 C     18  14  13     2.412235892279    27.27532823    36.33507194
 C     20  18  14     1.402692767501    87.95206320   148.94598259
 C     21  20  18     1.382106725257   120.14573887   359.70382047
 C     18  14  13     2.446510985056   144.15733107    82.80075377
 C     19  17  13     1.353610726908   106.29293361   359.75308708
 C     13  12   9     1.366813447402   172.21332906    33.46711076
 C     18  14  13     1.380960173213    15.08449437   309.23336894
 N     22  21  20     1.352773077792   120.73759875     0.27865223
 C     25  13  17     1.410897586645   125.60330303   182.37774668
 C     14  13  12     1.376642291955    80.24689249   177.85461986
 C     14  13  12     5.764089607215   164.51507311   312.20821879
 C     29  14  13     1.435600919476   106.58649366   178.76395472
 C     30  14  13     2.413316804732    27.10625047    82.12560436
 C     32  30  14     1.403734305344    87.90059683   149.76154742
 C     33  32  30     1.380694028378   120.14881443   359.74174632
 C     34  33  32     2.448777858443   152.49203239     2.45173620
 C     31  29  14     1.368160809262   108.16950133     0.70383075
 C     14  13  12     1.376239804685   169.26375223   353.09862627
 C     30  14  13     1.380907310430    14.68948582   353.70041132
 N     34  33  32     1.352658863128   120.85575621     0.19603406
 C     37  14  29     1.404717053360   126.01551127   180.90772073
 C     15  14  13     1.366491126938    81.61824056   183.09049352
 C      2   1   3     4.249062720177   148.17089538   146.28087589
 C     41  15  14     1.459677704153   111.05201287   175.08990246
 C     42   2   1     2.412953791518    41.78584867   170.39292539
 C     44  42   2     1.403446472082    87.95153797   233.97558675
 C     45  44  42     1.381696421071   120.11137308     0.19721020
 C     42   2   1     2.450019795838   135.97209175    80.70777449
 C     43  41  15     1.354461516618   106.26758155     0.30894352
 C     15  14  13     1.367461151185   171.87382904   332.35056460
 C     42   2   1     1.381886391857    32.59078432   219.24820458
 C      9   2   1     1.404988612053   126.98745415   187.82919265
 N     42   2   1     1.352765315936   113.57249190   108.44436368
 H      1   2   3     1.083107566219   101.19304392   168.68518635
 H      2   1   3     1.079907866440   110.58785940   170.13799814
 H      4   3   1     1.083124184939   121.01639313   179.51478226
 H      5   4   3     1.082960756445   122.77749882   179.43256137
 H      6   5   4     1.092632600649   104.46570194   100.03939474
 H      6   5   4     1.089361739736    84.67985163   209.52216889
 H      6   5   4     1.090373330562   133.85202956   322.39020624
 H      7   2   1     1.079807853278   126.66122480    22.98527517
 H     10   1   2     1.083320820441   118.74332855    44.47060825
 H     12   9   2     1.016297692608   125.29023241   180.00180175
 H     14  13  12     1.014936943854    44.97226959   359.42596618
 H     18  14  13     1.082871645210   128.03556573   234.20482432
 H     19  17  13     1.080893611786   126.41830519   178.11313280
 H     21  20  18     1.083569563987   121.05669627   180.67006309
 H     22  21  20     1.082483256222   122.73097286   180.59748951
 H     23  18  14     1.092105306278   103.92715769   234.93429879
 H     23  18  14     1.088871893291   134.19244188    12.25587044
 H     23  18  14     1.089833473518    84.85857450   125.45241208
 H     24  19  17     1.080075460327   127.28078426   178.44613241
 H     26  18  14     1.083408048706   118.76995697   244.94906660
 H     30  14  13     1.082703098730   127.99711412   279.66882698
 H     31  29  14     1.079759695488   125.22293469   180.92530585
 H     33  32  30     1.083188810873   121.01964473   180.74284758
 H     34  33  32     1.082494341787   122.70821597   180.59516895
 H     35  34  33     1.092652735319   105.73575241    97.19771933
 H     35  34  33     1.089462711615    84.05943581   206.43036958
 H     35  34  33     1.089268102902   133.08365142   318.50306270
 H     36  31  29     1.079439669458   126.61599965   178.98859863
 H     38  30  73     1.083742127999   118.77264435   359.90091293
 H     42   2   1     1.082178358682   119.31790784   325.07589414
 H     43  41  15     1.080281907652   126.36969097   182.06329380
 H     45  44  42     1.083277434455   121.10105945   179.58025624
 H     46  45  44     1.082194529648   122.72144639   179.46906377
 H     47  42   2     1.091546151109   106.65128841   315.16475048
 H     47  42   2     1.088818625851   132.46019523    94.52397119
 H     47  42   2     1.089531091801    83.63838232   206.04504406
 H     48  43  41     1.080402239909   127.23657387   181.62955349
 H     50  42   2     1.083186502870   118.77001737    94.71359229

---------------------------
INTERNAL COORDINATES (A.U.)
---------------------------
 C      0   0   0     0.000000000000     0.00000000     0.00000000
 C      1   0   0     9.896556745345     0.00000000     0.00000000
 C      1   2   0     4.560110424682    53.70142547     0.00000000
 C      3   1   2     2.652506466158    87.92281128   203.77373337
 C      4   3   1     2.608415617756   120.13100204     0.15485254
 C      5   4   3     4.624614303806   152.57062703     1.61553121
 C      2   1   3     2.585360837309    17.01484927     8.61040418
 C      7   2   1     2.710026725231   108.05010202   202.74686139
 C      2   1   3     2.710100516721   123.82653156   343.23173786
 C      1   2   3     2.610385628731    27.96096092    25.39876129
 N      1   2   3     2.555688846752   138.04179357   322.92233722
 N      9   2   1     2.600503484979   106.58526707     6.82485512
 N     12   9   2     5.527566200405   168.53581413   171.12065651
 N     13  12   9     5.583221047236    91.55032014    11.12112580
 N     14  13  12     5.528150518591    88.43092389   359.84326247
 C      8   7   2     2.654668413270   127.24786865   181.11170171
 C     13  12   9     2.582376967257    81.72106996   188.00453233
 C     14  13  12    10.882574804710    80.56209567   166.76250791
 C     17  13  12     2.757130505230   111.08861209   183.82872609
 C     18  14  13     4.558465206823    27.27532823    36.33507194
 C     20  18  14     2.650705180609    87.95206320   148.94598259
 C     21  20  18     2.611803198586   120.14573887   359.70382047
 C     18  14  13     4.623235745386   144.15733107    82.80075377
 C     19  17  13     2.557953565794   106.29293361   359.75308708
 C     13  12   9     2.582903091751   172.21332906    33.46711076
 C     18  14  13     2.609636529225    15.08449437   309.23336894
 N     22  21  20     2.556370638369   120.73759875     0.27865223
 C     25  13  17     2.666210041769   125.60330303   182.37774668
 C     14  13  12     2.601476916169    80.24689249   177.85461986
 C     14  13  12    10.892550769017   164.51507311   312.20821879
 C     29  14  13     2.712892575415   106.58649366   178.76395472
 C     30  14  13     4.560507835333    27.10625047    82.12560436
 C     32  30  14     2.652673401891    87.90059683   149.76154742
 C     33  32  30     2.609133588376   120.14881443   359.74174632
 C     34  33  32     4.627519515267   152.49203239     2.45173620
 C     31  29  14     2.585449236669   108.16950133     0.70383075
 C     14  13  12     2.600716325456   169.26375223   353.09862627
 C     30  14  13     2.609536633043    14.68948582   353.70041132
 N     34  33  32     2.556154803934   120.85575621     0.19603406
 C     37  14  29     2.654530526499   126.01551127   180.90772073
 C     15  14  13     2.582293994346    81.61824056   183.09049352
 C      2   1   3     8.029564866989   148.17089538   146.28087589
 C     41  15  14     2.758391104639   111.05201287   175.08990246
 C     42   2   1     4.559821839776    41.78584867   170.39292539
 C     44  42   2     2.652129475853    87.95153797   233.97558675
 C     45  44  42     2.611027836043   120.11137308     0.19721020
 C     42   2   1     4.629866436820   135.97209175    80.70777449
 C     43  41  15     2.559561325344   106.26758155     0.30894352
 C     15  14  13     2.584127074516   171.87382904   332.35056460
 C     42   2   1     2.611386828803    32.59078432   219.24820458
 C      9   2   1     2.655043698059   126.98745415   187.82919265
 N     42   2   1     2.556355970587   113.57249190   108.44436368
 H      1   2   3     2.046776673731   101.19304392   168.68518635
 H      2   1   3     2.040730117440   110.58785940   170.13799814
 H      4   3   1     2.046808078562   121.01639313   179.51478226
 H      5   4   3     2.046499243465   122.77749882   179.43256137
 H      6   5   4     2.064776380220   104.46570194   100.03939474
 H      6   5   4     2.058595348872    84.67985163   209.52216889
 H      6   5   4     2.060506978493   133.85202956   322.39020624
 H      7   2   1     2.040541119952   126.66122480    22.98527517
 H     10   1   2     2.047179665808   118.74332855    44.47060825
 H     12   9   2     1.920524309565   125.29023241   180.00180175
 H     14  13  12     1.917952867083    44.97226959   359.42596618
 H     18  14  13     2.046330847636   128.03556573   234.20482432
 H     19  17  13     2.042592906181   126.41830519   178.11313280
 H     21  20  18     2.047649722989   121.05669627   180.67006309
 H     22  21  20     2.045596898814   122.73097286   180.59748951
 H     23  18  14     2.063779938267   103.92715769   234.93429879
 H     23  18  14     2.057669673245   134.19244188    12.25587044
 H     23  18  14     2.059486796529    84.85857450   125.45241208
 H     24  19  17     2.041046823986   127.28078426   178.44613241
 H     26  18  14     2.047344503340   118.76995697   244.94906660
 H     30  14  13     2.046012340948   127.99711412   279.66882698
 H     31  29  14     2.040450114918   125.22293469   180.92530585
 H     33  32  30     2.046930203877   121.01964473   180.74284758
 H     34  33  32     2.045617847496   122.70821597   180.59516895
 H     35  34  33     2.064814429233   105.73575241    97.19771933
 H     35  34  33     2.058786158072    84.05943581   206.43036958
 H     35  34  33     2.058418400901   133.08365142   318.50306270
 H     36  31  29     2.039845353366   126.61599965   178.98859863
 H     38  30  73     2.047975821711   118.77264435   359.90091293
 H     42   2   1     2.045020725966   119.31790784   325.07589414
 H     43  41  15     2.041436952892   126.36969097   182.06329380
 H     45  44  42     2.047097678177   121.10105945   179.58025624
 H     46  45  44     2.045051284662   122.72144639   179.46906377
 H     47  42   2     2.062723288131   106.65128841   315.16475048
 H     47  42   2     2.057569012371   132.46019523    94.52397119
 H     47  42   2     2.058915377895    83.63838232   206.04504406
 H     48  43  41     2.041664347903   127.23657387   181.62955349
 H     50  42   2     2.046925842384   118.77001737    94.71359229

---------------------
BASIS SET INFORMATION
---------------------
There are 3 groups of distinct atoms

 Group   1 Type C   : 17s4p1d contracted to 3s2p1d pattern {881/31/1}
 Group   2 Type N   : 17s4p1d contracted to 3s2p1d pattern {881/31/1}
 Group   3 Type H   : 4s1p contracted to 2s1p pattern {31/1}

Atom   0C    basis set group =>   1
Atom   1N    basis set group =>   2
Atom   2C    basis set group =>   1
Atom   3N    basis set group =>   2
Atom   4C    basis set group =>   1
Atom   5N    basis set group =>   2
Atom   6C    basis set group =>   1
Atom   7N    basis set group =>   2
Atom   8C    basis set group =>   1
Atom   9N    basis set group =>   2
Atom  10C    basis set group =>   1
Atom  11N    basis set group =>   2
Atom  12C    basis set group =>   1
Atom  13N    basis set group =>   2
Atom  14C    basis set group =>   1
Atom  15N    basis set group =>   2
Atom  16C    basis set group =>   1
Atom  17C    basis set group =>   1
Atom  18C    basis set group =>   1
Atom  19C    basis set group =>   1
Atom  20C    basis set group =>   1
Atom  21C    basis set group =>   1
Atom  22C    basis set group =>   1
Atom  23C    basis set group =>   1
Atom  24C    basis set group =>   1
Atom  25C    basis set group =>   1
Atom  26C    basis set group =>   1
Atom  27C    basis set group =>   1
Atom  28C    basis set group =>   1
Atom  29C    basis set group =>   1
Atom  30C    basis set group =>   1
Atom  31C    basis set group =>   1
Atom  32C    basis set group =>   1
Atom  33C    basis set group =>   1
Atom  34C    basis set group =>   1
Atom  35C    basis set group =>   1
Atom  36C    basis set group =>   1
Atom  37C    basis set group =>   1
Atom  38C    basis set group =>   1
Atom  39C    basis set group =>   1
Atom  40C    basis set group =>   1
Atom  41C    basis set group =>   1
Atom  42C    basis set group =>   1
Atom  43C    basis set group =>   1
Atom  44C    basis set group =>   1
Atom  45C    basis set group =>   1
Atom  46C    basis set group =>   1
Atom  47C    basis set group =>   1
Atom  48C    basis set group =>   1
Atom  49C    basis set group =>   1
Atom  50C    basis set group =>   1
Atom  51C    basis set group =>   1
Atom  52H    basis set group =>   3
Atom  53H    basis set group =>   3
Atom  54H    basis set group =>   3
Atom  55H    basis set group =>   3
Atom  56H    basis set group =>   3
Atom  57H    basis set group =>   3
Atom  58H    basis set group =>   3
Atom  59H    basis set group =>   3
Atom  60H    basis set group =>   3
Atom  61H    basis set group =>   3
Atom  62H    basis set group =>   3
Atom  63H    basis set group =>   3
Atom  64H    basis set group =>   3
Atom  65H    basis set group =>   3
Atom  66H    basis set group =>   3
Atom  67H    basis set group =>   3
Atom  68H    basis set group =>   3
Atom  69H    basis set group =>   3
Atom  70H    basis set group =>   3
Atom  71H    basis set group =>   3
Atom  72H    basis set group =>   3
Atom  73H    basis set group =>   3
Atom  74H    basis set group =>   3
Atom  75H    basis set group =>   3
Atom  76H    basis set group =>   3
Atom  77H    basis set group =>   3
Atom  78H    basis set group =>   3
Atom  79H    basis set group =>   3
Atom  80H    basis set group =>   3
Atom  81H    basis set group =>   3
Atom  82H    basis set group =>   3
Atom  83H    basis set group =>   3
Atom  84H    basis set group =>   3
Atom  85H    basis set group =>   3
Atom  86H    basis set group =>   3
Atom  87H    basis set group =>   3
Atom  88H    basis set group =>   3
Atom  89H    basis set group =>   3


           ************************************************************
           *        Program running with 8 parallel MPI-processes     *
           *              working on a common directory               *
           ************************************************************
------------------------------------------------------------------------------
                           ORCA GTO INTEGRAL CALCULATION
------------------------------------------------------------------------------
------------------------------------------------------------------------------
                   ___                                                        
                  /   \      - P O W E R E D   B Y -                         
                 /     \                                                     
                 |  |  |   _    _      __       _____    __    __             
                 |  |  |  | |  | |    /  \     |  _  \  |  |  /  |          
                  \  \/   | |  | |   /    \    | | | |  |  | /  /          
                 / \  \   | |__| |  /  /\  \   | |_| |  |  |/  /          
                |  |  |   |  __  | /  /__\  \  |    /   |      \           
                |  |  |   | |  | | |   __   |  |    \   |  |\   \          
                \     /   | |  | | |  |  |  |  | |\  \  |  | \   \       
                 \___/    |_|  |_| |__|  |__|  |_| \__\ |__|  \__/        
                                                                              
                      - O R C A' S   B I G   F R I E N D -                    
                                      &                                       
                       - I N T E G R A L  F E E D E R -                       
                                                                              
 v1 FN, 2020, v2 2021                                                         
------------------------------------------------------------------------------


Reading SHARK input file /scratch/chu_02/allen/tmpyp4_amber_gaff2/conf1/conf1/Conf332.orca.SHARKINP.tmp ... ok
----------------------
SHARK INTEGRAL PACKAGE
----------------------

Number of atoms                             ...     90
Number of basis functions                   ...   1230
Number of shells                            ...    738
Maximum angular momentum                    ...      2
Integral batch strategy                     ... SHARK/LIBINT Hybrid
RI-J (if used) integral strategy            ... SPLIT-RIJ (Revised 2003 algorithm where possible)
Printlevel                                  ...      1
Contraction scheme used                     ... PARTIAL GENERAL contraction
Coulomb Range Separation                    ... NOT USED
Exchange Range Separation                   ... NOT USED
Finite Nucleus Model                        ... NOT USED
Auxiliary Coulomb fitting basis             ... NOT available
Auxiliary J/K fitting basis                 ... NOT available
Auxiliary Correlation fitting basis         ... NOT available
Auxiliary 'external' fitting basis          ... NOT available
Integral threshold                          ...     2.500000e-11
Primitive cut-off                           ...     2.500000e-12
Primitive pair pre-selection threshold      ...     2.500000e-12

Calculating pre-screening integrals         ... done (  0.1 sec) Dimension = 738
Calculating pre-screening integrals (ORCA)  ... done (  0.3 sec) Dimension = 426
Organizing shell pair data                  ... done (  1.2 sec)
Shell pair information
Total number of shell pairs                 ...    272691
Shell pairs after pre-screening             ...     71665
Total number of primitive shell pairs       ...    422091
Primitive shell pairs kept                  ...     92526
          la=0 lb=0:  29411 shell pairs
          la=1 lb=0:  26007 shell pairs
          la=1 lb=1:   4707 shell pairs
          la=2 lb=0:   7889 shell pairs
          la=2 lb=1:   3122 shell pairs
          la=2 lb=2:    529 shell pairs

Calculating one electron integrals          ... done (  0.2 sec)
Calculating Nuclear repulsion               ... done (  0.0 sec) ENN=   6231.470588059796 Eh

SHARK setup successfully completed in   4.6 seconds

Maximum memory used throughout the entire GTOINT-calculation: 99.0 MB


           ************************************************************
           *        Program running with 8 parallel MPI-processes     *
           *              working on a common directory               *
           ************************************************************
-------------------------------------------------------------------------------
                                 ORCA SCF
-------------------------------------------------------------------------------

------------
SCF SETTINGS
------------
Hamiltonian:
 Ab initio Hamiltonian  Method          .... Hartree-Fock(GTOs)


General Settings:
 Integral files         IntName         .... /scratch/chu_02/allen/tmpyp4_amber_gaff2/conf1/conf1/Conf332.orca
 Hartree-Fock type      HFTyp           .... RHF
 Total Charge           Charge          ....    0
 Multiplicity           Mult            ....    1
 Number of Electrons    NEL             ....  358
 Basis Dimension        Dim             ....  918
 Nuclear Repulsion      ENuc            ....   6231.4705880598 Eh

Convergence Acceleration:
 DIIS                   CNVDIIS         .... on
   Start iteration      DIISMaxIt       ....    12
   Startup error        DIISStart       ....  0.200000
   # of expansion vecs  DIISMaxEq       ....     5
   Bias factor          DIISBfac        ....   1.050
   Max. coefficient     DIISMaxC        ....  10.000
 Trust-Rad. Augm. Hess. CNVTRAH         .... auto
   Auto Start mean grad. ratio tolernc. ....  1.125000
   Auto Start start iteration           ....    20
   Auto Start num. interpolation iter.  ....    10
   Max. Number of Micro iterations      ....    16
   Max. Number of Macro iterations      .... Maxiter - #DIIS iter
   Number of Davidson start vectors     ....     2
   Converg. threshold I  (grad. norm)   ....   1.000e-05
   Converg. threshold II (energy diff.) ....   1.000e-08
   Grad. Scal. Fac. for Micro threshold ....   0.100
   Minimum threshold for Micro iter.    ....   0.010
   NR start threshold (gradient norm)   ....   0.001
   Initial trust radius                 ....   0.400
   Minimum AH scaling param. (alpha)    ....   1.000
   Maximum AH scaling param. (alpha)    .... 1000.000
   Orbital update algorithm             .... Taylor
   White noise on init. David. guess    .... on
   Maximum white noise                  ....   0.010
   Quad. conv. algorithm                .... NR
 SOSCF                  CNVSOSCF        .... on
   Start iteration      SOSCFMaxIt      ....   150
   Startup grad/error   SOSCFStart      ....  0.003300
 Level Shifting         CNVShift        .... on
   Level shift para.    LevelShift      ....    0.2500
   Turn off err/grad.   ShiftErr        ....    0.0010
 Zerner damping         CNVZerner       .... off
 Static damping         CNVDamp         .... on
   Fraction old density DampFac         ....    0.7000
   Max. Damping (<1)    DampMax         ....    0.9800
   Min. Damping (>=0)   DampMin         ....    0.0000
   Turn off err/grad.   DampErr         ....    0.1000
 Fernandez-Rico         CNVRico         .... off

SCF Procedure:
 Maximum # iterations   MaxIter         ....   125
 SCF integral mode      SCFMode         .... Direct
   Integral package                     .... SHARK and LIBINT hybrid scheme
 Reset frequency        DirectResetFreq ....    20
 Integral Threshold     Thresh          ....  2.500e-11 Eh
 Primitive CutOff       TCut            ....  2.500e-12 Eh

Convergence Tolerance:
 Convergence Check Mode ConvCheckMode   .... Total+1el-Energy
 Convergence forced     ConvForced      .... 1
 Energy Change          TolE            ....  1.000e-08 Eh
 1-El. energy change                    ....  1.000e-05 Eh
 Orbital Gradient       TolG            ....  1.000e-05
 Orbital Rotation angle TolX            ....  1.000e-05
 DIIS Error             TolErr          ....  5.000e-07


Diagonalization of the overlap matrix:
Smallest eigenvalue                        ... 2.185e-04
Time for diagonalization                   ...    0.175 sec
Threshold for overlap eigenvalues          ... 1.000e-08
Number of eigenvalues below threshold      ... 0
Time for construction of square roots      ...    0.249 sec
Total time needed                          ...    0.428 sec

Time for model grid setup =    1.254 sec

------------------------------
INITIAL GUESS: MODEL POTENTIAL
------------------------------
Loading Hartree-Fock densities                     ... done
Calculating cut-offs                               ... done
Initializing the effective Hamiltonian             ... done
Setting up the integral package (SHARK)            ... done
Starting the Coulomb interaction                   ... done (   1.6 sec)
Reading the grid                                   ... done
Mapping shells                                     ... done
Starting the XC term evaluation                    ... done (   0.2 sec)
Transforming the Hamiltonian                       ... done (   0.1 sec)
Diagonalizing the Hamiltonian                      ... done (   0.2 sec)
Back transforming the eigenvectors                 ... done (   0.0 sec)
Now organizing SCF variables                       ... done
                      ------------------
                      INITIAL GUESS DONE (   3.4 sec)
                      ------------------
--------------
SCF ITERATIONS
--------------
ITER       Energy         Delta-E        Max-DP      RMS-DP      [F,P]     Damp
               ***  Starting incremental Fock matrix formation  ***
  0  -2121.6900243063   0.000000000000 0.08019354  0.00121885  0.2319123 0.7000
  1  -2122.3423564303  -0.652332123987 0.06023608  0.00099094  0.1437309 0.7000
                               ***Turning on DIIS***
  2  -2122.7482373359  -0.405880905635 0.13996974  0.00225175  0.0802606 0.0000
  3  -2117.9716690213   4.776568314606 0.03308126  0.00066820  0.0437869 0.0000
  4  -2123.4286055358  -5.456936514543 0.01065813  0.00022459  0.0082937 0.0000
  5  -2123.5811211843  -0.152515648417 0.00530271  0.00013191  0.0049655 0.0000
  6  -2123.5648735873   0.016247597003 0.00364508  0.00008478  0.0020459 0.0000
  7  -2123.6614115133  -0.096537925998 0.00310290  0.00006682  0.0015881 0.0000
  8  -2123.6715213238  -0.010109810588 0.00328168  0.00006326  0.0014782 0.0000
  9  -2123.6417203620   0.029800961835 0.00261816  0.00004444  0.0011835 0.0000
 10  -2123.6508859088  -0.009165546773 0.00526970  0.00009294  0.0009169 0.0000
                      *** Initiating the SOSCF procedure ***
                           *** Shutting down DIIS ***
                      *** Re-Reading the Fockian *** 
                      *** Removing any level shift *** 
ITER      Energy       Delta-E        Grad      Rot      Max-DP    RMS-DP
 11  -2123.54235166   0.1085342535  0.000181  0.000181  0.000240  0.000005
               *** Restarting incremental Fock matrix formation ***
 12  -2123.60844363  -0.0660919780  0.000851  0.006222  0.001401  0.000035
 13  -2123.60854866  -0.0001050230  0.001063  0.031500  0.006569  0.000136
 14  -2123.60873028  -0.0001816217  0.000344  0.001814  0.000641  0.000012
 15  -2123.60874574  -0.0000154642  0.000162  0.002278  0.000687  0.000016
 16  -2123.60875444  -0.0000086984  0.000156  0.002690  0.000456  0.000009
 17  -2123.60875719  -0.0000027488  0.000124  0.001838  0.000302  0.000006
 18  -2123.60875861  -0.0000014215  0.000066  0.000653  0.000271  0.000003
 19  -2123.60875925  -0.0000006381  0.000042  0.000591  0.000149  0.000003
 20  -2123.60875948  -0.0000002341  0.000021  0.000351  0.000093  0.000002
 21  -2123.60875959  -0.0000001089  0.000021  0.000441  0.000107  0.000002
 22  -2123.60875967  -0.0000000811  0.000016  0.000421  0.000085  0.000001
 23  -2123.60875972  -0.0000000512  0.000008  0.000299  0.000059  0.000001
 24  -2123.60875975  -0.0000000296  0.000005  0.000242  0.000041  0.000001
 25  -2123.60875977  -0.0000000205  0.000006  0.000166  0.000027  0.000001
 26  -2123.60875979  -0.0000000125  0.000005  0.000167  0.000026  0.000001
 27  -2123.60875980  -0.0000000094  0.000003  0.000137  0.000023  0.000000
                  ***Gradient check signals convergence***
              ***Rediagonalizing the Fockian in SOSCF/NRSCF***

               *****************************************************
               *                     SUCCESS                       *
               *           SCF CONVERGED AFTER  28 CYCLES          *
               *****************************************************


----------------
TOTAL SCF ENERGY
----------------

Total Energy       :        -2123.60875980 Eh          -57786.33215 eV

Components:
Nuclear Repulsion  :         6231.47058806 Eh          169566.93532 eV
Electronic Energy  :        -8355.07934786 Eh         -227353.26747 eV
One Electron Energy:       -15303.71182403 Eh         -416435.16989 eV
Two Electron Energy:         6948.63247617 Eh          189081.90241 eV

Virial components:
Potential Energy   :        -4245.79566512 Eh         -115533.97368 eV
Kinetic Energy     :         2122.18690532 Eh           57747.64153 eV
Virial Ratio       :            2.00066999


---------------
SCF CONVERGENCE
---------------

  Last Energy change         ...   -3.9163e-09  Tolerance :   1.0000e-08
  Last MAX-Density change    ...    1.2874e-05  Tolerance :   1.0000e-07
  Last RMS-Density change    ...    2.8759e-07  Tolerance :   5.0000e-09
  Last Orbital Gradient      ...    2.0388e-06  Tolerance :   1.0000e-05
  Last Orbital Rotation      ...    8.6084e-05  Tolerance :   1.0000e-05

             **** THE GBW FILE WAS UPDATED (/scratch/chu_02/allen/tmpyp4_amber_gaff2/conf1/conf1/Conf332.orca.gbw) ****
             **** DENSITY /scratch/chu_02/allen/tmpyp4_amber_gaff2/conf1/conf1/Conf332.orca.scfp WAS UPDATED ****
             **** ENERGY FILE WAS UPDATED (/scratch/chu_02/allen/tmpyp4_amber_gaff2/conf1/conf1/Conf332.orca.en.tmp) ****
             **** THE GBW FILE WAS UPDATED (/scratch/chu_02/allen/tmpyp4_amber_gaff2/conf1/conf1/Conf332.orca.gbw) ****
             **** DENSITY /scratch/chu_02/allen/tmpyp4_amber_gaff2/conf1/conf1/Conf332.orca.scfp WAS UPDATED ****
----------------
ORBITAL ENERGIES
----------------

  NO   OCC          E(Eh)            E(eV) 
   0   2.0000     -15.673904      -426.5086 
   1   2.0000     -15.636977      -425.5038 
   2   2.0000     -15.629049      -425.2880 
   3   2.0000     -15.589655      -424.2161 
   4   2.0000     -15.525300      -422.4649 
   5   2.0000     -15.515745      -422.2049 
   6   2.0000     -15.452077      -420.4724 
   7   2.0000     -15.442584      -420.2141 
   8   2.0000     -11.324951      -308.1676 
   9   2.0000     -11.324298      -308.1498 
  10   2.0000     -11.322962      -308.1135 
  11   2.0000     -11.301212      -307.5216 
  12   2.0000     -11.296572      -307.3954 
  13   2.0000     -11.295200      -307.3580 
  14   2.0000     -11.289629      -307.2064 
  15   2.0000     -11.288491      -307.1755 
  16   2.0000     -11.284434      -307.0651 
  17   2.0000     -11.276550      -306.8505 
  18   2.0000     -11.272486      -306.7399 
  19   2.0000     -11.259281      -306.3806 
  20   2.0000     -11.258332      -306.3548 
  21   2.0000     -11.255915      -306.2890 
  22   2.0000     -11.252794      -306.2041 
  23   2.0000     -11.240659      -305.8739 
  24   2.0000     -11.233870      -305.6891 
  25   2.0000     -11.233479      -305.6785 
  26   2.0000     -11.232899      -305.6627 
  27   2.0000     -11.227647      -305.5198 
  28   2.0000     -11.227332      -305.5112 
  29   2.0000     -11.210891      -305.0639 
  30   2.0000     -11.209416      -305.0237 
  31   2.0000     -11.199046      -304.7415 
  32   2.0000     -11.191369      -304.5326 
  33   2.0000     -11.190800      -304.5171 
  34   2.0000     -11.189381      -304.4785 
  35   2.0000     -11.189034      -304.4691 
  36   2.0000     -11.188724      -304.4607 
  37   2.0000     -11.185054      -304.3608 
  38   2.0000     -11.183966      -304.3312 
  39   2.0000     -11.174417      -304.0713 
  40   2.0000     -11.173493      -304.0462 
  41   2.0000     -11.168772      -303.9178 
  42   2.0000     -11.168722      -303.9164 
  43   2.0000     -11.161592      -303.7223 
  44   2.0000     -11.159852      -303.6750 
  45   2.0000     -11.158427      -303.6362 
  46   2.0000     -11.157850      -303.6205 
  47   2.0000     -11.153336      -303.4977 
  48   2.0000     -11.147109      -303.3282 
  49   2.0000     -11.139329      -303.1165 
  50   2.0000     -11.133326      -302.9532 
  51   2.0000     -11.124334      -302.7085 
  52   2.0000      -1.355375       -36.8816 
  53   2.0000      -1.323836       -36.0234 
  54   2.0000      -1.317196       -35.8427 
  55   2.0000      -1.283914       -34.9371 
  56   2.0000      -1.226069       -33.3630 
  57   2.0000      -1.210073       -32.9278 
  58   2.0000      -1.170929       -31.8626 
  59   2.0000      -1.152944       -31.3732 
  60   2.0000      -1.139441       -31.0058 
  61   2.0000      -1.112414       -30.2703 
  62   2.0000      -1.106955       -30.1218 
  63   2.0000      -1.080054       -29.3898 
  64   2.0000      -1.077441       -29.3186 
  65   2.0000      -1.047934       -28.5157 
  66   2.0000      -1.041960       -28.3532 
  67   2.0000      -1.038427       -28.2570 
  68   2.0000      -1.015109       -27.6225 
  69   2.0000      -1.012767       -27.5588 
  70   2.0000      -1.009324       -27.4651 
  71   2.0000      -0.993413       -27.0321 
  72   2.0000      -0.986636       -26.8477 
  73   2.0000      -0.980195       -26.6725 
  74   2.0000      -0.971840       -26.4451 
  75   2.0000      -0.960295       -26.1310 
  76   2.0000      -0.952830       -25.9278 
  77   2.0000      -0.946238       -25.7485 
  78   2.0000      -0.935217       -25.4486 
  79   2.0000      -0.919059       -25.0089 
  80   2.0000      -0.906396       -24.6643 
  81   2.0000      -0.893844       -24.3227 
  82   2.0000      -0.875459       -23.8225 
  83   2.0000      -0.872608       -23.7449 
  84   2.0000      -0.867824       -23.6147 
  85   2.0000      -0.856282       -23.3006 
  86   2.0000      -0.839442       -22.8424 
  87   2.0000      -0.836769       -22.7696 
  88   2.0000      -0.823665       -22.4131 
  89   2.0000      -0.797902       -21.7120 
  90   2.0000      -0.791401       -21.5351 
  91   2.0000      -0.750392       -20.4192 
  92   2.0000      -0.741492       -20.1770 
  93   2.0000      -0.733364       -19.9558 
  94   2.0000      -0.724464       -19.7137 
  95   2.0000      -0.721115       -19.6225 
  96   2.0000      -0.715673       -19.4745 
  97   2.0000      -0.710622       -19.3370 
  98   2.0000      -0.705970       -19.2104 
  99   2.0000      -0.696907       -18.9638 
 100   2.0000      -0.696173       -18.9438 
 101   2.0000      -0.684030       -18.6134 
 102   2.0000      -0.680457       -18.5162 
 103   2.0000      -0.679585       -18.4924 
 104   2.0000      -0.676773       -18.4159 
 105   2.0000      -0.671828       -18.2814 
 106   2.0000      -0.668910       -18.2020 
 107   2.0000      -0.661481       -17.9998 
 108   2.0000      -0.655243       -17.8301 
 109   2.0000      -0.654135       -17.7999 
 110   2.0000      -0.649306       -17.6685 
 111   2.0000      -0.643059       -17.4985 
 112   2.0000      -0.641866       -17.4661 
 113   2.0000      -0.640215       -17.4211 
 114   2.0000      -0.636923       -17.3315 
 115   2.0000      -0.626403       -17.0453 
 116   2.0000      -0.623663       -16.9707 
 117   2.0000      -0.617660       -16.8074 
 118   2.0000      -0.614727       -16.7276 
 119   2.0000      -0.613187       -16.6857 
 120   2.0000      -0.609346       -16.5811 
 121   2.0000      -0.607607       -16.5338 
 122   2.0000      -0.599371       -16.3097 
 123   2.0000      -0.586203       -15.9514 
 124   2.0000      -0.583130       -15.8678 
 125   2.0000      -0.580678       -15.8011 
 126   2.0000      -0.578670       -15.7464 
 127   2.0000      -0.576757       -15.6944 
 128   2.0000      -0.567179       -15.4337 
 129   2.0000      -0.558850       -15.2071 
 130   2.0000      -0.550544       -14.9811 
 131   2.0000      -0.547683       -14.9032 
 132   2.0000      -0.543597       -14.7920 
 133   2.0000      -0.540921       -14.7192 
 134   2.0000      -0.539514       -14.6809 
 135   2.0000      -0.534370       -14.5409 
 136   2.0000      -0.527069       -14.3423 
 137   2.0000      -0.522619       -14.2212 
 138   2.0000      -0.518271       -14.1029 
 139   2.0000      -0.513515       -13.9735 
 140   2.0000      -0.512100       -13.9349 
 141   2.0000      -0.510436       -13.8897 
 142   2.0000      -0.510241       -13.8844 
 143   2.0000      -0.503552       -13.7024 
 144   2.0000      -0.500674       -13.6240 
 145   2.0000      -0.496213       -13.5027 
 146   2.0000      -0.493904       -13.4398 
 147   2.0000      -0.483498       -13.1566 
 148   2.0000      -0.479165       -13.0387 
 149   2.0000      -0.466734       -12.7005 
 150   2.0000      -0.465940       -12.6789 
 151   2.0000      -0.457312       -12.4441 
 152   2.0000      -0.450032       -12.2460 
 153   2.0000      -0.446163       -12.1407 
 154   2.0000      -0.441905       -12.0248 
 155   2.0000      -0.432421       -11.7668 
 156   2.0000      -0.428954       -11.6724 
 157   2.0000      -0.420819       -11.4511 
 158   2.0000      -0.405700       -11.0396 
 159   2.0000      -0.387000       -10.5308 
 160   2.0000      -0.383779       -10.4432 
 161   2.0000      -0.378317       -10.2945 
 162   2.0000      -0.371213       -10.1012 
 163   2.0000      -0.358768        -9.7626 
 164   2.0000      -0.353888        -9.6298 
 165   2.0000      -0.339930        -9.2500 
 166   2.0000      -0.337754        -9.1908 
 167   2.0000      -0.327081        -8.9003 
 168   2.0000      -0.324114        -8.8196 
 169   2.0000      -0.305050        -8.3008 
 170   2.0000      -0.299463        -8.1488 
 171   2.0000      -0.285648        -7.7729 
 172   2.0000      -0.281586        -7.6623 
 173   2.0000      -0.262015        -7.1298 
 174   2.0000      -0.243392        -6.6230 
 175   2.0000      -0.190001        -5.1702 
 176   2.0000      -0.180400        -4.9089 
 177   2.0000      -0.076220        -2.0741 
 178   2.0000      -0.058519        -1.5924 
 179   0.0000       0.028363         0.7718 
 180   0.0000       0.066095         1.7985 
 181   0.0000       0.091324         2.4850 
 182   0.0000       0.109738         2.9861 
 183   0.0000       0.110658         3.0111 
 184   0.0000       0.135109         3.6765 
 185   0.0000       0.141089         3.8392 
 186   0.0000       0.143991         3.9182 
 187   0.0000       0.163368         4.4455 
 188   0.0000       0.164546         4.4775 
 189   0.0000       0.167211         4.5500 
 190   0.0000       0.170464         4.6386 
 191   0.0000       0.183446         4.9918 
 192   0.0000       0.186868         5.0849 
 193   0.0000       0.187325         5.0974 
 194   0.0000       0.203157         5.5282 
 195   0.0000       0.206494         5.6190 
 196   0.0000       0.207199         5.6382 
 197   0.0000       0.210283         5.7221 
 198   0.0000       0.219371         5.9694 
 199   0.0000       0.226542         6.1645 
 200   0.0000       0.232939         6.3386 
 201   0.0000       0.236330         6.4309 
 202   0.0000       0.238161         6.4807 
 203   0.0000       0.241013         6.5583 
 204   0.0000       0.247846         6.7442 
 205   0.0000       0.255355         6.9486 
 206   0.0000       0.257135         6.9970 
 207   0.0000       0.258737         7.0406 
 208   0.0000       0.260536         7.0895 
 209   0.0000       0.261920         7.1272 
 210   0.0000       0.262468         7.1421 
 211   0.0000       0.268090         7.2951 
 212   0.0000       0.269831         7.3425 
 213   0.0000       0.271711         7.3936 
 214   0.0000       0.272524         7.4158 
 215   0.0000       0.277148         7.5416 
 216   0.0000       0.279159         7.5963 
 217   0.0000       0.280364         7.6291 
 218   0.0000       0.285884         7.7793 
 219   0.0000       0.288304         7.8452 
 220   0.0000       0.289370         7.8741 
 221   0.0000       0.292592         7.9618 
 222   0.0000       0.294487         8.0134 
 223   0.0000       0.295479         8.0404 
 224   0.0000       0.298300         8.1172 
 225   0.0000       0.299570         8.1517 
 226   0.0000       0.305757         8.3201 
 227   0.0000       0.308515         8.3951 
 228   0.0000       0.309882         8.4323 
 229   0.0000       0.323794         8.8109 
 230   0.0000       0.326972         8.8974 
 231   0.0000       0.331842         9.0299 
 232   0.0000       0.333906         9.0860 
 233   0.0000       0.339450         9.2369 
 234   0.0000       0.351678         9.5696 
 235   0.0000       0.353774         9.6267 
 236   0.0000       0.368761        10.0345 
 237   0.0000       0.377383        10.2691 
 238   0.0000       0.393251        10.7009 
 239   0.0000       0.396374        10.7859 
 240   0.0000       0.400718        10.9041 
 241   0.0000       0.410496        11.1702 
 242   0.0000       0.414841        11.2884 
 243   0.0000       0.419541        11.4163 
 244   0.0000       0.427557        11.6344 
 245   0.0000       0.434562        11.8250 
 246   0.0000       0.437302        11.8996 
 247   0.0000       0.438941        11.9442 
 248   0.0000       0.443097        12.0573 
 249   0.0000       0.449039        12.2190 
 250   0.0000       0.457081        12.4378 
 251   0.0000       0.460217        12.5231 
 252   0.0000       0.466935        12.7059 
 253   0.0000       0.469720        12.7817 
 254   0.0000       0.472288        12.8516 
 255   0.0000       0.474523        12.9124 
 256   0.0000       0.477522        12.9940 
 257   0.0000       0.481543        13.1035 
 258   0.0000       0.486232        13.2310 
 259   0.0000       0.497805        13.5460 
 260   0.0000       0.502943        13.6858 
 261   0.0000       0.504093        13.7171 
 262   0.0000       0.507593        13.8123 
 263   0.0000       0.509751        13.8710 
 264   0.0000       0.514390        13.9973 
 265   0.0000       0.517143        14.0722 
 266   0.0000       0.524457        14.2712 
 267   0.0000       0.528951        14.3935 
 268   0.0000       0.532674        14.4948 
 269   0.0000       0.537882        14.6365 
 270   0.0000       0.539907        14.6916 
 271   0.0000       0.546514        14.8714 
 272   0.0000       0.554195        15.0804 
 273   0.0000       0.558700        15.2030 
 274   0.0000       0.562041        15.2939 
 275   0.0000       0.564733        15.3672 
 276   0.0000       0.569871        15.5070 
 277   0.0000       0.572025        15.5656 
 278   0.0000       0.577062        15.7026 
 279   0.0000       0.586758        15.9665 
 280   0.0000       0.589456        16.0399 
 281   0.0000       0.590040        16.0558 
 282   0.0000       0.594336        16.1727 
 283   0.0000       0.596510        16.2319 
 284   0.0000       0.597932        16.2706 
 285   0.0000       0.600370        16.3369 
 286   0.0000       0.608350        16.5541 
 287   0.0000       0.612401        16.6643 
 288   0.0000       0.613841        16.7035 
 289   0.0000       0.626160        17.0387 
 290   0.0000       0.626997        17.0615 
 291   0.0000       0.628465        17.1014 
 292   0.0000       0.635259        17.2863 
 293   0.0000       0.636401        17.3173 
 294   0.0000       0.646056        17.5801 
 295   0.0000       0.649295        17.6682 
 296   0.0000       0.653660        17.7870 
 297   0.0000       0.656398        17.8615 
 298   0.0000       0.663738        18.0612 
 299   0.0000       0.668077        18.1793 
 300   0.0000       0.668730        18.1971 
 301   0.0000       0.674799        18.3622 
 302   0.0000       0.675923        18.3928 
 303   0.0000       0.678208        18.4550 
 304   0.0000       0.681758        18.5516 
 305   0.0000       0.686259        18.6741 
 306   0.0000       0.689322        18.7574 
 307   0.0000       0.691011        18.8034 
 308   0.0000       0.695762        18.9327 
 309   0.0000       0.697909        18.9911 
 310   0.0000       0.701937        19.1007 
 311   0.0000       0.704442        19.1688 
 312   0.0000       0.709001        19.2929 
 313   0.0000       0.709443        19.3049 
 314   0.0000       0.711238        19.3538 
 315   0.0000       0.714251        19.4358 
 316   0.0000       0.716991        19.5103 
 317   0.0000       0.718816        19.5600 
 318   0.0000       0.722164        19.6511 
 319   0.0000       0.722546        19.6615 
 320   0.0000       0.727039        19.7837 
 321   0.0000       0.730285        19.8721 
 322   0.0000       0.732062        19.9204 
 323   0.0000       0.734437        19.9851 
 324   0.0000       0.737035        20.0558 
 325   0.0000       0.741797        20.1853 
 326   0.0000       0.744895        20.2696 
 327   0.0000       0.746804        20.3216 
 328   0.0000       0.749857        20.4047 
 329   0.0000       0.752088        20.4654 
 330   0.0000       0.752975        20.4895 
 331   0.0000       0.756712        20.5912 
 332   0.0000       0.761265        20.7151 
 333   0.0000       0.761686        20.7265 
 334   0.0000       0.768997        20.9255 
 335   0.0000       0.772414        21.0185 
 336   0.0000       0.774308        21.0700 
 337   0.0000       0.782685        21.2980 
 338   0.0000       0.785436        21.3728 
 339   0.0000       0.787018        21.4158 
 340   0.0000       0.789492        21.4832 
 341   0.0000       0.795365        21.6430 
 342   0.0000       0.796400        21.6711 
 343   0.0000       0.802603        21.8399 
 344   0.0000       0.804309        21.8864 
 345   0.0000       0.807223        21.9656 
 346   0.0000       0.807755        21.9801 
 347   0.0000       0.812037        22.0966 
 348   0.0000       0.816256        22.2114 
 349   0.0000       0.818404        22.2699 
 350   0.0000       0.818806        22.2808 
 351   0.0000       0.819454        22.2985 
 352   0.0000       0.822934        22.3932 
 353   0.0000       0.825838        22.4722 
 354   0.0000       0.829309        22.5667 
 355   0.0000       0.830390        22.5961 
 356   0.0000       0.832911        22.6647 
 357   0.0000       0.835859        22.7449 
 358   0.0000       0.836485        22.7619 
 359   0.0000       0.839582        22.8462 
 360   0.0000       0.841599        22.9011 
 361   0.0000       0.843059        22.9408 
 362   0.0000       0.844154        22.9706 
 363   0.0000       0.846963        23.0470 
 364   0.0000       0.848635        23.0925 
 365   0.0000       0.854352        23.2481 
 366   0.0000       0.857145        23.3241 
 367   0.0000       0.861295        23.4370 
 368   0.0000       0.864354        23.5203 
 369   0.0000       0.865715        23.5573 
 370   0.0000       0.870880        23.6979 
 371   0.0000       0.871556        23.7162 
 372   0.0000       0.873884        23.7796 
 373   0.0000       0.877752        23.8848 
 374   0.0000       0.880242        23.9526 
 375   0.0000       0.881633        23.9905 
 376   0.0000       0.886102        24.1121 
 377   0.0000       0.887764        24.1573 
 378   0.0000       0.892909        24.2973 
 379   0.0000       0.894036        24.3280 
 380   0.0000       0.896186        24.3865 
 381   0.0000       0.899019        24.4635 
 382   0.0000       0.900905        24.5149 
 383   0.0000       0.902553        24.5597 
 384   0.0000       0.903878        24.5958 
 385   0.0000       0.905524        24.6406 
 386   0.0000       0.906492        24.6669 
 387   0.0000       0.909228        24.7414 
 388   0.0000       0.911631        24.8067 
 389   0.0000       0.915206        24.9040 
 390   0.0000       0.921278        25.0692 
 391   0.0000       0.922522        25.1031 
 392   0.0000       0.924804        25.1652 
 393   0.0000       0.927872        25.2487 
 394   0.0000       0.929039        25.2804 
 395   0.0000       0.930026        25.3073 
 396   0.0000       0.933149        25.3923 
 397   0.0000       0.938491        25.5376 
 398   0.0000       0.942044        25.6343 
 399   0.0000       0.942530        25.6475 
 400   0.0000       0.944661        25.7055 
 401   0.0000       0.950886        25.8749 
 402   0.0000       0.952818        25.9275 
 403   0.0000       0.953688        25.9512 
 404   0.0000       0.960806        26.1449 
 405   0.0000       0.964306        26.2401 
 406   0.0000       0.966000        26.2862 
 407   0.0000       0.969325        26.3767 
 408   0.0000       0.971213        26.4280 
 409   0.0000       0.977364        26.5954 
 410   0.0000       0.981087        26.6967 
 411   0.0000       0.985078        26.8053 
 412   0.0000       0.990884        26.9633 
 413   0.0000       0.998516        27.1710 
 414   0.0000       0.999528        27.1985 
 415   0.0000       1.006463        27.3872 
 416   0.0000       1.007275        27.4093 
 417   0.0000       1.010469        27.4963 
 418   0.0000       1.014928        27.6176 
 419   0.0000       1.022072        27.8120 
 420   0.0000       1.028301        27.9815 
 421   0.0000       1.029689        28.0193 
 422   0.0000       1.041987        28.3539 
 423   0.0000       1.044285        28.4164 
 424   0.0000       1.050084        28.5742 
 425   0.0000       1.057592        28.7785 
 426   0.0000       1.063175        28.9305 
 427   0.0000       1.065928        29.0054 
 428   0.0000       1.073048        29.1991 
 429   0.0000       1.077391        29.3173 
 430   0.0000       1.080347        29.3977 
 431   0.0000       1.083992        29.4969 
 432   0.0000       1.087014        29.5792 
 433   0.0000       1.092941        29.7404 
 434   0.0000       1.096594        29.8398 
 435   0.0000       1.104001        30.0414 
 436   0.0000       1.108509        30.1641 
 437   0.0000       1.112478        30.2721 
 438   0.0000       1.113713        30.3057 
 439   0.0000       1.117802        30.4169 
 440   0.0000       1.120958        30.5028 
 441   0.0000       1.122335        30.5403 
 442   0.0000       1.126360        30.6498 
 443   0.0000       1.130159        30.7532 
 444   0.0000       1.131147        30.7801 
 445   0.0000       1.134681        30.8762 
 446   0.0000       1.141808        31.0702 
 447   0.0000       1.147549        31.2264 
 448   0.0000       1.148971        31.2651 
 449   0.0000       1.151345        31.3297 
 450   0.0000       1.153909        31.3994 
 451   0.0000       1.154983        31.4287 
 452   0.0000       1.160757        31.5858 
 453   0.0000       1.164983        31.7008 
 454   0.0000       1.166374        31.7386 
 455   0.0000       1.169204        31.8157 
 456   0.0000       1.175141        31.9772 
 457   0.0000       1.177750        32.0482 
 458   0.0000       1.184441        32.2303 
 459   0.0000       1.186980        32.2994 
 460   0.0000       1.188617        32.3439 
 461   0.0000       1.197665        32.5901 
 462   0.0000       1.201923        32.7060 
 463   0.0000       1.204209        32.7682 
 464   0.0000       1.205775        32.8108 
 465   0.0000       1.207762        32.8649 
 466   0.0000       1.211850        32.9761 
 467   0.0000       1.217671        33.1345 
 468   0.0000       1.218972        33.1699 
 469   0.0000       1.226971        33.3876 
 470   0.0000       1.228656        33.4334 
 471   0.0000       1.233155        33.5559 
 472   0.0000       1.234543        33.5936 
 473   0.0000       1.236927        33.6585 
 474   0.0000       1.242308        33.8049 
 475   0.0000       1.243292        33.8317 
 476   0.0000       1.248497        33.9733 
 477   0.0000       1.251541        34.0562 
 478   0.0000       1.253851        34.1190 
 479   0.0000       1.254422        34.1346 
 480   0.0000       1.258263        34.2391 
 481   0.0000       1.261827        34.3361 
 482   0.0000       1.269593        34.5474 
 483   0.0000       1.272907        34.6376 
 484   0.0000       1.274549        34.6822 
 485   0.0000       1.277541        34.7637 
 486   0.0000       1.280936        34.8560 
 487   0.0000       1.284722        34.9591 
 488   0.0000       1.288800        35.0700 
 489   0.0000       1.292564        35.1724 
 490   0.0000       1.294138        35.2153 
 491   0.0000       1.296885        35.2900 
 492   0.0000       1.300727        35.3946 
 493   0.0000       1.303925        35.4816 
 494   0.0000       1.311135        35.6778 
 495   0.0000       1.313805        35.7504 
 496   0.0000       1.318642        35.8821 
 497   0.0000       1.321805        35.9681 
 498   0.0000       1.326209        36.0880 
 499   0.0000       1.327629        36.1266 
 500   0.0000       1.330511        36.2051 
 501   0.0000       1.335616        36.3440 
 502   0.0000       1.337163        36.3861 
 503   0.0000       1.344289        36.5800 
 504   0.0000       1.346279        36.6341 
 505   0.0000       1.349380        36.7185 
 506   0.0000       1.350746        36.7557 
 507   0.0000       1.356183        36.9036 
 508   0.0000       1.359889        37.0044 
[...]
 76 H s       :     0.886243  s :     0.886243
      pz      :     0.022097  p :     0.079758
      px      :     0.043578
      py      :     0.014083
 77 H s       :     0.885148  s :     0.885148
      pz      :     0.047936  p :     0.079239
      px      :     0.015022
      py      :     0.016281
 78 H s       :     0.885557  s :     0.885557
      pz      :     0.025858  p :     0.079195
      px      :     0.020467
      py      :     0.032870
 79 H s       :     0.910240  s :     0.910240
      pz      :     0.021843  p :     0.086391
      px      :     0.021675
      py      :     0.042873
 80 H s       :     0.865393  s :     0.865393
      pz      :     0.039319  p :     0.084744
      px      :     0.030246
      py      :     0.015179
 81 H s       :     0.887097  s :     0.887097
      pz      :     0.037800  p :     0.084087
      px      :     0.016192
      py      :     0.030095
 82 H s       :     0.916127  s :     0.916127
      pz      :     0.021993  p :     0.086733
      px      :     0.031603
      py      :     0.033136
 83 H s       :     0.873764  s :     0.873764
      pz      :     0.039232  p :     0.084040
      px      :     0.015283
      py      :     0.029525
 84 H s       :     0.887139  s :     0.887139
      pz      :     0.035745  p :     0.083473
      px      :     0.031685
      py      :     0.016043
 85 H s       :     0.893292  s :     0.893292
      pz      :     0.022482  p :     0.079764
      px      :     0.014085
      py      :     0.043197
 86 H s       :     0.891233  s :     0.891233
      pz      :     0.024720  p :     0.078810
      px      :     0.032964
      py      :     0.021126
 87 H s       :     0.890093  s :     0.890093
      pz      :     0.047994  p :     0.078717
      px      :     0.015587
      py      :     0.015135
 88 H s       :     0.910954  s :     0.910954
      pz      :     0.021716  p :     0.087035
      px      :     0.042870
      py      :     0.022450
 89 H s       :     0.871394  s :     0.871394
      pz      :     0.037941  p :     0.083831
      px      :     0.030471
      py      :     0.015419


                      *****************************
                      * MAYER POPULATION ANALYSIS *
                      *****************************

  NA   - Mulliken gross atomic population
  ZA   - Total nuclear charge
  QA   - Mulliken gross atomic charge
  VA   - Mayer's total valence
  BVA  - Mayer's bonded valence
  FA   - Mayer's free valence

  ATOM       NA         ZA         QA         VA         BVA        FA
  0 C      5.7880     6.0000     0.2120     3.8449     3.8449     0.0000
  1 N      7.4556     7.0000    -0.4556     3.3298     3.3298    -0.0000
  2 C      6.0682     6.0000    -0.0682     3.9213     3.9213     0.0000
  3 N      7.3374     7.0000    -0.3374     3.4595     3.4595    -0.0000
  4 C      6.0556     6.0000    -0.0556     4.0348     4.0348    -0.0000
  5 N      7.5622     7.0000    -0.5622     3.0962     3.0962     0.0000
  6 C      6.1144     6.0000    -0.1144     3.9943     3.9943     0.0000
  7 N      7.3404     7.0000    -0.3404     3.4338     3.4338     0.0000
  8 C      5.7947     6.0000     0.2053     3.8394     3.8394     0.0000
  9 N      7.5626     7.0000    -0.5626     3.0784     3.0784    -0.0000
 10 C      5.8812     6.0000     0.1188     3.9092     3.9092    -0.0000
 11 N      7.4379     7.0000    -0.4379     3.3812     3.3812    -0.0000
 12 C      6.0788     6.0000    -0.0788     3.8942     3.8942     0.0000
 13 N      7.4308     7.0000    -0.4308     3.4219     3.4219    -0.0000
 14 C      5.7795     6.0000     0.2205     3.7851     3.7851    -0.0000
 15 N      7.4415     7.0000    -0.4415     3.3697     3.3697     0.0000
 16 C      5.7696     6.0000     0.2304     3.7785     3.7785    -0.0000
 17 C      6.1236     6.0000    -0.1236     3.9958     3.9958     0.0000
 18 C      6.1608     6.0000    -0.1608     3.7546     3.7546     0.0000
 19 C      5.7939     6.0000     0.2061     3.8646     3.8646     0.0000
 20 C      5.7859     6.0000     0.2141     3.8283     3.8283    -0.0000
 21 C      6.0919     6.0000    -0.0919     3.8891     3.8891    -0.0000
 22 C      6.0891     6.0000    -0.0891     3.9818     3.9818     0.0000
 23 C      6.0408     6.0000    -0.0408     3.9922     3.9922     0.0000
 24 C      5.8040     6.0000     0.1960     3.8214     3.8214     0.0000
 25 C      5.8858     6.0000     0.1142     3.8905     3.8905     0.0000
 26 C      6.0785     6.0000    -0.0785     3.9052     3.9052    -0.0000
 27 C      5.7878     6.0000     0.2122     3.8634     3.8634     0.0000
 28 C      6.0603     6.0000    -0.0603     3.9888     3.9888    -0.0000
 29 C      6.1811     6.0000    -0.1811     3.7456     3.7456     0.0000
 30 C      5.7554     6.0000     0.2446     3.7980     3.7980     0.0000
 31 C      5.7712     6.0000     0.2288     3.8189     3.8189    -0.0000
 32 C      6.0615     6.0000    -0.0615     3.9232     3.9232    -0.0000
 33 C      6.0632     6.0000    -0.0632     3.9734     3.9734    -0.0000
 34 C      6.0499     6.0000    -0.0499     3.9849     3.9849     0.0000
 35 C      5.7759     6.0000     0.2241     3.8175     3.8175     0.0000
 36 C      5.8910     6.0000     0.1090     3.8769     3.8769    -0.0000
 37 C      6.0646     6.0000    -0.0646     3.9175     3.9175    -0.0000
 38 C      5.7671     6.0000     0.2329     3.8019     3.8019    -0.0000
 39 C      6.0591     6.0000    -0.0591     3.9841     3.9841    -0.0000
 40 C      6.1815     6.0000    -0.1815     3.7286     3.7286    -0.0000
 41 C      5.7760     6.0000     0.2240     3.8858     3.8858    -0.0000
 42 C      5.8027     6.0000     0.1973     3.8263     3.8263    -0.0000
 43 C      6.0728     6.0000    -0.0728     3.9001     3.9001     0.0000
 44 C      6.0911     6.0000    -0.0911     3.9858     3.9858     0.0000
 45 C      6.0606     6.0000    -0.0606     3.9922     3.9922     0.0000
 46 C      5.7906     6.0000     0.2094     3.8286     3.8286    -0.0000
 47 C      5.8843     6.0000     0.1157     3.8938     3.8938     0.0000
 48 C      6.0682     6.0000    -0.0682     3.9088     3.9088     0.0000
 49 C      5.7630     6.0000     0.2370     3.8940     3.8940    -0.0000
 50 C      6.0471     6.0000    -0.0471     3.9905     3.9905    -0.0000
 51 C      6.1939     6.0000    -0.1939     3.7367     3.7367     0.0000
 52 H      0.9602     1.0000     0.0398     0.9859     0.9859     0.0000
 53 H      1.0169     1.0000    -0.0169     0.9985     0.9985    -0.0000
 54 H      0.9468     1.0000     0.0532     1.0176     1.0176     0.0000
 55 H      0.9621     1.0000     0.0379     0.9868     0.9868    -0.0000
 56 H      0.9511     1.0000     0.0489     0.9696     0.9696     0.0000
 57 H      0.9513     1.0000     0.0487     0.9824     0.9824     0.0000
 58 H      0.9529     1.0000     0.0471     0.9851     0.9851    -0.0000
 59 H      0.9987     1.0000     0.0013     1.0041     1.0041     0.0000
 60 H      0.9499     1.0000     0.0501     1.0140     1.0140     0.0000
 61 H      0.8290     1.0000     0.1710     1.0419     1.0419     0.0000
 62 H      0.8246     1.0000     0.1754     1.0436     1.0436     0.0000
 63 H      0.9436     1.0000     0.0564     0.9852     0.9852    -0.0000
 64 H      1.0040     1.0000    -0.0040     0.9971     0.9971     0.0000
 65 H      0.9530     1.0000     0.0470     1.0098     1.0098     0.0000
 66 H      0.9435     1.0000     0.0565     0.9854     0.9854     0.0000
 67 H      0.9367     1.0000     0.0633     0.9720     0.9720    -0.0000
 68 H      0.9423     1.0000     0.0577     0.9868     0.9868    -0.0000
 69 H      0.9428     1.0000     0.0572     0.9829     0.9829     0.0000
 70 H      1.0285     1.0000    -0.0285     0.9932     0.9932    -0.0000
 71 H      0.9539     1.0000     0.0461     1.0059     1.0059    -0.0000
 72 H      0.9305     1.0000     0.0695     0.9837     0.9837     0.0000
 73 H      1.0085     1.0000    -0.0085     1.0006     1.0006    -0.0000
 74 H      0.9412     1.0000     0.0588     1.0102     1.0102     0.0000
 75 H      0.9312     1.0000     0.0688     0.9841     0.9841     0.0000
 76 H      0.9266     1.0000     0.0734     0.9721     0.9721     0.0000
 77 H      0.9332     1.0000     0.0668     0.9854     0.9854     0.0000
 78 H      0.9340     1.0000     0.0660     0.9853     0.9853     0.0000
 79 H      1.0157     1.0000    -0.0157     0.9979     0.9979    -0.0000
 80 H      0.9406     1.0000     0.0594     1.0071     1.0071    -0.0000
 81 H      0.9463     1.0000     0.0537     0.9857     0.9857     0.0000
 82 H      1.0252     1.0000    -0.0252     0.9933     0.9933     0.0000
 83 H      0.9589     1.0000     0.0411     1.0084     1.0084     0.0000
 84 H      0.9468     1.0000     0.0532     0.9853     0.9853     0.0000
 85 H      0.9400     1.0000     0.0600     0.9716     0.9716     0.0000
 86 H      0.9449     1.0000     0.0551     0.9839     0.9839     0.0000
 87 H      0.9432     1.0000     0.0568     0.9856     0.9856    -0.0000
 88 H      1.0153     1.0000    -0.0153     0.9966     0.9966     0.0000
 89 H      0.9535     1.0000     0.0465     1.0071     1.0071     0.0000

  Mayer bond orders larger than 0.100000
B(  0-C ,  1-N ) :   1.0950 B(  0-C , 17-C ) :   1.7062 B(  0-C , 52-H ) :   0.9662 
B(  1-N ,  8-C ) :   1.0838 B(  1-N , 10-C ) :   0.9778 B(  2-C , 12-C ) :   1.5062 
B(  2-C , 16-C ) :   1.3563 B(  2-C , 53-H ) :   0.9757 B(  3-N , 14-C ) :   1.2179 
B(  3-N , 16-C ) :   1.1908 B(  3-N , 61-H ) :   0.8994 B(  4-C ,  6-C ) :   1.2124 
B(  4-C , 17-C ) :   1.2111 B(  4-C , 18-C ) :   1.4358 B(  5-N , 19-C ) :   1.4527 
B(  5-N , 27-C ) :   1.3793 B(  6-C ,  8-C ) :   1.7103 B(  6-C , 54-H ) :   0.9549 
B(  7-N , 30-C ) :   1.1940 B(  7-N , 38-C ) :   1.1924 B(  7-N , 62-H ) :   0.8968 
B(  8-C , 55-H ) :   0.9676 B(  9-N , 41-C ) :   1.3931 B(  9-N , 49-C ) :   1.4274 
B( 10-C , 56-H ) :   0.9769 B( 10-C , 57-H ) :   0.9831 B( 10-C , 58-H ) :   0.9835 
B( 11-N , 20-C ) :   1.1318 B( 11-N , 24-C ) :   1.1105 B( 11-N , 25-C ) :   0.9590 
B( 12-C , 14-C ) :   1.3561 B( 12-C , 59-H ) :   0.9733 B( 13-N , 31-C ) :   1.1578 
B( 13-N , 35-C ) :   1.1529 B( 13-N , 36-C ) :   0.9437 B( 14-C , 18-C ) :   1.1301 
B( 15-N , 42-C ) :   1.1070 B( 15-N , 46-C ) :   1.1212 B( 15-N , 47-C ) :   0.9623 
B( 16-C , 51-C ) :   1.1719 B( 17-C , 60-H ) :   0.9550 B( 18-C , 19-C ) :   1.1321 
B( 19-C , 21-C ) :   1.2446 B( 20-C , 28-C ) :   1.6260 B( 20-C , 63-H ) :   0.9702 
B( 21-C , 26-C ) :   1.6097 B( 21-C , 64-H ) :   0.9710 B( 22-C , 23-C ) :   1.2907 
B( 22-C , 28-C ) :   1.2671 B( 22-C , 29-C ) :   1.2210 B( 23-C , 24-C ) :   1.6176 
B( 23-C , 65-H ) :   0.9704 B( 24-C , 66-H ) :   0.9694 B( 25-C , 67-H ) :   0.9760 
B( 25-C , 68-H ) :   0.9828 B( 25-C , 69-H ) :   0.9823 B( 26-C , 27-C ) :   1.2394 
B( 26-C , 70-H ) :   0.9701 B( 27-C , 29-C ) :   1.2135 B( 28-C , 71-H ) :   0.9719 
B( 29-C , 30-C ) :   1.2426 B( 30-C , 32-C ) :   1.2819 B( 31-C , 39-C ) :   1.5936 
B( 31-C , 72-H ) :   0.9683 B( 32-C , 37-C ) :   1.5775 B( 32-C , 73-H ) :   0.9784 
B( 33-C , 34-C ) :   1.3044 B( 33-C , 39-C ) :   1.2984 B( 33-C , 40-C ) :   1.1837 
B( 34-C , 35-C ) :   1.5902 B( 34-C , 74-H ) :   0.9697 B( 35-C , 75-H ) :   0.9683 
B( 36-C , 76-H ) :   0.9767 B( 36-C , 77-H ) :   0.9816 B( 36-C , 78-H ) :   0.9824 
B( 37-C , 38-C ) :   1.2862 B( 37-C , 79-H ) :   0.9767 B( 38-C , 40-C ) :   1.2321 
B( 39-C , 80-H ) :   0.9707 B( 40-C , 41-C ) :   1.2466 B( 41-C , 43-C ) :   1.1900 
B( 42-C , 50-C ) :   1.6358 B( 42-C , 81-H ) :   0.9697 B( 43-C , 48-C ) :   1.6620 
B( 43-C , 82-H ) :   0.9722 B( 44-C , 45-C ) :   1.2624 B( 44-C , 50-C ) :   1.2694 
B( 44-C , 51-C ) :   1.2648 B( 45-C , 46-C ) :   1.6368 B( 45-C , 83-H ) :   0.9718 
B( 46-C , 84-H ) :   0.9701 B( 47-C , 85-H ) :   0.9762 B( 47-C , 86-H ) :   0.9829 
B( 47-C , 87-H ) :   0.9825 B( 48-C , 49-C ) :   1.1934 B( 48-C , 88-H ) :   0.9748 
B( 49-C , 51-C ) :   1.2372 B( 50-C , 89-H ) :   0.9709 

-------
TIMINGS
-------

Total SCF time: 0 days 0 hours 42 min 11 sec 

Total time                  ....    2531.605 sec
Sum of individual times     ....    2526.631 sec  ( 99.8%)

Fock matrix formation       ....    2509.424 sec  ( 99.1%)
Diagonalization             ....       4.663 sec  (  0.2%)
Density matrix formation    ....       0.499 sec  (  0.0%)
Population analysis         ....       0.310 sec  (  0.0%)
Initial guess               ....       2.171 sec  (  0.1%)
Orbital Transformation      ....       0.000 sec  (  0.0%)
Orbital Orthonormalization  ....       0.000 sec  (  0.0%)
DIIS solution               ....       2.523 sec  (  0.1%)
SOSCF solution              ....       5.786 sec  (  0.2%)

Maximum memory used throughout the entire SCF-calculation: 304.2 MB


           ************************************************************
           *        Program running with 8 parallel MPI-processes     *
           *              working on a common directory               *
           ************************************************************

------------------------------------------------------------------------------
                                ORCA  MP2 
------------------------------------------------------------------------------

Freezing NCore=104 chemical core electrons

----------
MP2 ENERGY (disk based algorithm)
----------

Dimension of the basis                    ...  918
Memory devoted to MP2                     ... 7000 MB   
Data format for buffers                   ... DOUBLE
Compression type for matrix containers    ... UNCOMPRESSED

-------------------------------
PARTIAL EXCHANGE TRANSFORMATION
-------------------------------

Transformation type                        ... one-operator
Generation of integrals (i,mue|j,nue)      ... ON
Generation of integrals (mue,kappa|nue,tau)... OFF
Generation of integrals (i,mue|a,nue)      ... OFF
Dimension of the basis                     ...  918
Number of internal MOs                     ...  127 (  52- 178)
Pair cutoff                                ... 2.500e-12 Eh
Number of AO pairs in the trafo            ... 421821
Total Number of distinct AO pairs          ... 421821
Memory devoted for trafo                   ... 7000.0 MB 
Max. Number of MO pairs treated together   ... 1088      
Number Format for Storage                  ... Double (8 Byte)
Integral package used                      ... LIBINT

Starting integral evaluation:
    ... done with AO integral generation
Closing buffer AOK     (38.24 GB; CompressionRatio= 1.33)
Collecting buffer AOK 
Number of MO pairs included in the trafo   ... 8128
------------------------
SORTING OF (i,mue|j,nue)
------------------------

IBATCH = 1 of  1
Closing buffer KAO     (51.03 GB; CompressionRatio= 1.00)
Collecting buffer KAO 
N(AO-Batches) Done                         ... 174816130 
N(AO-Batches) Skipped                      ... 167233040 
N(IJ)-pairs Skipped                        ...         0 
TOTAL TIME for half transformation         ...  1135.135 sec
AO-integral generation                     ...   253.864 sec
Half transformation                        ...   470.586 sec
K-integral sorting                         ...   101.193 sec

Finished integral transformation - now doing MP2 part

OPERATOR COMBINATION   0   0: ij=( 52..178, 52..178)
Process 2:   Internal MO  84
Process 5:   Internal MO 132
Process 0:   Internal MO  54
Process 0:   Internal MO  57
Process 1:   Internal MO  69
Process 0:   Internal MO  60
Process 4:   Internal MO 117
Process 0:   Internal MO  63
Process 1:   Internal MO  72
Process 2:   Internal MO  87
Process 3:   Internal MO 102
Process 0:   Internal MO  66
Process 7:   Internal MO 165
Process 1:   Internal MO  75
Process 6:   Internal MO 150
Process 2:   Internal MO  90
Process 1:   Internal MO  78
Process 5:   Internal MO 135
Process 3:   Internal MO 105
Process 4:   Internal MO 120
Process 1:   Internal MO  81
Process 2:   Internal MO  93
Process 3:   Internal MO 108
Process 2:   Internal MO  96
Process 4:   Internal MO 123
Process 6:   Internal MO 153
Process 7:   Internal MO 168
Process 5:   Internal MO 138
Process 2:   Internal MO  99
Process 3:   Internal MO 111
Process 4:   Internal MO 126
Process 5:   Internal MO 141
Process 6:   Internal MO 156
Process 3:   Internal MO 114
Process 7:   Internal MO 171
Process 4:   Internal MO 129
Process 5:   Internal MO 144
Process 6:   Internal MO 159
Process 7:   Internal MO 174
Process 5:   Internal MO 147
Process 6:   Internal MO 162
Process 7:   Internal MO 177
-----------------------------------------------
 MP2 CORRELATION ENERGY   :     -7.281861250 Eh
-----------------------------------------------


-------
TIMINGS
-------
Total time                : 1300.245 sec
Integral trafo            : 1145.703 sec ( 88.1%)
K(i,j)                    :    9.741 sec (  0.7%)
T(i,j)                    :    0.147 sec (  0.0%)

---------------------------------------
MP2 TOTAL ENERGY:    -2130.890621050 Eh
---------------------------------------

Maximum memory used throughout the entire MP2-calculation: 6735.8 MB

-------------------------   --------------------
FINAL SINGLE POINT ENERGY     -2130.890621050194
-------------------------   --------------------


                            ***************************************
                            *     ORCA property calculations      *
                            ***************************************


  WARNING: The energy has been calculated at the MP2 level but the densities
           used in the property calculations are still SCF densities
           MP2 response densities have not been calculated 
           use %mp2 Density relaxed end
           or  %mp2 Density unrelaxed end

                                    ---------------------
                                    Active property flags
                                    ---------------------
   (+) Dipole Moment


------------------------------------------------------------------------------
                       ORCA ELECTRIC PROPERTIES CALCULATION
------------------------------------------------------------------------------

Dipole Moment Calculation                       ... on
Quadrupole Moment Calculation                   ... off
Polarizability Calculation                      ... off
GBWName                                         ... /scratch/chu_02/allen/tmpyp4_amber_gaff2/conf1/conf1/Conf332.orca.gbw
Electron density                                ... /scratch/chu_02/allen/tmpyp4_amber_gaff2/conf1/conf1/Conf332.orca.scfp
The origin for moment calculation is the CENTER OF MASS  = (-0.001327, -0.005043  0.000603)

-------------
DIPOLE MOMENT
-------------
                                X             Y             Z
Electronic contribution:      2.23091      -4.05481      -0.06539
Nuclear contribution   :     -0.00873       0.18226       0.07499
                        -----------------------------------------
Total Dipole Moment    :      2.22218      -3.87255       0.00960
                        -----------------------------------------
Magnitude (a.u.)       :      4.46484
Magnitude (Debye)      :     11.34873



--------------------
Rotational spectrum 
--------------------
 
Rotational constants in cm-1:     0.001502     0.001476     0.000761 
Rotational constants in MHz :    45.035614    44.256417    22.802578 

 Dipole components along the rotational axes: 
x,y,z [a.u.] :     3.034287    -3.275332     0.011972 
x,y,z [Debye]:     7.712544    -8.325233     0.030430 

 

Timings for individual modules:

Sum of individual times         ...     3839.703 sec (=  63.995 min)
GTO integral calculation        ...        5.577 sec (=   0.093 min)   0.1 %
SCF iterations                  ...     2532.652 sec (=  42.211 min)  66.0 %
MP2 module                      ...     1301.474 sec (=  21.691 min)  33.9 %
                             ****ORCA TERMINATED NORMALLY****
TOTAL RUN TIME: 0 days 1 hours 4 minutes 1 seconds 874 msec
# of primitive gaussian functions

