
                                 *****************
                                 * O   R   C   A *
                                 *****************

                                            #,                                       
                                            ###                                      
                                            ####                                     
                                            #####                                    
                                            ######                                   
                                           ########,                                 
                                     ,,################,,,,,                         
                               ,,#################################,,                 
                          ,,##########################################,,             
                       ,#########################################, ''#####,          
                    ,#############################################,,   '####,        
                  ,##################################################,,,,####,       
                ,###########''''           ''''###############################       
              ,#####''   ,,,,##########,,,,          '''####'''          '####       
            ,##' ,,,,###########################,,,                        '##       
           ' ,,###''''                  '''############,,,                           
         ,,##''                                '''############,,,,        ,,,,,,###''
      ,#''                                            '''#######################'''  
     '                                                          ''''####''''         
             ,#######,   #######,   ,#######,      ##                                
            ,#'     '#,  ##    ##  ,#'     '#,    #''#        ######   ,####,        
            ##       ##  ##   ,#'  ##            #'  '#       #        #'  '#        
            ##       ##  #######   ##           ,######,      #####,   #    #        
            '#,     ,#'  ##    ##  '#,     ,#' ,#      #,         ##   #,  ,#        
             '#######'   ##     ##  '#######'  #'      '#     #####' # '####'        



                  #######################################################
                  #                        -***-                        #
                  #          Department of theory and spectroscopy      #
                  #    Directorship and core code : Frank Neese         #
                  #        Max Planck Institute fuer Kohlenforschung    #
                  #                Kaiser Wilhelm Platz 1               #
                  #                 D-45470 Muelheim/Ruhr               #
                  #                      Germany                        #
                  #                                                     #
                  #                  All rights reserved                #
                  #                        -***-                        #
                  #######################################################


                         Program Version 5.0.4 -  RELEASE  -


 With contributions from (in alphabetic order):
   Daniel Aravena         : Magnetic Suceptibility
   Michael Atanasov       : Ab Initio Ligand Field Theory (pilot matlab implementation)
   Alexander A. Auer      : GIAO ZORA, VPT2 properties, NMR spectrum
   Ute Becker             : Parallelization
   Giovanni Bistoni       : ED, misc. LED, open-shell LED, HFLD
   Martin Brehm           : Molecular dynamics
   Dmytro Bykov           : SCF Hessian
   Vijay G. Chilkuri      : MRCI spin determinant printing, contributions to CSF-ICE
   Dipayan Datta          : RHF DLPNO-CCSD density
   Achintya Kumar Dutta   : EOM-CC, STEOM-CC
   Dmitry Ganyushin       : Spin-Orbit,Spin-Spin,Magnetic field MRCI
   Miquel Garcia          : C-PCM and meta-GGA Hessian, CC/C-PCM, Gaussian charge scheme
   Yang Guo               : DLPNO-NEVPT2, F12-NEVPT2, CIM, IAO-localization
   Andreas Hansen         : Spin unrestricted coupled pair/coupled cluster methods
   Benjamin Helmich-Paris : MC-RPA, TRAH-SCF, COSX integrals
   Lee Huntington         : MR-EOM, pCC
   Robert Izsak           : Overlap fitted RIJCOSX, COSX-SCS-MP3, EOM
   Marcus Kettner         : VPT2
   Christian Kollmar      : KDIIS, OOCD, Brueckner-CCSD(T), CCSD density, CASPT2, CASPT2-K
   Simone Kossmann        : Meta GGA functionals, TD-DFT gradient, OOMP2, MP2 Hessian
   Martin Krupicka        : Initial AUTO-CI
   Lucas Lang             : DCDCAS
   Marvin Lechner         : AUTO-CI (C++ implementation), FIC-MRCC
   Dagmar Lenk            : GEPOL surface, SMD
   Dimitrios Liakos       : Extrapolation schemes; Compound Job, initial MDCI parallelization
   Dimitrios Manganas     : Further ROCIS development; embedding schemes
   Dimitrios Pantazis     : SARC Basis sets
   Anastasios Papadopoulos: AUTO-CI, single reference methods and gradients
   Taras Petrenko         : DFT Hessian,TD-DFT gradient, ASA, ECA, R-Raman, ABS, FL, XAS/XES, NRVS
   Peter Pinski           : DLPNO-MP2, DLPNO-MP2 Gradient
   Christoph Reimann      : Effective Core Potentials
   Marius Retegan         : Local ZFS, SOC
   Christoph Riplinger    : Optimizer, TS searches, QM/MM, DLPNO-CCSD(T), (RO)-DLPNO pert. Triples
   Tobias Risthaus        : Range-separated hybrids, TD-DFT gradient, RPA, STAB
   Michael Roemelt        : Original ROCIS implementation
   Masaaki Saitow         : Open-shell DLPNO-CCSD energy and density
   Barbara Sandhoefer     : DKH picture change effects
   Avijit Sen             : IP-ROCIS
   Kantharuban Sivalingam : CASSCF convergence, NEVPT2, FIC-MRCI
   Bernardo de Souza      : ESD, SOC TD-DFT
   Georgi Stoychev        : AutoAux, RI-MP2 NMR, DLPNO-MP2 response
   Willem Van den Heuvel  : Paramagnetic NMR
   Boris Wezisla          : Elementary symmetry handling
   Frank Wennmohs         : Technical directorship


 We gratefully acknowledge several colleagues who have allowed us to
 interface, adapt or use parts of their codes:
   Stefan Grimme, W. Hujo, H. Kruse, P. Pracht,  : VdW corrections, initial TS optimization,
                  C. Bannwarth, S. Ehlert          DFT functionals, gCP, sTDA/sTD-DF
   Ed Valeev, F. Pavosevic, A. Kumar             : LibInt (2-el integral package), F12 methods
   Garnet Chan, S. Sharma, J. Yang, R. Olivares  : DMRG
   Ulf Ekstrom                                   : XCFun DFT Library
   Mihaly Kallay                                 : mrcc  (arbitrary order and MRCC methods)
   Jiri Pittner, Ondrej Demel                    : Mk-CCSD
   Frank Weinhold                                : gennbo (NPA and NBO analysis)
   Christopher J. Cramer and Donald G. Truhlar   : smd solvation model
   Lars Goerigk                                  : TD-DFT with DH, B97 family of functionals
   V. Asgeirsson, H. Jonsson                     : NEB implementation
   FAccTs GmbH                                   : IRC, NEB, NEB-TS, DLPNO-Multilevel, CI-OPT
                                                   MM, QMMM, 2- and 3-layer-ONIOM, Crystal-QMMM,
                                                   LR-CPCM, SF, NACMEs, symmetry and pop. for TD-DFT,
                                                   nearIR, NL-DFT gradient (VV10), updates on ESD,
                                                   ML-optimized integration grids
   S Lehtola, MJT Oliveira, MAL Marques          : LibXC Library
   Liviu Ungur et al                             : ANISO software


 Your calculation uses the libint2 library for the computation of 2-el integrals
 For citations please refer to: http://libint.valeyev.net

 Your ORCA version has been built with support for libXC version: 5.1.0
 For citations please refer to: https://tddft.org/programs/libxc/

 This ORCA versions uses:
   CBLAS   interface :  Fast vector & matrix operations
   LAPACKE interface :  Fast linear algebra routines
   SCALAPACK package :  Parallel linear algebra routines
   Shared memory     :  Shared parallel matrices
   BLAS/LAPACK       :  OpenBLAS 0.3.15  USE64BITINT DYNAMIC_ARCH NO_AFFINITY Sandybridge SINGLE_THREADED
        Core in use  :  Sandybridge
   Copyright (c) 2011-2014, The OpenBLAS Project


================================================================================

----- Orbital basis set information -----
Your calculation utilizes the basis: cc-pVDZ 
       H, B-Ne : Obtained from the ccRepo (grant-hill.group.shef.ac.uk/ccrepo) Feb. 2017
                 T. H. Dunning, Jr., J. Chem. Phys. 90, 1007 (1989)
            He : Obtained from the ccRepo (grant-hill.group.shef.ac.uk/ccrepo) Feb. 2017
                 D. E. Woon, T. H. Dunning, Jr., J. Chem. Phys. 100, 2975 (1994)
  Li-Be, Na-Mg : Obtained from the ccRepo (grant-hill.group.shef.ac.uk/ccrepo) Feb. 2017
                 B. P. Prascher, D. E. Woon, K. A. Peterson, T. H. Dunning, Jr., A. K. Wilson, Theor. Chem. Acc. 128, 69 (2011)
         Al-Ar : Obtained from the ccRepo (grant-hill.group.shef.ac.uk/ccrepo) Feb. 2017
                 D. E. Woon, T. H. Dunning, Jr., J. Chem. Phys. 98, 1358 (1993)
            Ca : Obtained from the Peterson Research Group Website (tyr0.chem.wsu.edu/~kipeters) Feb. 2017
                 J. Koput, K. A. Peterson, J. Phys. Chem. 106, 9595 (2002)
         Sc-Zn : Obtained from the ccRepo (grant-hill.group.shef.ac.uk/ccrepo) Feb. 2017
                 N. B. Balabanov, K. A. Peterson, J. Chem. Phys. 123, 064107 (2005)
                 N. B. Balabanov, K. A. Peterson, J. Chem. Phys. 125, 074110 (2006)
         Ga-Kr : Obtained from the ccRepo (grant-hill.group.shef.ac.uk/ccrepo) Feb. 2017
                 A. K. Wilson, D. E. Woon, K. A. Peterson, T. H. Dunning, Jr., J. Chem. Phys. 110, 7667 (1999)

================================================================================
                                        WARNINGS
                       Please study these warnings very carefully!
================================================================================


WARNING: No MP2 level density has been requested!
         To caclulate MP2 level properties use
         %mp2 Density relaxed end
         or
         %mp2 Density unrelaxed end

WARNING: Post HF methods need fully converged wavefunctions
  ===> : Setting SCFConvForced true
         You can overwrite this default with %scf ConvForced false 


INFO   : the flag for use of the SHARK integral package has been found!

================================================================================
                                       INPUT FILE
================================================================================
NAME = /scratch/allen/tmpyp4_amber_gaff2/2.Mdgx/conf11/conf11/Conf6.orca
|  1> ! PAL2
|  2> ! mp2 cc-pvdz TightSCF  NoKeepInts
|  3> 
|  4> %scf
|  5>   MaxCore 2000
|  6> end
|  7> %mp2
|  8>   MaxCore 2000
|  9> end
| 10> * xyz 0 1
| 11>    C       -3.03600         6.49500         0.02100
| 12>    C        1.47400         4.04100         0.05700
| 13>    C       -2.80200         4.09300         0.04900
| 14>    C       -4.20000         4.00900         0.14400
| 15>    C       -4.96300         5.15900         0.17100
| 16>    C       -5.22800         7.59200         0.10600
| 17>    C        0.13200         4.30700         0.06100
| 18>    C       -0.56900         3.05600         0.04700
| 19>    C        1.64900         2.61800         0.02300
| 20>    C       -2.23000         5.37300        -0.01600
| 21>    N       -4.38000         6.37900         0.11300
| 22>    N        0.38800         2.06700         0.02500
| 23>    N       -2.01000         0.39500        -0.07500
| 24>    N       -0.38800        -2.07400        -0.02700
| 25>    N        2.01000        -0.40100         0.06500
| 26>    C       -1.96000         2.86100         0.02400
| 27>    C       -2.62300         1.61500        -0.01800
| 28>    C       -5.57300        -4.32900         1.06600
| 29>    C       -4.07300         1.47100         0.05600
| 30>    C       -4.10600        -2.75600        -0.02600
| 31>    C       -4.99500        -2.75700        -1.11100
| 32>    C       -6.13200        -3.54200        -1.07600
| 33>    C       -7.65100        -5.11300         0.04000
| 34>    C       -4.32400         0.14100         0.03700
| 35>    C       -3.02500        -0.52000        -0.04800
| 36>    C       -4.42200        -3.56600         1.07500
| 37>    N       -6.40700        -4.31300         0.00100
| 38>    C       -2.86700        -1.92200        -0.04000
| 39>    C       -1.65000        -2.62400        -0.02700
| 40>    C        3.56800        -6.14200        -1.04000
| 41>    C       -1.47600        -4.04900        -0.03400
| 42>    C        2.80300        -4.09900        -0.00800
| 43>    C        3.65700        -4.38400         1.06900
| 44>    C        4.42700        -5.53000         1.05900
| 45>    C        5.24500        -7.58800         0.01400
| 46>    C       -0.13400        -4.31500        -0.02200
| 47>    C        0.56800        -3.06400        -0.02700
| 48>    C        2.77500        -5.01200        -1.07400
| 49>    N        4.37600        -6.39100         0.01700
| 50>    C        1.95900        -2.86900        -0.00900
| 51>    C        2.62100        -1.62200         0.00900
| 52>    C        5.54300         4.33900        -1.13000
| 53>    C        4.07000        -1.47900        -0.09400
| 54>    C        4.10400         2.75100        -0.02100
| 55>    C        5.02700         2.72900         1.03600
| 56>    C        6.16600         3.50900         0.97800
| 57>    C        7.61900         5.15300        -0.11500
| 58>    C        4.32100        -0.14800        -0.09200
| 59>    C        3.02500         0.51400         0.01500
| 60>    C        4.38700         3.58200        -1.11500
| 61>    C        2.86600         1.91600         0.01300
| 62>    N        6.41300         4.29600        -0.09500
| 63>    H       -2.63800         7.50100        -0.01400
| 64>    H        2.27400         4.76600         0.08100
| 65>    H       -4.70100         3.05000         0.18700
| 66>    H       -6.04300         5.14500         0.23400
| 67>    H       -5.53500         7.80500        -0.92100
| 68>    H       -6.10400         7.41100         0.72900
| 69>    H       -4.65100         8.42600         0.50500
| 70>    H       -0.33200         5.28200         0.06900
| 71>    H       -1.15600         5.50400        -0.07600
| 72>    H        0.18200         1.07200         0.00500
| 73>    H       -0.18300        -1.08000        -0.02100
| 74>    H       -5.86400        -4.96200         1.89500
| 75>    H       -4.79400         2.27200         0.13900
| 76>    H       -4.80000        -2.16000        -1.99400
| 77>    H       -6.84100        -3.58200        -1.89300
| 78>    H       -8.42800        -4.53600         0.54600
| 79>    H       -7.95600        -5.33700        -0.98100
| 80>    H       -7.45600        -6.03700         0.58400
| 81>    H       -5.28700        -0.34400         0.10000
| 82>    H       -3.78000        -3.60100         1.94700
| 83>    H        3.58700        -6.86800        -1.84300
| 84>    H       -2.27600        -4.77400        -0.05000
| 85>    H        3.71400        -3.72400         1.92600
| 86>    H        5.09200        -5.79500         1.87100
| 87>    H        6.20500        -7.32900        -0.43900
| 88>    H        5.39300        -7.91700         1.04200
| 89>    H        4.75900        -8.37300        -0.56400
| 90>    H        0.32900        -5.29000        -0.00800
| 91>    H        2.14600        -4.84200        -1.94000
| 92>    H        5.80800         4.98600        -1.95600
| 93>    H        4.78800        -2.28100        -0.18500
| 94>    H        4.86000         2.11400         1.91200
| 95>    H        6.90100         3.53100         1.77200
| 96>    H        7.38300         6.10900         0.35600
| 97>    H        8.41400         4.65200         0.43500
| 98>    H        7.92100         5.31000        -1.15000
| 99>    H        5.28300         0.33600        -0.17900
|100>    H        3.72000         3.63200        -1.96700
|101> *
|102> 
|103>                          ****END OF INPUT****
================================================================================

                       ****************************
                       * Single Point Calculation *
                       ****************************

---------------------------------
CARTESIAN COORDINATES (ANGSTROEM)
---------------------------------
  C     -3.036000    6.495000    0.021000
  C      1.474000    4.041000    0.057000
  C     -2.802000    4.093000    0.049000
  C     -4.200000    4.009000    0.144000
  C     -4.963000    5.159000    0.171000
  C     -5.228000    7.592000    0.106000
  C      0.132000    4.307000    0.061000
  C     -0.569000    3.056000    0.047000
  C      1.649000    2.618000    0.023000
  C     -2.230000    5.373000   -0.016000
  N     -4.380000    6.379000    0.113000
  N      0.388000    2.067000    0.025000
  N     -2.010000    0.395000   -0.075000
  N     -0.388000   -2.074000   -0.027000
  N      2.010000   -0.401000    0.065000
  C     -1.960000    2.861000    0.024000
  C     -2.623000    1.615000   -0.018000
  C     -5.573000   -4.329000    1.066000
  C     -4.073000    1.471000    0.056000
  C     -4.106000   -2.756000   -0.026000
  C     -4.995000   -2.757000   -1.111000
  C     -6.132000   -3.542000   -1.076000
  C     -7.651000   -5.113000    0.040000
  C     -4.324000    0.141000    0.037000
  C     -3.025000   -0.520000   -0.048000
  C     -4.422000   -3.566000    1.075000
  N     -6.407000   -4.313000    0.001000
  C     -2.867000   -1.922000   -0.040000
  C     -1.650000   -2.624000   -0.027000
  C      3.568000   -6.142000   -1.040000
  C     -1.476000   -4.049000   -0.034000
  C      2.803000   -4.099000   -0.008000
  C      3.657000   -4.384000    1.069000
  C      4.427000   -5.530000    1.059000
  C      5.245000   -7.588000    0.014000
  C     -0.134000   -4.315000   -0.022000
  C      0.568000   -3.064000   -0.027000
  C      2.775000   -5.012000   -1.074000
  N      4.376000   -6.391000    0.017000
  C      1.959000   -2.869000   -0.009000
  C      2.621000   -1.622000    0.009000
  C      5.543000    4.339000   -1.130000
  C      4.070000   -1.479000   -0.094000
  C      4.104000    2.751000   -0.021000
  C      5.027000    2.729000    1.036000
  C      6.166000    3.509000    0.978000
  C      7.619000    5.153000   -0.115000
  C      4.321000   -0.148000   -0.092000
  C      3.025000    0.514000    0.015000
  C      4.387000    3.582000   -1.115000
  C      2.866000    1.916000    0.013000
  N      6.413000    4.296000   -0.095000
  H     -2.638000    7.501000   -0.014000
  H      2.274000    4.766000    0.081000
  H     -4.701000    3.050000    0.187000
  H     -6.043000    5.145000    0.234000
  H     -5.535000    7.805000   -0.921000
  H     -6.104000    7.411000    0.729000
  H     -4.651000    8.426000    0.505000
  H     -0.332000    5.282000    0.069000
  H     -1.156000    5.504000   -0.076000
  H      0.182000    1.072000    0.005000
  H     -0.183000   -1.080000   -0.021000
  H     -5.864000   -4.962000    1.895000
  H     -4.794000    2.272000    0.139000
  H     -4.800000   -2.160000   -1.994000
  H     -6.841000   -3.582000   -1.893000
  H     -8.428000   -4.536000    0.546000
  H     -7.956000   -5.337000   -0.981000
  H     -7.456000   -6.037000    0.584000
  H     -5.287000   -0.344000    0.100000
  H     -3.780000   -3.601000    1.947000
  H      3.587000   -6.868000   -1.843000
  H     -2.276000   -4.774000   -0.050000
  H      3.714000   -3.724000    1.926000
  H      5.092000   -5.795000    1.871000
  H      6.205000   -7.329000   -0.439000
  H      5.393000   -7.917000    1.042000
  H      4.759000   -8.373000   -0.564000
  H      0.329000   -5.290000   -0.008000
  H      2.146000   -4.842000   -1.940000
  H      5.808000    4.986000   -1.956000
  H      4.788000   -2.281000   -0.185000
  H      4.860000    2.114000    1.912000
  H      6.901000    3.531000    1.772000
  H      7.383000    6.109000    0.356000
  H      8.414000    4.652000    0.435000
  H      7.921000    5.310000   -1.150000
  H      5.283000    0.336000   -0.179000
  H      3.720000    3.632000   -1.967000

----------------------------
CARTESIAN COORDINATES (A.U.)
----------------------------
  NO LB      ZA    FRAG     MASS         X           Y           Z
   0 C     6.0000    0    12.011   -5.737209   12.273771    0.039684
   1 C     6.0000    0    12.011    2.785456    7.636383    0.107714
   2 C     6.0000    0    12.011   -5.295013    7.734649    0.092597
   3 C     6.0000    0    12.011   -7.936850    7.575912    0.272121
   4 C     6.0000    0    12.011   -9.378711    9.749097    0.323143
   5 C     6.0000    0    12.011   -9.879488   14.346801    0.200311
   6 C     6.0000    0    12.011    0.249444    8.139050    0.115273
   7 C     6.0000    0    12.011   -1.075254    5.775003    0.088817
   8 C     6.0000    0    12.011    3.116158    4.947303    0.043464
   9 C     6.0000    0    12.011   -4.214089   10.153499   -0.030236
  10 N     7.0000    0    14.007   -8.277000   12.054563    0.213539
  11 N     7.0000    0    14.007    0.733214    3.906064    0.047243
  12 N     7.0000    0    14.007   -3.798350    0.746442   -0.141729
  13 N     7.0000    0    14.007   -0.733214   -3.919292   -0.051023
  14 N     7.0000    0    14.007    3.798350   -0.757780    0.122832
  15 C     6.0000    0    12.011   -3.703863    5.406506    0.045353
  16 C     6.0000    0    12.011   -4.956752    3.051908   -0.034015
  17 C     6.0000    0    12.011  -10.531444   -8.180624    2.014448
  18 C     6.0000    0    12.011   -7.696855    2.779787    0.105825
  19 C     6.0000    0    12.011   -7.759216   -5.208085   -0.049133
  20 C     6.0000    0    12.011   -9.439182   -5.209975   -2.099486
  21 C     6.0000    0    12.011  -11.587801   -6.693410   -2.033345
  22 C     6.0000    0    12.011  -14.458295   -9.662170    0.075589
  23 C     6.0000    0    12.011   -8.171176    0.266451    0.069920
  24 C     6.0000    0    12.011   -5.716422   -0.982658   -0.090707
  25 C     6.0000    0    12.011   -8.356369   -6.738763    2.031456
  26 N     7.0000    0    14.007  -12.107475   -8.150389    0.001890
  27 C     6.0000    0    12.011   -5.417845   -3.632054   -0.075589
  28 C     6.0000    0    12.011   -3.118048   -4.958641   -0.051023
  29 C     6.0000    0    12.011    6.742543  -11.606698   -1.965315
  30 C     6.0000    0    12.011   -2.789236   -7.651501   -0.064251
  31 C     6.0000    0    12.011    5.296902   -7.745987   -0.015118
  32 C     6.0000    0    12.011    6.910728   -8.284559    2.020117
  33 C     6.0000    0    12.011    8.365818  -10.450186    2.001220
  34 C     6.0000    0    12.011    9.911614  -14.339242    0.026456
  35 C     6.0000    0    12.011   -0.253223   -8.154168   -0.041574
  36 C     6.0000    0    12.011    1.073364   -5.790121   -0.051023
  37 C     6.0000    0    12.011    5.243990   -9.471307   -2.029566
  38 N     7.0000    0    14.007    8.269442  -12.077240    0.032125
  39 C     6.0000    0    12.011    3.701973   -5.421624   -0.017008
  40 C     6.0000    0    12.011    4.952972   -3.065136    0.017008
  41 C     6.0000    0    12.011   10.474752    8.199522   -2.135391
  42 C     6.0000    0    12.011    7.691185   -2.794905   -0.177634
  43 C     6.0000    0    12.011    7.755436    5.198637   -0.039684
  44 C     6.0000    0    12.011    9.499653    5.157063    1.957756
  45 C     6.0000    0    12.011   11.652051    6.631049    1.848152
  46 C     6.0000    0    12.011   14.397823    9.737759   -0.217319
  47 C     6.0000    0    12.011    8.165507   -0.279679   -0.173855
  48 C     6.0000    0    12.011    5.716422    0.971319    0.028346
  49 C     6.0000    0    12.011    8.290229    6.768999   -2.107045
  50 C     6.0000    0    12.011    5.415955    3.620715    0.024566
  51 N     7.0000    0    14.007   12.118814    8.118263   -0.179524
  52 H     1.0000    0     1.008   -4.985098   14.174836   -0.026456
  53 H     1.0000    0     1.008    4.297237    9.006435    0.153068
  54 H     1.0000    0     1.008   -8.883603    5.763665    0.353379
  55 H     1.0000    0     1.008  -11.419615    9.722641    0.442196
  56 H     1.0000    0     1.008  -10.459634   14.749312   -1.740438
  57 H     1.0000    0     1.008  -11.534888   14.004760    1.377610
  58 H     1.0000    0     1.008   -8.789116   15.922832    0.954312
  59 H     1.0000    0     1.008   -0.627389    9.981533    0.130391
  60 H     1.0000    0     1.008   -2.184523   10.401053   -0.143619
  61 H     1.0000    0     1.008    0.343930    2.025786    0.009449
  62 H     1.0000    0     1.008   -0.345820   -2.040904   -0.039684
  63 H     1.0000    0     1.008  -11.081354   -9.376821    3.581031
  64 H     1.0000    0     1.008   -9.059347    4.293458    0.262672
  65 H     1.0000    0     1.008   -9.070685   -4.081808   -3.768114
  66 H     1.0000    0     1.008  -12.927616   -6.768999   -3.577252
  67 H     1.0000    0     1.008  -15.926612   -8.571798    1.031790
  68 H     1.0000    0     1.008  -15.034661  -10.085468   -1.853821
  69 H     1.0000    0     1.008  -14.089798  -11.408277    1.103600
  70 H     1.0000    0     1.008   -9.990982   -0.650066    0.188973
  71 H     1.0000    0     1.008   -7.143165   -6.804904    3.679297
  72 H     1.0000    0     1.008    6.778448  -12.978639   -3.482765
  73 H     1.0000    0     1.008   -4.301017   -9.021553   -0.094486
  74 H     1.0000    0     1.008    7.018443   -7.037340    3.639613
  75 H     1.0000    0     1.008    9.622485  -10.950963    3.535678
  76 H     1.0000    0     1.008   11.725751  -13.849803   -0.829590
  77 H     1.0000    0     1.008   10.191293  -14.960962    1.969095
  78 H     1.0000    0     1.008    8.993207  -15.822677   -1.065806
  79 H     1.0000    0     1.008    0.621720   -9.996651   -0.015118
  80 H     1.0000    0     1.008    4.055352   -9.150054   -3.666069
  81 H     1.0000    0     1.008   10.975529    9.422175   -3.696304
  82 H     1.0000    0     1.008    9.048009   -4.310465   -0.349599
  83 H     1.0000    0     1.008    9.184069    3.994881    3.613156
  84 H     1.0000    0     1.008   13.041000    6.672623    3.348595
  85 H     1.0000    0     1.008   13.951848   11.544337    0.672743
  86 H     1.0000    0     1.008   15.900156    8.791006    0.822031
  87 H     1.0000    0     1.008   14.968521   10.034446   -2.173185
  88 H     1.0000    0     1.008    9.983423    0.634948   -0.338261
  89 H     1.0000    0     1.008    7.029781    6.863485   -3.717091

--------------------------------
INTERNAL COORDINATES (ANGSTROEM)
--------------------------------
 C      0   0   0     0.000000000000     0.00000000     0.00000000
 C      1   0   0     5.134541070047     0.00000000     0.00000000
 C      1   2   0     2.413533509194    55.88212730     0.00000000
 C      3   1   2     1.403739648225    87.92443450   176.05760468
 C      4   3   1     1.380361546842   120.12999867     0.14936904
 C      5   4   3     2.448252233737   152.52794102     1.62573915
 C      2   1   3     1.368114030335    17.34953989   358.68275951
 C      7   2   1     1.434084376876   108.05010202   177.47340024
 C      2   1   3     1.434123425651   125.53846585     2.48743493
 C      1   2   3     1.381987337134    25.82651015   355.11378368
 N      1   2   3     1.352130171248   146.26381383     7.11318551
 N      9   2   1     1.376127174356   106.58526707   358.04386862
 N     12   9   2     2.925062050624   168.53581413   171.12065651
 N     13  12   9     2.954513327098    91.55032014    11.12112580
 N     14  13  12     2.925371258490    88.43092389   359.84326247
 C      8   7   2     1.404790019896   127.24786865   181.11170171
 C     13  12   9     1.366535034311    81.72106996   188.00453233
 C     14  13  12     5.758810554272    80.56209567   166.76250791
 C     17  13  12     1.459010623676   111.08861209   183.82872609
 C     18  14  13     2.412235892279    27.27532823    36.33507194
 C     20  18  14     1.402692767501    87.95206320   148.94598259
 C     21  20  18     1.382106725257   120.14573887   359.70382047
 C     18  14  13     2.446510985056   144.15733107    82.80075377
 C     19  17  13     1.353610726908   106.29293361   359.75308708
 C     13  12   9     1.366813447402   172.21332906    33.46711076
 C     18  14  13     1.380960173213    15.08449437   309.23336894
 N     22  21  20     1.352773077792   120.73759875     0.27865223
 C     25  13  17     1.410897586645   125.60330303   182.37774668
 C     14  13  12     1.376642291955    80.24689249   177.85461986
 C     14  13  12     5.764089607215   164.51507311   312.20821879
 C     29  14  13     1.435600919476   106.58649366   178.76395472
 C     30  14  13     2.413316804732    27.10625047    82.12560436
 C     32  30  14     1.403734305344    87.90059683   149.76154742
 C     33  32  30     1.380694028378   120.14881443   359.74174632
 C     34  33  32     2.448777858443   152.49203239     2.45173620
 C     31  29  14     1.368160809262   108.16950133     0.70383075
 C     14  13  12     1.376239804685   169.26375223   353.09862627
 C     30  14  13     1.380907310430    14.68948582   353.70041132
 N     34  33  32     1.352658863128   120.85575621     0.19603406
 C     37  14  29     1.404717053360   126.01551127   180.90772073
 C     15  14  13     1.366491126938    81.61824056   183.09049352
 C      2   1   3     4.249062720177   143.67445214   151.77114576
 C     41  15  14     1.459677704153   111.05201287   175.08990246
 C     42   2   1     2.412953791518    41.78584867   180.95348899
 C     44  42   2     1.403446472082    87.95153797   233.97558675
 C     45  44  42     1.381696421071   120.11137308     0.19721020
 C     42   2   1     2.450019795838   135.97209175    91.26833809
 C     43  41  15     1.354461516618   106.26758155     0.30894352
 C     15  14  13     1.367461151185   171.87382904   332.35056460
 C     42   2   1     1.381886391857    32.59078432   229.80876818
 C      9   2   1     1.404988612053   126.98745415   179.04820615
 N     42   2   1     1.352765315936   113.57249190   119.00492728
 H      1   2   3     1.082434755540    96.97588183   181.28689901
 H      2   1   3     1.079907866440   109.26789621   181.73934228
 H      4   3   1     1.082834705761   121.09555560   179.51154600
 H      5   4   3     1.081926522459   122.82862178   179.41323310
 H      6   5   4     1.092861839392   104.42087120   100.09476022
 H      6   5   4     1.090076144129    84.65232450   209.50652499
 H      6   5   4     1.089810075197   133.90583601   322.36579076
 H      7   2   1     1.079807853278   126.66122480   357.71181402
 H     60   7   2     0.865612499910   129.74565092   167.16138990
 H     12   9   2     1.016297692608   125.29023241   180.00180175
 H     14  13  12     1.014936943854    44.97226959   359.42596618
 H     18  14  13     1.082871645210   128.03556573   234.20482432
 H     55   4   3     0.785007643275   158.45312878   347.65807636
 H     21  20  18     1.083569563987   121.05669627   180.67006309
 H     22  21  20     1.082483256222   122.73097286   180.59748951
 H     23  18  14     1.092105306278   103.92715769   234.93429879
 H     23  18  14     1.088871893291   134.19244188    12.25587044
 H     23  18  14     1.089833473518    84.85857450   125.45241208
 H     24  19  17     1.080075460327   127.28078426   178.44613241
 H     26  18  14     1.083408048706   118.76995697   244.94906660
 H     30  14  13     1.082703098730   127.99711412   279.66882698
 H     31  29  14     1.079759695488   125.22293469   180.92530585
 H     33  32  30     1.083188810873   121.01964473   180.74284758
 H     34  33  32     1.082494341787   122.70821597   180.59516895
 H     35  34  33     1.092652735319   105.73575241    97.19771933
 H     35  34  33     1.089462711615    84.05943581   206.43036958
 H     35  34  33     1.089268102902   133.08365142   318.50306270
 H     36  31  29     1.079439669458   126.61599965   178.98859863
 H     38  30  73     1.083742127999   118.77264435   359.90091293
 H     42   2   1     1.082178358682   119.31790784   335.63645774
 H     43  41  15     1.080281907652   126.36969097   182.06329380
 H     45  44  42     1.083277434455   121.10105945   179.58025624
 H     46  45  44     1.082194529648   122.72144639   179.46906377
 H     47  42   2     1.091546151109   106.65128841   315.16475048
 H     47  42   2     1.088818625851   132.46019523    94.52397119
 H     47  42   2     1.089531091801    83.63838232   206.04504406
 H     48  43  41     1.080402239909   127.23657387   181.62955349
 H     50  42   2     1.083186502870   118.77001737    94.71359229

---------------------------
INTERNAL COORDINATES (A.U.)
---------------------------
 C      0   0   0     0.000000000000     0.00000000     0.00000000
 C      1   0   0     9.702876445760     0.00000000     0.00000000
 C      1   2   0     4.560917347418    55.88212730     0.00000000
 C      3   1   2     2.652683498473    87.92443450   176.05760468
 C      4   3   1     2.608505289327   120.12999867     0.14936904
 C      5   4   3     4.626526228525   152.52794102     1.62573915
 C      2   1   3     2.585360837309    17.34953989   358.68275951
 C      7   2   1     2.710026725231   108.05010202   177.47340024
 C      2   1   3     2.710100516721   125.53846585     2.48743493
 C      1   2   3     2.611577587731    25.82651015   355.11378368
 N      1   2   3     2.555155721071   146.26381383     7.11318551
 N      9   2   1     2.600503484979   106.58526707   358.04386862
 N     12   9   2     5.527566200405   168.53581413   171.12065651
 N     13  12   9     5.583221047236    91.55032014    11.12112580
 N     14  13  12     5.528150518591    88.43092389   359.84326247
 C      8   7   2     2.654668413270   127.24786865   181.11170171
 C     13  12   9     2.582376967257    81.72106996   188.00453233
 C     14  13  12    10.882574804710    80.56209567   166.76250791
 C     17  13  12     2.757130505230   111.08861209   183.82872609
 C     18  14  13     4.558465206823    27.27532823    36.33507194
 C     20  18  14     2.650705180609    87.95206320   148.94598259
 C     21  20  18     2.611803198586   120.14573887   359.70382047
 C     18  14  13     4.623235745386   144.15733107    82.80075377
 C     19  17  13     2.557953565794   106.29293361   359.75308708
 C     13  12   9     2.582903091751   172.21332906    33.46711076
 C     18  14  13     2.609636529225    15.08449437   309.23336894
 N     22  21  20     2.556370638369   120.73759875     0.27865223
 C     25  13  17     2.666210041769   125.60330303   182.37774668
 C     14  13  12     2.601476916169    80.24689249   177.85461986
 C     14  13  12    10.892550769017   164.51507311   312.20821879
 C     29  14  13     2.712892575415   106.58649366   178.76395472
 C     30  14  13     4.560507835333    27.10625047    82.12560436
 C     32  30  14     2.652673401891    87.90059683   149.76154742
 C     33  32  30     2.609133588376   120.14881443   359.74174632
 C     34  33  32     4.627519515267   152.49203239     2.45173620
 C     31  29  14     2.585449236669   108.16950133     0.70383075
 C     14  13  12     2.600716325456   169.26375223   353.09862627
 C     30  14  13     2.609536633043    14.68948582   353.70041132
 N     34  33  32     2.556154803934   120.85575621     0.19603406
 C     37  14  29     2.654530526499   126.01551127   180.90772073
 C     15  14  13     2.582293994346    81.61824056   183.09049352
 C      2   1   3     8.029564866989   143.67445214   151.77114576
 C     41  15  14     2.758391104639   111.05201287   175.08990246
 C     42   2   1     4.559821839776    41.78584867   180.95348899
 C     44  42   2     2.652129475853    87.95153797   233.97558675
 C     45  44  42     2.611027836043   120.11137308     0.19721020
 C     42   2   1     4.629866436820   135.97209175    91.26833809
 C     43  41  15     2.559561325344   106.26758155     0.30894352
 C     15  14  13     2.584127074516   171.87382904   332.35056460
 C     42   2   1     2.611386828803    32.59078432   229.80876818
 C      9   2   1     2.655043698059   126.98745415   179.04820615
 N     42   2   1     2.556355970587   113.57249190   119.00492728
 H      1   2   3     2.045505245808    96.97588183   181.28689901
 H      2   1   3     2.040730117440   109.26789621   181.73934228
 H      4   3   1     2.046261042193   121.09555560   179.51154600
 H      5   4   3     2.044544824473   122.82862178   179.41323310
 H      6   5   4     2.065209578665   104.42087120   100.09476022
 H      6   5   4     2.059945377525    84.65232450   209.50652499
 H      6   5   4     2.059442580110   133.90583601   322.36579076
 H      7   2   1     2.040541119952   126.66122480   357.71181402
 H     60   7   2     1.635770562928   129.74565092   167.16138990
 H     12   9   2     1.920524309565   125.29023241   180.00180175
 H     14  13  12     1.917952867083    44.97226959   359.42596618
 H     18  14  13     2.046330847636   128.03556573   234.20482432
 H     55   4   3     1.483449458824   158.45312878   347.65807636
 H     21  20  18     2.047649722989   121.05669627   180.67006309
 H     22  21  20     2.045596898814   122.73097286   180.59748951
 H     23  18  14     2.063779938267   103.92715769   234.93429879
 H     23  18  14     2.057669673245   134.19244188    12.25587044
 H     23  18  14     2.059486796529    84.85857450   125.45241208
 H     24  19  17     2.041046823986   127.28078426   178.44613241
 H     26  18  14     2.047344503340   118.76995697   244.94906660
 H     30  14  13     2.046012340948   127.99711412   279.66882698
 H     31  29  14     2.040450114918   125.22293469   180.92530585
 H     33  32  30     2.046930203877   121.01964473   180.74284758
 H     34  33  32     2.045617847496   122.70821597   180.59516895
 H     35  34  33     2.064814429233   105.73575241    97.19771933
 H     35  34  33     2.058786158072    84.05943581   206.43036958
 H     35  34  33     2.058418400901   133.08365142   318.50306270
 H     36  31  29     2.039845353366   126.61599965   178.98859863
 H     38  30  73     2.047975821711   118.77264435   359.90091293
 H     42   2   1     2.045020725966   119.31790784   335.63645774
 H     43  41  15     2.041436952892   126.36969097   182.06329380
 H     45  44  42     2.047097678177   121.10105945   179.58025624
 H     46  45  44     2.045051284662   122.72144639   179.46906377
 H     47  42   2     2.062723288131   106.65128841   315.16475048
 H     47  42   2     2.057569012371   132.46019523    94.52397119
 H     47  42   2     2.058915377895    83.63838232   206.04504406
 H     48  43  41     2.041664347903   127.23657387   181.62955349
 H     50  42   2     2.046925842384   118.77001737    94.71359229

---------------------
BASIS SET INFORMATION
---------------------
There are 3 groups of distinct atoms

 Group   1 Type C   : 17s4p1d contracted to 3s2p1d pattern {881/31/1}
 Group   2 Type N   : 17s4p1d contracted to 3s2p1d pattern {881/31/1}
 Group   3 Type H   : 4s1p contracted to 2s1p pattern {31/1}

Atom   0C    basis set group =>   1
Atom   1N    basis set group =>   2
Atom   2C    basis set group =>   1
Atom   3N    basis set group =>   2
Atom   4C    basis set group =>   1
Atom   5N    basis set group =>   2
Atom   6C    basis set group =>   1
Atom   7N    basis set group =>   2
Atom   8C    basis set group =>   1
Atom   9N    basis set group =>   2
Atom  10C    basis set group =>   1
Atom  11N    basis set group =>   2
Atom  12C    basis set group =>   1
Atom  13N    basis set group =>   2
Atom  14C    basis set group =>   1
Atom  15N    basis set group =>   2
Atom  16C    basis set group =>   1
Atom  17C    basis set group =>   1
Atom  18C    basis set group =>   1
Atom  19C    basis set group =>   1
Atom  20C    basis set group =>   1
Atom  21C    basis set group =>   1
Atom  22C    basis set group =>   1
Atom  23C    basis set group =>   1
Atom  24C    basis set group =>   1
Atom  25C    basis set group =>   1
Atom  26C    basis set group =>   1
Atom  27C    basis set group =>   1
Atom  28C    basis set group =>   1
Atom  29C    basis set group =>   1
Atom  30C    basis set group =>   1
Atom  31C    basis set group =>   1
Atom  32C    basis set group =>   1
Atom  33C    basis set group =>   1
Atom  34C    basis set group =>   1
Atom  35C    basis set group =>   1
Atom  36C    basis set group =>   1
Atom  37C    basis set group =>   1
Atom  38C    basis set group =>   1
Atom  39C    basis set group =>   1
Atom  40C    basis set group =>   1
Atom  41C    basis set group =>   1
Atom  42C    basis set group =>   1
Atom  43C    basis set group =>   1
Atom  44C    basis set group =>   1
Atom  45C    basis set group =>   1
Atom  46C    basis set group =>   1
Atom  47C    basis set group =>   1
Atom  48C    basis set group =>   1
Atom  49C    basis set group =>   1
Atom  50C    basis set group =>   1
Atom  51C    basis set group =>   1
Atom  52H    basis set group =>   3
Atom  53H    basis set group =>   3
Atom  54H    basis set group =>   3
Atom  55H    basis set group =>   3
Atom  56H    basis set group =>   3
Atom  57H    basis set group =>   3
Atom  58H    basis set group =>   3
Atom  59H    basis set group =>   3
Atom  60H    basis set group =>   3
Atom  61H    basis set group =>   3
Atom  62H    basis set group =>   3
Atom  63H    basis set group =>   3
Atom  64H    basis set group =>   3
Atom  65H    basis set group =>   3
Atom  66H    basis set group =>   3
Atom  67H    basis set group =>   3
Atom  68H    basis set group =>   3
Atom  69H    basis set group =>   3
Atom  70H    basis set group =>   3
Atom  71H    basis set group =>   3
Atom  72H    basis set group =>   3
Atom  73H    basis set group =>   3
Atom  74H    basis set group =>   3
Atom  75H    basis set group =>   3
Atom  76H    basis set group =>   3
Atom  77H    basis set group =>   3
Atom  78H    basis set group =>   3
Atom  79H    basis set group =>   3
Atom  80H    basis set group =>   3
Atom  81H    basis set group =>   3
Atom  82H    basis set group =>   3
Atom  83H    basis set group =>   3
Atom  84H    basis set group =>   3
Atom  85H    basis set group =>   3
Atom  86H    basis set group =>   3
Atom  87H    basis set group =>   3
Atom  88H    basis set group =>   3
Atom  89H    basis set group =>   3


           ************************************************************
           *        Program running with 16 parallel MPI-processes    *
           *              working on a common directory               *
           ************************************************************
------------------------------------------------------------------------------
                           ORCA GTO INTEGRAL CALCULATION
------------------------------------------------------------------------------
------------------------------------------------------------------------------
                   ___                                                        
                  /   \      - P O W E R E D   B Y -                         
                 /     \                                                     
                 |  |  |   _    _      __       _____    __    __             
                 |  |  |  | |  | |    /  \     |  _  \  |  |  /  |          
                  \  \/   | |  | |   /    \    | | | |  |  | /  /          
                 / \  \   | |__| |  /  /\  \   | |_| |  |  |/  /          
                |  |  |   |  __  | /  /__\  \  |    /   |      \           
                |  |  |   | |  | | |   __   |  |    \   |  |\   \          
                \     /   | |  | | |  |  |  |  | |\  \  |  | \   \       
                 \___/    |_|  |_| |__|  |__|  |_| \__\ |__|  \__/        
                                                                              
                      - O R C A' S   B I G   F R I E N D -                    
                                      &                                       
                       - I N T E G R A L  F E E D E R -                       
                                                                              
 v1 FN, 2020, v2 2021                                                         
------------------------------------------------------------------------------


Reading SHARK input file /scratch/allen/tmpyp4_amber_gaff2/conf1/conf1/Conf6.orca.SHARKINP.tmp ... ok
----------------------
SHARK INTEGRAL PACKAGE
----------------------

Number of atoms                             ...     90
Number of basis functions                   ...   1230
Number of shells                            ...    738
Maximum angular momentum                    ...      2
Integral batch strategy                     ... SHARK/LIBINT Hybrid
RI-J (if used) integral strategy            ... SPLIT-RIJ (Revised 2003 algorithm where possible)
Printlevel                                  ...      1
Contraction scheme used                     ... PARTIAL GENERAL contraction
Coulomb Range Separation                    ... NOT USED
Exchange Range Separation                   ... NOT USED
Finite Nucleus Model                        ... NOT USED
Auxiliary Coulomb fitting basis             ... NOT available
Auxiliary J/K fitting basis                 ... NOT available
Auxiliary Correlation fitting basis         ... NOT available
Auxiliary 'external' fitting basis          ... NOT available
Integral threshold                          ...     2.500000e-11
Primitive cut-off                           ...     2.500000e-12
Primitive pair pre-selection threshold      ...     2.500000e-12

Calculating pre-screening integrals         ... done (  0.1 sec) Dimension = 738
Calculating pre-screening integrals (ORCA)  ... done (  0.3 sec) Dimension = 426
Organizing shell pair data                  ... done (  0.8 sec)
Shell pair information
Total number of shell pairs                 ...    272691
Shell pairs after pre-screening             ...     71742
Total number of primitive shell pairs       ...    422091
Primitive shell pairs kept                  ...     92636
          la=0 lb=0:  29447 shell pairs
          la=1 lb=0:  26042 shell pairs
          la=1 lb=1:   4700 shell pairs
          la=2 lb=0:   7894 shell pairs
          la=2 lb=1:   3130 shell pairs
          la=2 lb=2:    529 shell pairs

Calculating one electron integrals          ... done (  0.3 sec)
Calculating Nuclear repulsion               ... done (  0.0 sec) ENN=   6235.817805344683 Eh

SHARK setup successfully completed in   2.2 seconds

Maximum memory used throughout the entire GTOINT-calculation: 99.1 MB


           ************************************************************
           *        Program running with 16 parallel MPI-processes    *
           *              working on a common directory               *
           ************************************************************
-------------------------------------------------------------------------------
                                 ORCA SCF
-------------------------------------------------------------------------------

------------
SCF SETTINGS
------------
Hamiltonian:
 Ab initio Hamiltonian  Method          .... Hartree-Fock(GTOs)


General Settings:
 Integral files         IntName         .... /scratch/allen/tmpyp4_amber_gaff2/conf1/conf1/Conf6.orca
 Hartree-Fock type      HFTyp           .... RHF
 Total Charge           Charge          ....    0
 Multiplicity           Mult            ....    1
 Number of Electrons    NEL             ....  358
 Basis Dimension        Dim             ....  918
 Nuclear Repulsion      ENuc            ....   6235.8178053447 Eh

Convergence Acceleration:
 DIIS                   CNVDIIS         .... on
   Start iteration      DIISMaxIt       ....    12
   Startup error        DIISStart       ....  0.200000
   # of expansion vecs  DIISMaxEq       ....     5
   Bias factor          DIISBfac        ....   1.050
   Max. coefficient     DIISMaxC        ....  10.000
 Trust-Rad. Augm. Hess. CNVTRAH         .... auto
   Auto Start mean grad. ratio tolernc. ....  1.125000
   Auto Start start iteration           ....    20
   Auto Start num. interpolation iter.  ....    10
   Max. Number of Micro iterations      ....    16
   Max. Number of Macro iterations      .... Maxiter - #DIIS iter
   Number of Davidson start vectors     ....     2
   Converg. threshold I  (grad. norm)   ....   1.000e-05
   Converg. threshold II (energy diff.) ....   1.000e-08
   Grad. Scal. Fac. for Micro threshold ....   0.100
   Minimum threshold for Micro iter.    ....   0.010
   NR start threshold (gradient norm)   ....   0.001
   Initial trust radius                 ....   0.400
   Minimum AH scaling param. (alpha)    ....   1.000
   Maximum AH scaling param. (alpha)    .... 1000.000
   Orbital update algorithm             .... Taylor
   White noise on init. David. guess    .... on
   Maximum white noise                  ....   0.010
   Quad. conv. algorithm                .... NR
 SOSCF                  CNVSOSCF        .... on
   Start iteration      SOSCFMaxIt      ....   150
   Startup grad/error   SOSCFStart      ....  0.003300
 Level Shifting         CNVShift        .... on
   Level shift para.    LevelShift      ....    0.2500
   Turn off err/grad.   ShiftErr        ....    0.0010
 Zerner damping         CNVZerner       .... off
 Static damping         CNVDamp         .... on
   Fraction old density DampFac         ....    0.7000
   Max. Damping (<1)    DampMax         ....    0.9800
   Min. Damping (>=0)   DampMin         ....    0.0000
   Turn off err/grad.   DampErr         ....    0.1000
 Fernandez-Rico         CNVRico         .... off

SCF Procedure:
 Maximum # iterations   MaxIter         ....   125
 SCF integral mode      SCFMode         .... Direct
   Integral package                     .... SHARK and LIBINT hybrid scheme
 Reset frequency        DirectResetFreq ....    20
 Integral Threshold     Thresh          ....  2.500e-11 Eh
 Primitive CutOff       TCut            ....  2.500e-12 Eh

Convergence Tolerance:
 Convergence Check Mode ConvCheckMode   .... Total+1el-Energy
 Convergence forced     ConvForced      .... 1
 Energy Change          TolE            ....  1.000e-08 Eh
 1-El. energy change                    ....  1.000e-05 Eh
 Orbital Gradient       TolG            ....  1.000e-05
 Orbital Rotation angle TolX            ....  1.000e-05
 DIIS Error             TolErr          ....  5.000e-07


Diagonalization of the overlap matrix:
Smallest eigenvalue                        ... 1.636e-04
Time for diagonalization                   ...    0.394 sec
Threshold for overlap eigenvalues          ... 1.000e-08
Number of eigenvalues below threshold      ... 0
Time for construction of square roots      ...    0.256 sec
Total time needed                          ...    0.655 sec

Time for model grid setup =    1.050 sec

------------------------------
INITIAL GUESS: MODEL POTENTIAL
------------------------------
Loading Hartree-Fock densities                     ... done
Calculating cut-offs                               ... done
Initializing the effective Hamiltonian             ... done
Setting up the integral package (SHARK)            ... done
Starting the Coulomb interaction                   ... done (   1.2 sec)
Reading the grid                                   ... done
Mapping shells                                     ... done
Starting the XC term evaluation                    ... done (   0.2 sec)
Transforming the Hamiltonian                       ... done (   0.2 sec)
Diagonalizing the Hamiltonian                      ... done (   0.3 sec)
Back transforming the eigenvectors                 ... done (   0.1 sec)
Now organizing SCF variables                       ... done
                      ------------------
                      INITIAL GUESS DONE (   3.1 sec)
                      ------------------
--------------
SCF ITERATIONS
--------------
ITER       Energy         Delta-E        Max-DP      RMS-DP      [F,P]     Damp
               ***  Starting incremental Fock matrix formation  ***
  0  -2121.5511646445   0.000000000000 0.07874494  0.00130072  0.2310518 0.7000
  1  -2122.1888860491  -0.637721404593 0.06039959  0.00104681  0.1434374 0.7000
                               ***Turning on DIIS***
  2  -2122.5876109903  -0.398724941208 0.14104692  0.00239113  0.0803355 0.0000
  3  -2118.0530640839   4.534546906367 0.06647810  0.00066957  0.0433870 0.0000
  4  -2123.2954040993  -5.242340015400 0.02300932  0.00022827  0.0094197 0.0000
  5  -2123.4144249517  -0.119020852318 0.01018948  0.00013191  0.0048050 0.0000
  6  -2123.3983446577   0.016080293941 0.00552828  0.00008276  0.0022814 0.0000
  7  -2123.4899778865  -0.091633228765 0.00313502  0.00006472  0.0016396 0.0000
  8  -2123.4953498386  -0.005371952167 0.00334730  0.00006187  0.0015372 0.0000
  9  -2123.4696927834   0.025657055263 0.00269752  0.00004452  0.0012381 0.0000
 10  -2123.4768757333  -0.007182949921 0.00543889  0.00009396  0.0009726 0.0000
                      *** Initiating the SOSCF procedure ***
                           *** Shutting down DIIS ***
                      *** Re-Reading the Fockian *** 
                      *** Removing any level shift *** 
ITER      Energy       Delta-E        Grad      Rot      Max-DP    RMS-DP
 11  -2123.37139585   0.1054798846  0.000187  0.000187  0.000251  0.000005
               *** Restarting incremental Fock matrix formation ***
 12  -2123.43719787  -0.0658020238  0.000954  0.006380  0.001515  0.000034
 13  -2123.43731036  -0.0001124844  0.001160  0.031603  0.006901  0.000134
 14  -2123.43749555  -0.0001851911  0.000400  0.002012  0.000631  0.000012
 15  -2123.43751082  -0.0000152739  0.000191  0.002263  0.000489  0.000013
 16  -2123.43751736  -0.0000065429  0.000130  0.002003  0.000505  0.000008
 17  -2123.43752005  -0.0000026805  0.000128  0.002030  0.000293  0.000007
 18  -2123.43752129  -0.0000012406  0.000059  0.001175  0.000211  0.000004
 19  -2123.43752206  -0.0000007696  0.000046  0.001812  0.000264  0.000006
 20  -2123.43752258  -0.0000005287  0.000028  0.001009  0.000143  0.000003
 21  -2123.43752282  -0.0000002340  0.000027  0.001220  0.000174  0.000004
 22  -2123.43752305  -0.0000002309  0.000024  0.001060  0.000163  0.000003
 23  -2123.43752319  -0.0000001397  0.000016  0.000380  0.000065  0.000001
 24  -2123.43752324  -0.0000000493  0.000008  0.000254  0.000053  0.000001
 25  -2123.43752327  -0.0000000291  0.000008  0.000124  0.000041  0.000001
 26  -2123.43752328  -0.0000000149  0.000006  0.000074  0.000028  0.000000
 27  -2123.43752328   0.0000000004  0.000003  0.000060  0.000019  0.000000
                  ***Gradient check signals convergence***
              ***Rediagonalizing the Fockian in SOSCF/NRSCF***

               *****************************************************
               *                     SUCCESS                       *
               *           SCF CONVERGED AFTER  28 CYCLES          *
               *****************************************************


----------------
TOTAL SCF ENERGY
----------------

Total Energy       :        -2123.43752328 Eh          -57781.67257 eV

Components:
Nuclear Repulsion  :         6235.81780534 Eh          169685.22911 eV
Electronic Energy  :        -8359.25532863 Eh         -227466.90169 eV
One Electron Energy:       -15312.03501127 Eh         -416661.65533 eV
Two Electron Energy:         6952.77968264 Eh          189194.75364 eV

Virial components:
Potential Energy   :        -4246.09626292 Eh         -115542.15336 eV
Kinetic Energy     :         2122.65873964 Eh           57760.48079 eV
Virial Ratio       :            2.00036689


---------------
SCF CONVERGENCE
---------------

  Last Energy change         ...    8.2218e-10  Tolerance :   1.0000e-08
  Last MAX-Density change    ...    9.6882e-06  Tolerance :   1.0000e-07
  Last RMS-Density change    ...    1.6410e-07  Tolerance :   5.0000e-09
  Last Orbital Gradient      ...    1.7686e-06  Tolerance :   1.0000e-05
  Last Orbital Rotation      ...    3.3727e-05  Tolerance :   1.0000e-05

             **** THE GBW FILE WAS UPDATED (/scratch/allen/tmpyp4_amber_gaff2/conf1/conf1/Conf6.orca.gbw) ****
             **** DENSITY /scratch/allen/tmpyp4_amber_gaff2/conf1/conf1/Conf6.orca.scfp WAS UPDATED ****
             **** ENERGY FILE WAS UPDATED (/scratch/allen/tmpyp4_amber_gaff2/conf1/conf1/Conf6.orca.en.tmp) ****
             **** THE GBW FILE WAS UPDATED (/scratch/allen/tmpyp4_amber_gaff2/conf1/conf1/Conf6.orca.gbw) ****
             **** DENSITY /scratch/allen/tmpyp4_amber_gaff2/conf1/conf1/Conf6.orca.scfp WAS UPDATED ****
----------------
ORBITAL ENERGIES
----------------

  NO   OCC          E(Eh)            E(eV) 
   0   2.0000     -15.679705      -426.6665 
   1   2.0000     -15.632933      -425.3937 
   2   2.0000     -15.632544      -425.3831 
   3   2.0000     -15.588236      -424.1775 
   4   2.0000     -15.524794      -422.4511 
   5   2.0000     -15.515344      -422.1940 
   6   2.0000     -15.453848      -420.5206 
   7   2.0000     -15.439356      -420.1262 
   8   2.0000     -11.329239      -308.2843 
   9   2.0000     -11.328382      -308.2609 
  10   2.0000     -11.327863      -308.2468 
  11   2.0000     -11.298815      -307.4564 
  12   2.0000     -11.298708      -307.4535 
  13   2.0000     -11.292170      -307.2756 
  14   2.0000     -11.291838      -307.2665 
  15   2.0000     -11.287078      -307.1370 
  16   2.0000     -11.285631      -307.0976 
  17   2.0000     -11.281938      -306.9971 
  18   2.0000     -11.269721      -306.6647 
  19   2.0000     -11.263233      -306.4881 
  20   2.0000     -11.262233      -306.4609 
  21   2.0000     -11.251364      -306.1652 
  22   2.0000     -11.247496      -306.0599 
  23   2.0000     -11.237269      -305.7816 
  24   2.0000     -11.236754      -305.7676 
  25   2.0000     -11.230389      -305.5944 
  26   2.0000     -11.230263      -305.5910 
  27   2.0000     -11.230093      -305.5864 
  28   2.0000     -11.229699      -305.5756 
  29   2.0000     -11.210698      -305.0586 
  30   2.0000     -11.209183      -305.0174 
  31   2.0000     -11.194202      -304.6097 
  32   2.0000     -11.192229      -304.5560 
  33   2.0000     -11.191135      -304.5263 
  34   2.0000     -11.188589      -304.4570 
  35   2.0000     -11.188018      -304.4415 
  36   2.0000     -11.187056      -304.4153 
  37   2.0000     -11.174289      -304.0679 
  38   2.0000     -11.171811      -304.0004 
  39   2.0000     -11.171501      -303.9920 
  40   2.0000     -11.171259      -303.9854 
  41   2.0000     -11.167962      -303.8957 
  42   2.0000     -11.165703      -303.8342 
  43   2.0000     -11.161943      -303.7319 
  44   2.0000     -11.161224      -303.7123 
  45   2.0000     -11.156910      -303.5950 
  46   2.0000     -11.156211      -303.5759 
  47   2.0000     -11.150632      -303.4241 
  48   2.0000     -11.147305      -303.3336 
  49   2.0000     -11.135714      -303.0182 
  50   2.0000     -11.129650      -302.8532 
  51   2.0000     -11.118068      -302.5380 
  52   2.0000      -1.360295       -37.0155 
  53   2.0000      -1.320339       -35.9283 
  54   2.0000      -1.320222       -35.9251 
  55   2.0000      -1.280096       -34.8332 
  56   2.0000      -1.225848       -33.3570 
  57   2.0000      -1.210344       -32.9351 
  58   2.0000      -1.173533       -31.9335 
  59   2.0000      -1.150734       -31.3131 
  60   2.0000      -1.143546       -31.1175 
  61   2.0000      -1.110192       -30.2099 
  62   2.0000      -1.108827       -30.1727 
  63   2.0000      -1.081973       -29.4420 
  64   2.0000      -1.077393       -29.3174 
  65   2.0000      -1.044835       -28.4314 
  66   2.0000      -1.044583       -28.4246 
  67   2.0000      -1.040982       -28.3266 
  68   2.0000      -1.015312       -27.6281 
  69   2.0000      -1.014756       -27.6129 
  70   2.0000      -1.009116       -27.4594 
  71   2.0000      -0.993228       -27.0271 
  72   2.0000      -0.985611       -26.8198 
  73   2.0000      -0.981671       -26.7126 
  74   2.0000      -0.974014       -26.5043 
  75   2.0000      -0.962408       -26.1885 
  76   2.0000      -0.954992       -25.9866 
  77   2.0000      -0.947080       -25.7714 
  78   2.0000      -0.940057       -25.5802 
  79   2.0000      -0.916668       -24.9438 
  80   2.0000      -0.910525       -24.7766 
  81   2.0000      -0.898481       -24.4489 
  82   2.0000      -0.877219       -23.8703 
  83   2.0000      -0.871686       -23.7198 
  84   2.0000      -0.871220       -23.7071 
  85   2.0000      -0.861867       -23.4526 
  86   2.0000      -0.846666       -23.0390 
  87   2.0000      -0.838035       -22.8041 
  88   2.0000      -0.829520       -22.5724 
  89   2.0000      -0.796277       -21.6678 
  90   2.0000      -0.789455       -21.4822 
  91   2.0000      -0.776043       -21.1172 
  92   2.0000      -0.752960       -20.4891 
  93   2.0000      -0.734152       -19.9773 
  94   2.0000      -0.729105       -19.8399 
  95   2.0000      -0.727134       -19.7863 
  96   2.0000      -0.720516       -19.6062 
  97   2.0000      -0.717922       -19.5357 
  98   2.0000      -0.714344       -19.4383 
  99   2.0000      -0.700341       -19.0572 
 100   2.0000      -0.698176       -18.9983 
 101   2.0000      -0.694762       -18.9054 
 102   2.0000      -0.685322       -18.6485 
 103   2.0000      -0.684275       -18.6201 
 104   2.0000      -0.678782       -18.4706 
 105   2.0000      -0.674503       -18.3542 
 106   2.0000      -0.672875       -18.3098 
 107   2.0000      -0.661147       -17.9907 
 108   2.0000      -0.658110       -17.9081 
 109   2.0000      -0.652712       -17.7612 
 110   2.0000      -0.652081       -17.7440 
 111   2.0000      -0.646134       -17.5822 
 112   2.0000      -0.645717       -17.5709 
 113   2.0000      -0.638005       -17.3610 
 114   2.0000      -0.635420       -17.2907 
 115   2.0000      -0.628927       -17.1140 
 116   2.0000      -0.623304       -16.9610 
 117   2.0000      -0.620522       -16.8853 
 118   2.0000      -0.612771       -16.6743 
 119   2.0000      -0.612031       -16.6542 
 120   2.0000      -0.611657       -16.6440 
 121   2.0000      -0.611460       -16.6387 
 122   2.0000      -0.601710       -16.3734 
 123   2.0000      -0.589333       -16.0366 
 124   2.0000      -0.581239       -15.8163 
 125   2.0000      -0.580925       -15.8078 
 126   2.0000      -0.580193       -15.7878 
 127   2.0000      -0.571012       -15.5380 
 128   2.0000      -0.566667       -15.4198 
 129   2.0000      -0.560025       -15.2391 
 130   2.0000      -0.555627       -15.1194 
 131   2.0000      -0.547702       -14.9037 
 132   2.0000      -0.542637       -14.7659 
 133   2.0000      -0.540107       -14.6971 
 134   2.0000      -0.538427       -14.6514 
 135   2.0000      -0.536348       -14.5948 
 136   2.0000      -0.531883       -14.4733 
 137   2.0000      -0.518082       -14.0977 
 138   2.0000      -0.516466       -14.0537 
 139   2.0000      -0.514394       -13.9974 
 140   2.0000      -0.512030       -13.9331 
 141   2.0000      -0.509814       -13.8727 
 142   2.0000      -0.506974       -13.7955 
 143   2.0000      -0.505794       -13.7633 
 144   2.0000      -0.502498       -13.6737 
 145   2.0000      -0.495492       -13.4830 
 146   2.0000      -0.488221       -13.2852 
 147   2.0000      -0.481022       -13.0893 
 148   2.0000      -0.476618       -12.9694 
 149   2.0000      -0.467739       -12.7278 
 150   2.0000      -0.466143       -12.6844 
 151   2.0000      -0.456302       -12.4166 
 152   2.0000      -0.451529       -12.2867 
 153   2.0000      -0.445181       -12.1140 
 154   2.0000      -0.437940       -11.9169 
 155   2.0000      -0.427778       -11.6404 
 156   2.0000      -0.409121       -11.1328 
 157   2.0000      -0.390789       -10.6339 
 158   2.0000      -0.387805       -10.5527 
 159   2.0000      -0.385884       -10.5004 
 160   2.0000      -0.378393       -10.2966 
 161   2.0000      -0.372724       -10.1423 
 162   2.0000      -0.356857        -9.7106 
 163   2.0000      -0.356490        -9.7006 
 164   2.0000      -0.355760        -9.6807 
 165   2.0000      -0.341869        -9.3027 
 166   2.0000      -0.337468        -9.1830 
 167   2.0000      -0.324601        -8.8328 
 168   2.0000      -0.321709        -8.7541 
 169   2.0000      -0.305032        -8.3003 
 170   2.0000      -0.299308        -8.1446 
 171   2.0000      -0.286001        -7.7825 
 172   2.0000      -0.278169        -7.5694 
 173   2.0000      -0.263557        -7.1717 
 174   2.0000      -0.242305        -6.5934 
 175   2.0000      -0.189939        -5.1685 
 176   2.0000      -0.181376        -4.9355 
 177   2.0000      -0.080070        -2.1788 
 178   2.0000      -0.059676        -1.6239 
 179   0.0000       0.028512         0.7759 
 180   0.0000       0.065468         1.7815 
 181   0.0000       0.090273         2.4565 
 182   0.0000       0.106353         2.8940 
 183   0.0000       0.117104         3.1866 
 184   0.0000       0.137266         3.7352 
 185   0.0000       0.139398         3.7932 
 186   0.0000       0.141013         3.8372 
 187   0.0000       0.164465         4.4753 
 188   0.0000       0.165312         4.4984 
 189   0.0000       0.165617         4.5067 
 190   0.0000       0.175064         4.7637 
 191   0.0000       0.180447         4.9102 
 192   0.0000       0.183857         5.0030 
 193   0.0000       0.189133         5.1466 
 194   0.0000       0.205003         5.5784 
 195   0.0000       0.205553         5.5934 
 196   0.0000       0.208266         5.6672 
 197   0.0000       0.208749         5.6803 
 198   0.0000       0.216620         5.8945 
 199   0.0000       0.227983         6.2037 
 200   0.0000       0.233747         6.3606 
 201   0.0000       0.233840         6.3631 
 202   0.0000       0.239090         6.5060 
 203   0.0000       0.239738         6.5236 
 204   0.0000       0.246329         6.7030 
 205   0.0000       0.255142         6.9428 
 206   0.0000       0.256403         6.9771 
 207   0.0000       0.257809         7.0153 
 208   0.0000       0.259167         7.0523 
 209   0.0000       0.260679         7.0934 
 210   0.0000       0.263838         7.1794 
 211   0.0000       0.265787         7.2324 
 212   0.0000       0.268706         7.3119 
 213   0.0000       0.270610         7.3637 
 214   0.0000       0.273144         7.4326 
 215   0.0000       0.275838         7.5059 
 216   0.0000       0.278300         7.5729 
 217   0.0000       0.283277         7.7084 
 218   0.0000       0.286649         7.8001 
 219   0.0000       0.287638         7.8270 
 220   0.0000       0.290036         7.8923 
 221   0.0000       0.292716         7.9652 
 222   0.0000       0.294700         8.0192 
 223   0.0000       0.296928         8.0798 
 224   0.0000       0.297263         8.0889 
 225   0.0000       0.301884         8.2147 
 226   0.0000       0.306007         8.3269 
 227   0.0000       0.307495         8.3674 
 228   0.0000       0.319801         8.7022 
 229   0.0000       0.324668         8.8347 
 230   0.0000       0.328411         8.9365 
 231   0.0000       0.335397         9.1266 
 232   0.0000       0.342518         9.3204 
 233   0.0000       0.357171         9.7191 
 234   0.0000       0.372544        10.1374 
 235   0.0000       0.374255        10.1840 
 236   0.0000       0.390277        10.6200 
 237   0.0000       0.390684        10.6311 
 238   0.0000       0.398480        10.8432 
 239   0.0000       0.402344        10.9483 
 240   0.0000       0.411195        11.1892 
 241   0.0000       0.411990        11.2108 
 242   0.0000       0.416395        11.3307 
 243   0.0000       0.419971        11.4280 
 244   0.0000       0.429867        11.6973 
 245   0.0000       0.432784        11.7766 
 246   0.0000       0.440369        11.9831 
 247   0.0000       0.441704        12.0194 
 248   0.0000       0.443220        12.0606 
 249   0.0000       0.444538        12.0965 
 250   0.0000       0.451043        12.2735 
 251   0.0000       0.458835        12.4855 
 252   0.0000       0.464643        12.6436 
 253   0.0000       0.469475        12.7751 
 254   0.0000       0.472914        12.8686 
 255   0.0000       0.474506        12.9120 
 256   0.0000       0.476111        12.9557 
 257   0.0000       0.485025        13.1982 
 258   0.0000       0.489397        13.3172 
 259   0.0000       0.494980        13.4691 
 260   0.0000       0.503832        13.7100 
 261   0.0000       0.504671        13.7328 
 262   0.0000       0.506447        13.7811 
 263   0.0000       0.512184        13.9372 
 264   0.0000       0.515653        14.0316 
 265   0.0000       0.520159        14.1542 
 266   0.0000       0.526632        14.3304 
 267   0.0000       0.528375        14.3778 
 268   0.0000       0.535422        14.5696 
 269   0.0000       0.542030        14.7494 
 270   0.0000       0.554349        15.0846 
 271   0.0000       0.555084        15.1046 
 272   0.0000       0.559072        15.2131 
 273   0.0000       0.561820        15.2879 
 274   0.0000       0.566965        15.4279 
 275   0.0000       0.573566        15.6075 
 276   0.0000       0.574978        15.6459 
 277   0.0000       0.578816        15.7504 
 278   0.0000       0.582551        15.8520 
 279   0.0000       0.587355        15.9828 
 280   0.0000       0.593489        16.1497 
 281   0.0000       0.593670        16.1546 
 282   0.0000       0.595542        16.2055 
 283   0.0000       0.597687        16.2639 
 284   0.0000       0.598273        16.2798 
 285   0.0000       0.601730        16.3739 
 286   0.0000       0.605242        16.4695 
 287   0.0000       0.612564        16.6687 
 288   0.0000       0.618416        16.8280 
 289   0.0000       0.622574        16.9411 
 290   0.0000       0.625658        17.0250 
 291   0.0000       0.631756        17.1910 
 292   0.0000       0.636105        17.3093 
 293   0.0000       0.640419        17.4267 
 294   0.0000       0.646600        17.5949 
 295   0.0000       0.651863        17.7381 
 296   0.0000       0.654708        17.8155 
 297   0.0000       0.658364        17.9150 
 298   0.0000       0.663656        18.0590 
 299   0.0000       0.666555        18.1379 
 300   0.0000       0.671108        18.2618 
 301   0.0000       0.675881        18.3917 
 302   0.0000       0.680873        18.5275 
 303   0.0000       0.683229        18.5916 
 304   0.0000       0.685188        18.6449 
 305   0.0000       0.688968        18.7478 
 306   0.0000       0.690581        18.7917 
 307   0.0000       0.693495        18.8710 
 308   0.0000       0.697390        18.9770 
 309   0.0000       0.702054        19.1038 
 310   0.0000       0.702904        19.1270 
 311   0.0000       0.706052        19.2126 
 312   0.0000       0.707813        19.2606 
 313   0.0000       0.711164        19.3517 
 314   0.0000       0.712058        19.3761 
 315   0.0000       0.716377        19.4936 
 316   0.0000       0.717944        19.5363 
 317   0.0000       0.719665        19.5831 
 318   0.0000       0.723759        19.6945 
 319   0.0000       0.725970        19.7546 
 320   0.0000       0.727917        19.8076 
 321   0.0000       0.729230        19.8434 
 322   0.0000       0.731986        19.9184 
 323   0.0000       0.734178        19.9780 
 324   0.0000       0.735726        20.0201 
 325   0.0000       0.736982        20.0543 
 326   0.0000       0.742769        20.2118 
 327   0.0000       0.746816        20.3219 
 328   0.0000       0.750613        20.4252 
 329   0.0000       0.754932        20.5427 
 330   0.0000       0.758427        20.6379 
 331   0.0000       0.766662        20.8619 
 332   0.0000       0.766997        20.8711 
 333   0.0000       0.768183        20.9033 
 334   0.0000       0.770497        20.9663 
 335   0.0000       0.772385        21.0177 
 336   0.0000       0.777682        21.1618 
 337   0.0000       0.780755        21.2454 
 338   0.0000       0.785446        21.3731 
 339   0.0000       0.790101        21.4997 
 340   0.0000       0.792571        21.5670 
 341   0.0000       0.793915        21.6035 
 342   0.0000       0.799702        21.7610 
 343   0.0000       0.801164        21.8008 
 344   0.0000       0.804723        21.8976 
 345   0.0000       0.808710        22.0061 
 346   0.0000       0.812939        22.1212 
 347   0.0000       0.814384        22.1605 
 348   0.0000       0.816093        22.2070 
 349   0.0000       0.817469        22.2445 
 350   0.0000       0.821084        22.3428 
 351   0.0000       0.824350        22.4317 
 352   0.0000       0.827381        22.5142 
 353   0.0000       0.828315        22.5396 
 354   0.0000       0.831059        22.6143 
 355   0.0000       0.832486        22.6531 
 356   0.0000       0.834615        22.7110 
 357   0.0000       0.836501        22.7623 
 358   0.0000       0.838891        22.8274 
 359   0.0000       0.840412        22.8688 
 360   0.0000       0.842545        22.9268 
 361   0.0000       0.843593        22.9553 
 362   0.0000       0.845653        23.0114 
 363   0.0000       0.849023        23.1031 
 364   0.0000       0.852597        23.2003 
 365   0.0000       0.855628        23.2828 
 366   0.0000       0.862683        23.4748 
 367   0.0000       0.863244        23.4901 
 368   0.0000       0.867910        23.6170 
 369   0.0000       0.870238        23.6804 
 370   0.0000       0.871457        23.7135 
 371   0.0000       0.875263        23.8171 
 372   0.0000       0.875643        23.8275 
 373   0.0000       0.877583        23.8802 
 374   0.0000       0.882077        24.0025 
 375   0.0000       0.883600        24.0440 
 376   0.0000       0.889840        24.2138 
 377   0.0000       0.891747        24.2657 
 378   0.0000       0.894036        24.3280 
 379   0.0000       0.895820        24.3765 
 380   0.0000       0.897462        24.4212 
 381   0.0000       0.899313        24.4716 
 382   0.0000       0.901476        24.5304 
 383   0.0000       0.902891        24.5689 
 384   0.0000       0.906781        24.6748 
 385   0.0000       0.907836        24.7035 
 386   0.0000       0.911122        24.7929 
 387   0.0000       0.914733        24.8911 
 388   0.0000       0.915495        24.9119 
 389   0.0000       0.919050        25.0086 
 390   0.0000       0.924198        25.1487 
 391   0.0000       0.926395        25.2085 
 392   0.0000       0.927842        25.2479 
 393   0.0000       0.929843        25.3023 
 394   0.0000       0.930513        25.3205 
 395   0.0000       0.934601        25.4318 
 396   0.0000       0.938394        25.5350 
 397   0.0000       0.941761        25.6266 
 398   0.0000       0.947559        25.7844 
 399   0.0000       0.948746        25.8167 
 400   0.0000       0.951372        25.8881 
 401   0.0000       0.953877        25.9563 
 402   0.0000       0.954922        25.9847 
 403   0.0000       0.958990        26.0954 
 404   0.0000       0.961759        26.1708 
 405   0.0000       0.962975        26.2039 
 406   0.0000       0.972603        26.4659 
 407   0.0000       0.979455        26.6523 
 408   0.0000       0.981957        26.7204 
 409   0.0000       0.987571        26.8732 
 410   0.0000       0.990579        26.9550 
 411   0.0000       0.993237        27.0273 
 412   0.0000       0.999975        27.2107 
 413   0.0000       1.006919        27.3997 
 414   0.0000       1.012672        27.5562 
 415   0.0000       1.014947        27.6181 
 416   0.0000       1.019774        27.7494 
 417   0.0000       1.025849        27.9148 
 418   0.0000       1.031594        28.0711 
 419   0.0000       1.034467        28.1493 
 420   0.0000       1.041501        28.3407 
 421   0.0000       1.042461        28.3668 
 422   0.0000       1.049025        28.5454 
 423   0.0000       1.055235        28.7144 
 424   0.0000       1.064073        28.9549 
 425   0.0000       1.071289        29.1513 
 426   0.0000       1.076944        29.3051 
 427   0.0000       1.077795        29.3283 
 428   0.0000       1.080990        29.4152 
 429   0.0000       1.088087        29.6084 
 430   0.0000       1.089278        29.6408 
 431   0.0000       1.095365        29.8064 
 432   0.0000       1.098959        29.9042 
 433   0.0000       1.104325        30.0502 
 434   0.0000       1.109521        30.1916 
 435   0.0000       1.112250        30.2659 
 436   0.0000       1.116403        30.3789 
 437   0.0000       1.120998        30.5039 
 438   0.0000       1.121764        30.5248 
 439   0.0000       1.123585        30.5743 
 440   0.0000       1.127694        30.6861 
 441   0.0000       1.131524        30.7903 
 442   0.0000       1.135503        30.8986 
 443   0.0000       1.136175        30.9169 
 444   0.0000       1.139320        31.0025 
 445   0.0000       1.144764        31.1506 
 446   0.0000       1.145501        31.1707 
 447   0.0000       1.152092        31.3500 
 448   0.0000       1.155038        31.4302 
 449   0.0000       1.158813        31.5329 
 450   0.0000       1.160868        31.5888 
 451   0.0000       1.166143        31.7324 
 452   0.0000       1.168536        31.7975 
 453   0.0000       1.170729        31.8572 
 454   0.0000       1.172331        31.9007 
 455   0.0000       1.180639        32.1268 
 456   0.0000       1.183527        32.2054 
 457   0.0000       1.195767        32.5385 
 458   0.0000       1.198572        32.6148 
 459   0.0000       1.201170        32.6855 
 460   0.0000       1.202780        32.7293 
 461   0.0000       1.208014        32.8717 
 462   0.0000       1.208337        32.8805 
 463   0.0000       1.212733        33.0001 
 464   0.0000       1.214561        33.0499 
 465   0.0000       1.217304        33.1245 
 466   0.0000       1.223385        33.2900 
 467   0.0000       1.228979        33.4422 
 468   0.0000       1.229262        33.4499 
 469   0.0000       1.233510        33.5655 
 470   0.0000       1.237999        33.6877 
 471   0.0000       1.241125        33.7727 
 472   0.0000       1.244238        33.8574 
 473   0.0000       1.246802        33.9272 
 474   0.0000       1.249642        34.0045 
 475   0.0000       1.251325        34.0503 
 476   0.0000       1.252836        34.0914 
 477   0.0000       1.254807        34.1450 
 478   0.0000       1.260883        34.3104 
 479   0.0000       1.264677        34.4136 
 480   0.0000       1.267254        34.4837 
 481   0.0000       1.268686        34.5227 
 482   0.0000       1.271135        34.5893 
 483   0.0000       1.276711        34.7411 
 484   0.0000       1.282527        34.8993 
 485   0.0000       1.284827        34.9619 
 486   0.0000       1.288042        35.0494 
 487   0.0000       1.291505        35.1436 
 488   0.0000       1.292931        35.1824 
 489   0.0000       1.295984        35.2655 
 490   0.0000       1.300991        35.4018 
 491   0.0000       1.304949        35.5095 
 492   0.0000       1.310023        35.6475 
 493   0.0000       1.311790        35.6956 
 494   0.0000       1.318317        35.8732 
 495   0.0000       1.321401        35.9571 
 496   0.0000       1.323729        36.0205 
 497   0.0000       1.327381        36.1199 
 498   0.0000       1.329562        36.1792 
 499   0.0000       1.337096        36.3842 
 500   0.0000       1.337871        36.4053 
 501   0.0000       1.340644        36.4808 
 502   0.0000       1.343347        36.5543 
 503   0.0000       1.346636        36.6438 
 504   0.0000       1.349422        36.7196 
 505   0.0000       1.350390        36.7460 
 506   0.0000       1.352866        36.8134 
 507   0.0000       1.358859        36.9764 
 508   0.0000       1.359972        37.0067 
 509   0.0000       1.363711        37.1085 
[...]
      px      :     0.043610
      py      :     0.014047
 77 H s       :     0.884473  s :     0.884473
      pz      :     0.047978  p :     0.079295
      px      :     0.015024
      py      :     0.016292
 78 H s       :     0.884802  s :     0.884802
      pz      :     0.025885  p :     0.079268
      px      :     0.020455
      py      :     0.032928
 79 H s       :     0.910875  s :     0.910875
      pz      :     0.021807  p :     0.086296
      px      :     0.021655
      py      :     0.042835
 80 H s       :     0.864318  s :     0.864318
      pz      :     0.039394  p :     0.084832
      px      :     0.030286
      py      :     0.015152
 81 H s       :     0.886660  s :     0.886660
      pz      :     0.037837  p :     0.084136
      px      :     0.016173
      py      :     0.030126
 82 H s       :     0.916020  s :     0.916020
      pz      :     0.021960  p :     0.086734
      px      :     0.031655
      py      :     0.033118
 83 H s       :     0.873251  s :     0.873251
      pz      :     0.039290  p :     0.084124
      px      :     0.015272
      py      :     0.029562
 84 H s       :     0.886524  s :     0.886524
      pz      :     0.035778  p :     0.083423
      px      :     0.031703
      py      :     0.015942
 85 H s       :     0.892693  s :     0.892693
      pz      :     0.022493  p :     0.079792
      px      :     0.014063
      py      :     0.043235
 86 H s       :     0.890888  s :     0.890888
      pz      :     0.024734  p :     0.078837
      px      :     0.032988
      py      :     0.021115
 87 H s       :     0.889735  s :     0.889735
      pz      :     0.048028  p :     0.078752
      px      :     0.015586
      py      :     0.015138
 88 H s       :     0.910566  s :     0.910566
      pz      :     0.021603  p :     0.087006
      px      :     0.042946
      py      :     0.022457
 89 H s       :     0.870955  s :     0.870955
      pz      :     0.037970  p :     0.083871
      px      :     0.030517
      py      :     0.015384


                      *****************************
                      * MAYER POPULATION ANALYSIS *
                      *****************************

  NA   - Mulliken gross atomic population
  ZA   - Total nuclear charge
  QA   - Mulliken gross atomic charge
  VA   - Mayer's total valence
  BVA  - Mayer's bonded valence
  FA   - Mayer's free valence

  ATOM       NA         ZA         QA         VA         BVA        FA
  0 C      5.7718     6.0000     0.2282     3.8524     3.8524     0.0000
  1 N      7.4549     7.0000    -0.4549     3.3520     3.3520    -0.0000
  2 C      6.0661     6.0000    -0.0661     3.9235     3.9235    -0.0000
  3 N      7.3412     7.0000    -0.3412     3.4542     3.4542     0.0000
  4 C      6.1312     6.0000    -0.1312     4.1906     4.1906    -0.0000
  5 N      7.5688     7.0000    -0.5688     3.0965     3.0965    -0.0000
  6 C      6.0878     6.0000    -0.0878     3.9239     3.9239    -0.0000
  7 N      7.3411     7.0000    -0.3411     3.4323     3.4323    -0.0000
  8 C      5.7801     6.0000     0.2199     3.8545     3.8545    -0.0000
  9 N      7.5623     7.0000    -0.5623     3.0768     3.0768     0.0000
 10 C      5.8809     6.0000     0.1191     3.9088     3.9088    -0.0000
 11 N      7.4387     7.0000    -0.4387     3.3769     3.3769     0.0000
 12 C      6.0564     6.0000    -0.0564     3.8164     3.8164     0.0000
 13 N      7.4294     7.0000    -0.4294     3.4284     3.4284     0.0000
 14 C      5.7858     6.0000     0.2142     3.8147     3.8147    -0.0000
 15 N      7.4407     7.0000    -0.4407     3.3734     3.3734     0.0000
 16 C      5.7661     6.0000     0.2339     3.7775     3.7775    -0.0000
 17 C      6.1037     6.0000    -0.1037     3.9404     3.9404     0.0000
 18 C      6.1813     6.0000    -0.1813     3.7479     3.7479    -0.0000
 19 C      5.7867     6.0000     0.2133     3.8909     3.8909    -0.0000
 20 C      5.7867     6.0000     0.2133     3.8293     3.8293     0.0000
 21 C      6.0603     6.0000    -0.0603     3.7705     3.7705     0.0000
 22 C      6.0911     6.0000    -0.0911     3.9825     3.9825    -0.0000
 23 C      6.0396     6.0000    -0.0396     3.9929     3.9929    -0.0000
 24 C      5.8072     6.0000     0.1928     3.8211     3.8211    -0.0000
 25 C      5.8853     6.0000     0.1147     3.8920     3.8920     0.0000
 26 C      6.0804     6.0000    -0.0804     3.9077     3.9077     0.0000
 27 C      5.7807     6.0000     0.2193     3.8635     3.8635    -0.0000
 28 C      6.0619     6.0000    -0.0619     3.9888     3.9888    -0.0000
 29 C      6.1831     6.0000    -0.1831     3.7483     3.7483     0.0000
 30 C      5.7546     6.0000     0.2454     3.8005     3.8005     0.0000
 31 C      5.7700     6.0000     0.2300     3.8169     3.8169    -0.0000
 32 C      6.0614     6.0000    -0.0614     3.9233     3.9233    -0.0000
 33 C      6.0600     6.0000    -0.0600     3.9712     3.9712    -0.0000
 34 C      6.0515     6.0000    -0.0515     3.9833     3.9833    -0.0000
 35 C      5.7710     6.0000     0.2290     3.8165     3.8165     0.0000
 36 C      5.8918     6.0000     0.1082     3.8747     3.8747     0.0000
 37 C      6.0647     6.0000    -0.0647     3.9176     3.9176     0.0000
 38 C      5.7690     6.0000     0.2310     3.8012     3.8012    -0.0000
 39 C      6.0574     6.0000    -0.0574     3.9830     3.9830     0.0000
 40 C      6.1820     6.0000    -0.1820     3.7259     3.7259     0.0000
 41 C      5.7736     6.0000     0.2264     3.8882     3.8882     0.0000
 42 C      5.8026     6.0000     0.1974     3.8254     3.8254     0.0000
 43 C      6.0727     6.0000    -0.0727     3.8999     3.8999    -0.0000
 44 C      6.0893     6.0000    -0.0893     3.9848     3.9848     0.0000
 45 C      6.0617     6.0000    -0.0617     3.9918     3.9918     0.0000
 46 C      5.7878     6.0000     0.2122     3.8284     3.8284     0.0000
 47 C      5.8847     6.0000     0.1153     3.8926     3.8926    -0.0000
 48 C      6.0664     6.0000    -0.0664     3.9096     3.9096    -0.0000
 49 C      5.7620     6.0000     0.2380     3.8950     3.8950    -0.0000
 50 C      6.0460     6.0000    -0.0460     3.9903     3.9903    -0.0000
 51 C      6.1924     6.0000    -0.1924     3.7382     3.7382     0.0000
 52 H      0.9675     1.0000     0.0325     0.9858     0.9858    -0.0000
 53 H      1.0189     1.0000    -0.0189     0.9991     0.9991    -0.0000
 54 H      0.9275     1.0000     0.0725     0.9302     0.9302    -0.0000
 55 H      0.9701     1.0000     0.0299     0.9866     0.9866     0.0000
 56 H      0.9505     1.0000     0.0495     0.9694     0.9694    -0.0000
 57 H      0.9522     1.0000     0.0478     0.9824     0.9824    -0.0000
 58 H      0.9535     1.0000     0.0465     0.9845     0.9845    -0.0000
 59 H      1.0198     1.0000    -0.0198     0.9717     0.9717     0.0000
 60 H      0.9455     1.0000     0.0545     0.9578     0.9578     0.0000
 61 H      0.8290     1.0000     0.1710     1.0424     1.0424    -0.0000
 62 H      0.8246     1.0000     0.1754     1.0437     1.0437    -0.0000
 63 H      0.9451     1.0000     0.0549     0.9853     0.9853     0.0000
 64 H      1.0462     1.0000    -0.0462     0.9631     0.9631     0.0000
 65 H      0.9534     1.0000     0.0466     1.0100     1.0100    -0.0000
 66 H      0.9449     1.0000     0.0551     0.9855     0.9855    -0.0000
 67 H      0.9380     1.0000     0.0620     0.9719     0.9719    -0.0000
 68 H      0.9430     1.0000     0.0570     0.9868     0.9868    -0.0000
 69 H      0.9439     1.0000     0.0561     0.9828     0.9828    -0.0000
 70 H      1.0312     1.0000    -0.0312     0.9945     0.9945     0.0000
 71 H      0.9556     1.0000     0.0444     1.0058     1.0058     0.0000
 72 H      0.9286     1.0000     0.0714     0.9835     0.9835    -0.0000
 73 H      1.0079     1.0000    -0.0079     1.0010     1.0010     0.0000
 74 H      0.9395     1.0000     0.0605     1.0100     1.0100     0.0000
 75 H      0.9291     1.0000     0.0709     0.9838     0.9838    -0.0000
 76 H      0.9249     1.0000     0.0751     0.9721     0.9721     0.0000
 77 H      0.9319     1.0000     0.0681     0.9855     0.9855     0.0000
 78 H      0.9326     1.0000     0.0674     0.9854     0.9854    -0.0000
 79 H      1.0169     1.0000    -0.0169     0.9974     0.9974     0.0000
 80 H      0.9385     1.0000     0.0615     1.0072     1.0072     0.0000
 81 H      0.9453     1.0000     0.0547     0.9856     0.9856     0.0000
 82 H      1.0249     1.0000    -0.0249     0.9935     0.9935    -0.0000
 83 H      0.9578     1.0000     0.0422     1.0083     1.0083     0.0000
 84 H      0.9455     1.0000     0.0545     0.9852     0.9852     0.0000
 85 H      0.9389     1.0000     0.0611     0.9716     0.9716    -0.0000
 86 H      0.9443     1.0000     0.0557     0.9839     0.9839    -0.0000
 87 H      0.9426     1.0000     0.0574     0.9857     0.9857     0.0000
 88 H      1.0144     1.0000    -0.0144     0.9968     0.9968    -0.0000
 89 H      0.9528     1.0000     0.0472     1.0077     1.0077    -0.0000

  Mayer bond orders larger than 0.100000
B(  0-C ,  1-N ) :   1.1045 B(  0-C , 17-C ) :   1.7244 B(  0-C , 52-H ) :   0.9590 
B(  1-N ,  8-C ) :   1.0911 B(  1-N , 10-C ) :   0.9770 B(  2-C , 12-C ) :   1.4858 
B(  2-C , 16-C ) :   1.3781 B(  2-C , 53-H ) :   0.9704 B(  3-N , 14-C ) :   1.2259 
B(  3-N , 16-C ) :   1.1770 B(  3-N , 61-H ) :   0.8975 B(  4-C ,  6-C ) :   1.2290 
B(  4-C , 17-C ) :   1.2306 B(  4-C , 18-C ) :   1.4893 B(  5-N , 19-C ) :   1.4666 
B(  5-N , 27-C ) :   1.3674 B(  6-C ,  8-C ) :   1.7422 B(  6-C , 54-H ) :   0.8305 
B(  7-N , 30-C ) :   1.1950 B(  7-N , 38-C ) :   1.1896 B(  7-N , 62-H ) :   0.8968 
B(  8-C , 55-H ) :   0.9586 B(  9-N , 41-C ) :   1.3956 B(  9-N , 49-C ) :   1.4237 
B( 10-C , 56-H ) :   0.9777 B( 10-C , 57-H ) :   0.9823 B( 10-C , 58-H ) :   0.9837 
B( 11-N , 20-C ) :   1.1304 B( 11-N , 24-C ) :   1.1057 B( 11-N , 25-C ) :   0.9607 
B( 12-C , 14-C ) :   1.3615 B( 12-C , 59-H ) :   0.9073 B( 13-N , 31-C ) :   1.1614 
B( 13-N , 35-C ) :   1.1611 B( 13-N , 36-C ) :   0.9412 B( 14-C , 18-C ) :   1.1169 
B( 15-N , 42-C ) :   1.1081 B( 15-N , 46-C ) :   1.1254 B( 15-N , 47-C ) :   0.9609 
B( 16-C , 51-C ) :   1.1685 B( 17-C , 60-H ) :   0.8678 B( 18-C , 19-C ) :   1.1151 
B( 19-C , 21-C ) :   1.2560 B( 20-C , 28-C ) :   1.6297 B( 20-C , 63-H ) :   0.9703 
B( 21-C , 26-C ) :   1.5772 B( 21-C , 64-H ) :   0.8746 B( 22-C , 23-C ) :   1.2887 
B( 22-C , 28-C ) :   1.2627 B( 22-C , 29-C ) :   1.2279 B( 23-C , 24-C ) :   1.6211 
B( 23-C , 65-H ) :   0.9703 B( 24-C , 66-H ) :   0.9696 B( 25-C , 67-H ) :   0.9760 
B( 25-C , 68-H ) :   0.9828 B( 25-C , 69-H ) :   0.9824 B( 26-C , 27-C ) :   1.2704 
B( 26-C , 70-H ) :   0.9649 B( 27-C , 29-C ) :   1.2056 B( 28-C , 71-H ) :   0.9720 
B( 29-C , 30-C ) :   1.2468 B( 30-C , 32-C ) :   1.2791 B( 31-C , 39-C ) :   1.5875 
B( 31-C , 72-H ) :   0.9681 B( 32-C , 37-C ) :   1.5796 B( 32-C , 73-H ) :   0.9786 
B( 33-C , 34-C ) :   1.3066 B( 33-C , 39-C ) :   1.3045 B( 33-C , 40-C ) :   1.1763 
B( 34-C , 35-C ) :   1.5854 B( 34-C , 74-H ) :   0.9696 B( 35-C , 75-H ) :   0.9681 
B( 36-C , 76-H ) :   0.9768 B( 36-C , 77-H ) :   0.9816 B( 36-C , 78-H ) :   0.9823 
B( 37-C , 38-C ) :   1.2852 B( 37-C , 79-H ) :   0.9764 B( 38-C , 40-C ) :   1.2338 
B( 39-C , 80-H ) :   0.9705 B( 40-C , 41-C ) :   1.2502 B( 41-C , 43-C ) :   1.1839 
B( 42-C , 50-C ) :   1.6320 B( 42-C , 81-H ) :   0.9696 B( 43-C , 48-C ) :   1.6692 
B( 43-C , 82-H ) :   0.9721 B( 44-C , 45-C ) :   1.2640 B( 44-C , 50-C ) :   1.2735 
B( 44-C , 51-C ) :   1.2588 B( 45-C , 46-C ) :   1.6336 B( 45-C , 83-H ) :   0.9718 
B( 46-C , 84-H ) :   0.9700 B( 47-C , 85-H ) :   0.9762 B( 47-C , 86-H ) :   0.9829 
B( 47-C , 87-H ) :   0.9824 B( 48-C , 49-C ) :   1.1872 B( 48-C , 88-H ) :   0.9748 
B( 49-C , 51-C ) :   1.2467 B( 50-C , 89-H ) :   0.9708 B( 54-H , 64-H ) :   0.1485 
B( 59-H , 60-H ) :   0.1052 

-------
TIMINGS
-------

Total SCF time: 0 days 0 hours 30 min 25 sec 

Total time                  ....    1825.704 sec
Sum of individual times     ....    1821.092 sec  ( 99.7%)

Fock matrix formation       ....    1797.821 sec  ( 98.5%)
Diagonalization             ....       6.961 sec  (  0.4%)
Density matrix formation    ....       0.694 sec  (  0.0%)
Population analysis         ....       0.526 sec  (  0.0%)
Initial guess               ....       2.063 sec  (  0.1%)
Orbital Transformation      ....       0.000 sec  (  0.0%)
Orbital Orthonormalization  ....       0.000 sec  (  0.0%)
DIIS solution               ....       3.539 sec  (  0.2%)
SOSCF solution              ....       8.438 sec  (  0.5%)

Maximum memory used throughout the entire SCF-calculation: 302.7 MB


           ************************************************************
           *        Program running with 16 parallel MPI-processes    *
           *              working on a common directory               *
           ************************************************************

------------------------------------------------------------------------------
                                ORCA  MP2 
------------------------------------------------------------------------------

Freezing NCore=104 chemical core electrons

----------
MP2 ENERGY (disk based algorithm)
----------

Dimension of the basis                    ...  918
Memory devoted to MP2                     ... 2000 MB   
Data format for buffers                   ... DOUBLE
Compression type for matrix containers    ... UNCOMPRESSED

-------------------------------
PARTIAL EXCHANGE TRANSFORMATION
-------------------------------

Transformation type                        ... one-operator
Generation of integrals (i,mue|j,nue)      ... ON
Generation of integrals (mue,kappa|nue,tau)... OFF
Generation of integrals (i,mue|a,nue)      ... OFF
Dimension of the basis                     ...  918
Number of internal MOs                     ...  127 (  52- 178)
Pair cutoff                                ... 2.500e-12 Eh
Number of AO pairs in the trafo            ... 421821
Total Number of distinct AO pairs          ... 421821
Memory devoted for trafo                   ... 2000.0 MB 
Max. Number of MO pairs treated together   ...  311      
Number Format for Storage                  ... Double (8 Byte)
Integral package used                      ... LIBINT

Starting integral evaluation:
    ... done with AO integral generation
Closing buffer AOK     (38.22 GB; CompressionRatio= 1.33)
Collecting buffer AOK 
Number of MO pairs included in the trafo   ... 8128
------------------------
SORTING OF (i,mue|j,nue)
------------------------

IBATCH = 1 of  2
IBATCH = 2 of  2
Closing buffer KAO     (51.03 GB; CompressionRatio= 1.00)
Collecting buffer KAO 
N(AO-Batches) Done                         ...  86145709 
N(AO-Batches) Skipped                      ...  82392921 
N(IJ)-pairs Skipped                        ...         0 
TOTAL TIME for half transformation         ...  3116.851 sec
AO-integral generation                     ...   210.151 sec
Half transformation                        ...   372.876 sec
K-integral sorting                         ...  2344.948 sec
Process 10:   Internal MO 132
Process 13:   Internal MO 156

Finished integral transformation - now doing MP2 part

OPERATOR COMBINATION   0   0: ij=( 52..178, 52..178)
Process  7:   Internal MO 108
Process  1:   Internal MO  60
Process  4:   Internal MO  84
Process  0:   Internal MO  54
Process  0:   Internal MO  57
Process  2:   Internal MO  69
Process  1:   Internal MO  63
Process  5:   Internal MO  93
Process  3:   Internal MO  78
Process  8:   Internal MO 117
Process  1:   Internal MO  66
Process  2:   Internal MO  72
Process 11:   Internal MO 141
Process  4:   Internal MO  87
Process  6:   Internal MO 102
Process 14:   Internal MO 165
Process  3:   Internal MO  81
Process  2:   Internal MO  75
Process  9:   Internal MO 126
Process  7:   Internal MO 111
Process  5:   Internal MO  96
Process 12:   Internal MO 150
Process  4:   Internal MO  90
Process 15:   Internal MO 174
Process 10:   Internal MO 135
Process  6:   Internal MO 105
Process  8:   Internal MO 120
Process 13:   Internal MO 159
Process  5:   Internal MO  99
Process  7:   Internal MO 114
Process  9:   Internal MO 129
Process 11:   Internal MO 144
Process 14:   Internal MO 168
Process  8:   Internal MO 123
Process 12:   Internal MO 153
Process 10:   Internal MO 138
Process 15:   Internal MO 177
Process 13:   Internal MO 162
Process 11:   Internal MO 147
Process 14:   Internal MO 171
-----------------------------------------------
 MP2 CORRELATION ENERGY   :     -7.293799022 Eh
-----------------------------------------------


-------
TIMINGS
-------
Total time                : 3663.236 sec
Integral trafo            : 3118.805 sec ( 85.1%)
K(i,j)                    :    7.396 sec (  0.2%)
T(i,j)                    :    0.115 sec (  0.0%)

---------------------------------------
MP2 TOTAL ENERGY:    -2130.731322303 Eh
---------------------------------------

Maximum memory used throughout the entire MP2-calculation: 2275.3 MB

-------------------------   --------------------
FINAL SINGLE POINT ENERGY     -2130.731322303000
-------------------------   --------------------


                            ***************************************
                            *     ORCA property calculations      *
                            ***************************************


  WARNING: The energy has been calculated at the MP2 level but the densities
           used in the property calculations are still SCF densities
           MP2 response densities have not been calculated 
           use %mp2 Density relaxed end
           or  %mp2 Density unrelaxed end

                                    ---------------------
                                    Active property flags
                                    ---------------------
   (+) Dipole Moment


------------------------------------------------------------------------------
                       ORCA ELECTRIC PROPERTIES CALCULATION
------------------------------------------------------------------------------

Dipole Moment Calculation                       ... on
Quadrupole Moment Calculation                   ... off
Polarizability Calculation                      ... off
GBWName                                         ... /scratch/allen/tmpyp4_amber_gaff2/conf1/conf1/Conf6.orca.gbw
Electron density                                ... /scratch/allen/tmpyp4_amber_gaff2/conf1/conf1/Conf6.orca.scfp
The origin for moment calculation is the CENTER OF MASS  = (-0.001211, -0.004980  0.002271)

-------------
DIPOLE MOMENT
-------------
                                X             Y             Z
Electronic contribution:      2.90617      -4.22762      -0.08243
Nuclear contribution   :     -0.03904       0.16138       0.10172
                        -----------------------------------------
Total Dipole Moment    :      2.86712      -4.06624       0.01929
                        -----------------------------------------
Magnitude (a.u.)       :      4.97544
Magnitude (Debye)      :     12.64657



--------------------
Rotational spectrum 
--------------------
 
Rotational constants in cm-1:     0.001504     0.001478     0.000760 
Rotational constants in MHz :    45.074052    44.301279    22.780716 

 Dipole components along the rotational axes: 
x,y,z [a.u.] :    -3.520501    -3.515764     0.022904 
x,y,z [Debye]:    -8.948402    -8.936362     0.058217 

 

Timings for individual modules:

Sum of individual times         ...     5524.459 sec (=  92.074 min)
GTO integral calculation        ...        8.515 sec (=   0.142 min)   0.2 %
SCF iterations                  ...     1828.118 sec (=  30.469 min)  33.1 %
MP2 module                      ...     3687.826 sec (=  61.464 min)  66.8 %
                             ****ORCA TERMINATED NORMALLY****
TOTAL RUN TIME: 0 days 1 hours 32 minutes 7 seconds 995 msec
# of primitive gaussian functions

