
                                 *****************
                                 * O   R   C   A *
                                 *****************

                                            #,                                       
                                            ###                                      
                                            ####                                     
                                            #####                                    
                                            ######                                   
                                           ########,                                 
                                     ,,################,,,,,                         
                               ,,#################################,,                 
                          ,,##########################################,,             
                       ,#########################################, ''#####,          
                    ,#############################################,,   '####,        
                  ,##################################################,,,,####,       
                ,###########''''           ''''###############################       
              ,#####''   ,,,,##########,,,,          '''####'''          '####       
            ,##' ,,,,###########################,,,                        '##       
           ' ,,###''''                  '''############,,,                           
         ,,##''                                '''############,,,,        ,,,,,,###''
      ,#''                                            '''#######################'''  
     '                                                          ''''####''''         
             ,#######,   #######,   ,#######,      ##                                
            ,#'     '#,  ##    ##  ,#'     '#,    #''#        ######   ,####,        
            ##       ##  ##   ,#'  ##            #'  '#       #        #'  '#        
            ##       ##  #######   ##           ,######,      #####,   #    #        
            '#,     ,#'  ##    ##  '#,     ,#' ,#      #,         ##   #,  ,#        
             '#######'   ##     ##  '#######'  #'      '#     #####' # '####'        



                  #######################################################
                  #                        -***-                        #
                  #          Department of theory and spectroscopy      #
                  #    Directorship and core code : Frank Neese         #
                  #        Max Planck Institute fuer Kohlenforschung    #
                  #                Kaiser Wilhelm Platz 1               #
                  #                 D-45470 Muelheim/Ruhr               #
                  #                      Germany                        #
                  #                                                     #
                  #                  All rights reserved                #
                  #                        -***-                        #
                  #######################################################


                         Program Version 5.0.4 -  RELEASE  -


 With contributions from (in alphabetic order):
   Daniel Aravena         : Magnetic Suceptibility
   Michael Atanasov       : Ab Initio Ligand Field Theory (pilot matlab implementation)
   Alexander A. Auer      : GIAO ZORA, VPT2 properties, NMR spectrum
   Ute Becker             : Parallelization
   Giovanni Bistoni       : ED, misc. LED, open-shell LED, HFLD
   Martin Brehm           : Molecular dynamics
   Dmytro Bykov           : SCF Hessian
   Vijay G. Chilkuri      : MRCI spin determinant printing, contributions to CSF-ICE
   Dipayan Datta          : RHF DLPNO-CCSD density
   Achintya Kumar Dutta   : EOM-CC, STEOM-CC
   Dmitry Ganyushin       : Spin-Orbit,Spin-Spin,Magnetic field MRCI
   Miquel Garcia          : C-PCM and meta-GGA Hessian, CC/C-PCM, Gaussian charge scheme
   Yang Guo               : DLPNO-NEVPT2, F12-NEVPT2, CIM, IAO-localization
   Andreas Hansen         : Spin unrestricted coupled pair/coupled cluster methods
   Benjamin Helmich-Paris : MC-RPA, TRAH-SCF, COSX integrals
   Lee Huntington         : MR-EOM, pCC
   Robert Izsak           : Overlap fitted RIJCOSX, COSX-SCS-MP3, EOM
   Marcus Kettner         : VPT2
   Christian Kollmar      : KDIIS, OOCD, Brueckner-CCSD(T), CCSD density, CASPT2, CASPT2-K
   Simone Kossmann        : Meta GGA functionals, TD-DFT gradient, OOMP2, MP2 Hessian
   Martin Krupicka        : Initial AUTO-CI
   Lucas Lang             : DCDCAS
   Marvin Lechner         : AUTO-CI (C++ implementation), FIC-MRCC
   Dagmar Lenk            : GEPOL surface, SMD
   Dimitrios Liakos       : Extrapolation schemes; Compound Job, initial MDCI parallelization
   Dimitrios Manganas     : Further ROCIS development; embedding schemes
   Dimitrios Pantazis     : SARC Basis sets
   Anastasios Papadopoulos: AUTO-CI, single reference methods and gradients
   Taras Petrenko         : DFT Hessian,TD-DFT gradient, ASA, ECA, R-Raman, ABS, FL, XAS/XES, NRVS
   Peter Pinski           : DLPNO-MP2, DLPNO-MP2 Gradient
   Christoph Reimann      : Effective Core Potentials
   Marius Retegan         : Local ZFS, SOC
   Christoph Riplinger    : Optimizer, TS searches, QM/MM, DLPNO-CCSD(T), (RO)-DLPNO pert. Triples
   Tobias Risthaus        : Range-separated hybrids, TD-DFT gradient, RPA, STAB
   Michael Roemelt        : Original ROCIS implementation
   Masaaki Saitow         : Open-shell DLPNO-CCSD energy and density
   Barbara Sandhoefer     : DKH picture change effects
   Avijit Sen             : IP-ROCIS
   Kantharuban Sivalingam : CASSCF convergence, NEVPT2, FIC-MRCI
   Bernardo de Souza      : ESD, SOC TD-DFT
   Georgi Stoychev        : AutoAux, RI-MP2 NMR, DLPNO-MP2 response
   Willem Van den Heuvel  : Paramagnetic NMR
   Boris Wezisla          : Elementary symmetry handling
   Frank Wennmohs         : Technical directorship


 We gratefully acknowledge several colleagues who have allowed us to
 interface, adapt or use parts of their codes:
   Stefan Grimme, W. Hujo, H. Kruse, P. Pracht,  : VdW corrections, initial TS optimization,
                  C. Bannwarth, S. Ehlert          DFT functionals, gCP, sTDA/sTD-DF
   Ed Valeev, F. Pavosevic, A. Kumar             : LibInt (2-el integral package), F12 methods
   Garnet Chan, S. Sharma, J. Yang, R. Olivares  : DMRG
   Ulf Ekstrom                                   : XCFun DFT Library
   Mihaly Kallay                                 : mrcc  (arbitrary order and MRCC methods)
   Jiri Pittner, Ondrej Demel                    : Mk-CCSD
   Frank Weinhold                                : gennbo (NPA and NBO analysis)
   Christopher J. Cramer and Donald G. Truhlar   : smd solvation model
   Lars Goerigk                                  : TD-DFT with DH, B97 family of functionals
   V. Asgeirsson, H. Jonsson                     : NEB implementation
   FAccTs GmbH                                   : IRC, NEB, NEB-TS, DLPNO-Multilevel, CI-OPT
                                                   MM, QMMM, 2- and 3-layer-ONIOM, Crystal-QMMM,
                                                   LR-CPCM, SF, NACMEs, symmetry and pop. for TD-DFT,
                                                   nearIR, NL-DFT gradient (VV10), updates on ESD,
                                                   ML-optimized integration grids
   S Lehtola, MJT Oliveira, MAL Marques          : LibXC Library
   Liviu Ungur et al                             : ANISO software


 Your calculation uses the libint2 library for the computation of 2-el integrals
 For citations please refer to: http://libint.valeyev.net

 Your ORCA version has been built with support for libXC version: 5.1.0
 For citations please refer to: https://tddft.org/programs/libxc/

 This ORCA versions uses:
   CBLAS   interface :  Fast vector & matrix operations
   LAPACKE interface :  Fast linear algebra routines
   SCALAPACK package :  Parallel linear algebra routines
   Shared memory     :  Shared parallel matrices
   BLAS/LAPACK       :  OpenBLAS 0.3.15  USE64BITINT DYNAMIC_ARCH NO_AFFINITY Sandybridge SINGLE_THREADED
        Core in use  :  Sandybridge
   Copyright (c) 2011-2014, The OpenBLAS Project


================================================================================

----- Orbital basis set information -----
Your calculation utilizes the basis: cc-pVDZ 
       H, B-Ne : Obtained from the ccRepo (grant-hill.group.shef.ac.uk/ccrepo) Feb. 2017
                 T. H. Dunning, Jr., J. Chem. Phys. 90, 1007 (1989)
            He : Obtained from the ccRepo (grant-hill.group.shef.ac.uk/ccrepo) Feb. 2017
                 D. E. Woon, T. H. Dunning, Jr., J. Chem. Phys. 100, 2975 (1994)
  Li-Be, Na-Mg : Obtained from the ccRepo (grant-hill.group.shef.ac.uk/ccrepo) Feb. 2017
                 B. P. Prascher, D. E. Woon, K. A. Peterson, T. H. Dunning, Jr., A. K. Wilson, Theor. Chem. Acc. 128, 69 (2011)
         Al-Ar : Obtained from the ccRepo (grant-hill.group.shef.ac.uk/ccrepo) Feb. 2017
                 D. E. Woon, T. H. Dunning, Jr., J. Chem. Phys. 98, 1358 (1993)
            Ca : Obtained from the Peterson Research Group Website (tyr0.chem.wsu.edu/~kipeters) Feb. 2017
                 J. Koput, K. A. Peterson, J. Phys. Chem. 106, 9595 (2002)
         Sc-Zn : Obtained from the ccRepo (grant-hill.group.shef.ac.uk/ccrepo) Feb. 2017
                 N. B. Balabanov, K. A. Peterson, J. Chem. Phys. 123, 064107 (2005)
                 N. B. Balabanov, K. A. Peterson, J. Chem. Phys. 125, 074110 (2006)
         Ga-Kr : Obtained from the ccRepo (grant-hill.group.shef.ac.uk/ccrepo) Feb. 2017
                 A. K. Wilson, D. E. Woon, K. A. Peterson, T. H. Dunning, Jr., J. Chem. Phys. 110, 7667 (1999)

================================================================================
                                        WARNINGS
                       Please study these warnings very carefully!
================================================================================


WARNING: No MP2 level density has been requested!
         To caclulate MP2 level properties use
         %mp2 Density relaxed end
         or
         %mp2 Density unrelaxed end

WARNING: Post HF methods need fully converged wavefunctions
  ===> : Setting SCFConvForced true
         You can overwrite this default with %scf ConvForced false 


INFO   : the flag for use of the SHARK integral package has been found!

================================================================================
                                       INPUT FILE
================================================================================
NAME = /scratch/allen/tmpyp4_amber_gaff2/2.Mdgx/conf11/conf11/Conf15.orca
|  1> ! PAL2
|  2> ! mp2 cc-pvdz TightSCF  NoKeepInts
|  3> 
|  4> %scf
|  5>   MaxCore 2000
|  6> end
|  7> %mp2
|  8>   MaxCore 2000
|  9> end
| 10> * xyz 0 1
| 11>    C       -3.05600         6.48400        -0.15400
| 12>    C        1.47400         4.04100         0.05700
| 13>    C       -2.80200         4.09300         0.04900
| 14>    C       -4.17600         4.02200         0.32400
| 15>    C       -4.93900         5.17200         0.34800
| 16>    C       -5.23000         7.59100         0.11000
| 17>    C        0.13200         4.30700         0.06100
| 18>    C       -0.56900         3.05600         0.04700
| 19>    C        1.64900         2.61800         0.02300
| 20>    C       -2.25300         5.36100        -0.19500
| 21>    N       -4.37800         6.38100         0.11500
| 22>    N        0.38800         2.06700         0.02500
| 23>    N       -2.01000         0.39500        -0.07500
| 24>    N       -0.38800        -2.07400        -0.02700
| 25>    N        2.01000        -0.40100         0.06500
| 26>    C       -1.96000         2.86100         0.02400
| 27>    C       -2.62300         1.61500        -0.01800
| 28>    C       -5.57300        -4.32900         1.06600
| 29>    C       -4.07300         1.47100         0.05600
| 30>    C       -4.10600        -2.75600        -0.02600
| 31>    C       -4.99500        -2.75700        -1.11100
| 32>    C       -6.13200        -3.54200        -1.07600
| 33>    C       -7.65100        -5.11300         0.04000
| 34>    C       -4.32400         0.14100         0.03700
| 35>    C       -3.02500        -0.52000        -0.04800
| 36>    C       -4.42200        -3.56600         1.07500
| 37>    N       -6.40700        -4.31300         0.00100
| 38>    C       -2.86700        -1.92200        -0.04000
| 39>    C       -1.65000        -2.62400        -0.02700
| 40>    C        3.56800        -6.14200        -1.04000
| 41>    C       -1.47600        -4.04900        -0.03400
| 42>    C        2.80300        -4.09900        -0.00800
| 43>    C        3.65700        -4.38400         1.06900
| 44>    C        4.42700        -5.53000         1.05900
| 45>    C        5.24500        -7.58800         0.01400
| 46>    C       -0.13400        -4.31500        -0.02200
| 47>    C        0.56800        -3.06400        -0.02700
| 48>    C        2.77500        -5.01200        -1.07400
| 49>    N        4.37600        -6.39100         0.01700
| 50>    C        1.95900        -2.86900        -0.00900
| 51>    C        2.62100        -1.62200         0.00900
| 52>    C        5.54300         4.33900        -1.13000
| 53>    C        4.07000        -1.47900        -0.09400
| 54>    C        4.10400         2.75100        -0.02100
| 55>    C        5.02700         2.72900         1.03600
| 56>    C        6.16600         3.50900         0.97800
| 57>    C        7.61900         5.15300        -0.11500
| 58>    C        4.32100        -0.14800        -0.09200
| 59>    C        3.02500         0.51400         0.01500
| 60>    C        4.38700         3.58200        -1.11500
| 61>    C        2.86600         1.91600         0.01300
| 62>    N        6.41300         4.29600        -0.09500
| 63>    H       -2.67400         7.48300        -0.32300
| 64>    H        2.27400         4.76600         0.08100
| 65>    H       -4.66000         3.07100         0.51100
| 66>    H       -6.00300         5.16600         0.54700
| 67>    H       -5.66400         7.71700        -0.88400
| 68>    H       -6.02000         7.46600         0.85100
| 69>    H       -4.61400         8.45400         0.36200
| 70>    H       -0.33200         5.28200         0.06900
| 71>    H       -1.19500         5.48400        -0.39900
| 72>    H        0.18200         1.07200         0.00500
| 73>    H       -0.18300        -1.08000        -0.02100
| 74>    H       -5.86400        -4.96200         1.89500
| 75>    H       -4.79400         2.27200         0.13900
| 76>    H       -4.80000        -2.16000        -1.99400
| 77>    H       -6.84100        -3.58200        -1.89300
| 78>    H       -8.42800        -4.53600         0.54600
| 79>    H       -7.95600        -5.33700        -0.98100
| 80>    H       -7.45600        -6.03700         0.58400
| 81>    H       -5.28700        -0.34400         0.10000
| 82>    H       -3.78000        -3.60100         1.94700
| 83>    H        3.58700        -6.86800        -1.84300
| 84>    H       -2.27600        -4.77400        -0.05000
| 85>    H        3.71400        -3.72400         1.92600
| 86>    H        5.09200        -5.79500         1.87100
| 87>    H        6.20500        -7.32900        -0.43900
| 88>    H        5.39300        -7.91700         1.04200
| 89>    H        4.75900        -8.37300        -0.56400
| 90>    H        0.32900        -5.29000        -0.00800
| 91>    H        2.14600        -4.84200        -1.94000
| 92>    H        5.80800         4.98600        -1.95600
| 93>    H        4.78800        -2.28100        -0.18500
| 94>    H        4.86000         2.11400         1.91200
| 95>    H        6.90100         3.53100         1.77200
| 96>    H        7.38300         6.10900         0.35600
| 97>    H        8.41400         4.65200         0.43500
| 98>    H        7.92100         5.31000        -1.15000
| 99>    H        5.28300         0.33600        -0.17900
|100>    H        3.72000         3.63200        -1.96700
|101> *
|102> 
|103>                          ****END OF INPUT****
================================================================================

                       ****************************
                       * Single Point Calculation *
                       ****************************

---------------------------------
CARTESIAN COORDINATES (ANGSTROEM)
---------------------------------
  C     -3.056000    6.484000   -0.154000
  C      1.474000    4.041000    0.057000
  C     -2.802000    4.093000    0.049000
  C     -4.176000    4.022000    0.324000
  C     -4.939000    5.172000    0.348000
  C     -5.230000    7.591000    0.110000
  C      0.132000    4.307000    0.061000
  C     -0.569000    3.056000    0.047000
  C      1.649000    2.618000    0.023000
  C     -2.253000    5.361000   -0.195000
  N     -4.378000    6.381000    0.115000
  N      0.388000    2.067000    0.025000
  N     -2.010000    0.395000   -0.075000
  N     -0.388000   -2.074000   -0.027000
  N      2.010000   -0.401000    0.065000
  C     -1.960000    2.861000    0.024000
  C     -2.623000    1.615000   -0.018000
  C     -5.573000   -4.329000    1.066000
  C     -4.073000    1.471000    0.056000
  C     -4.106000   -2.756000   -0.026000
  C     -4.995000   -2.757000   -1.111000
  C     -6.132000   -3.542000   -1.076000
  C     -7.651000   -5.113000    0.040000
  C     -4.324000    0.141000    0.037000
  C     -3.025000   -0.520000   -0.048000
  C     -4.422000   -3.566000    1.075000
  N     -6.407000   -4.313000    0.001000
  C     -2.867000   -1.922000   -0.040000
  C     -1.650000   -2.624000   -0.027000
  C      3.568000   -6.142000   -1.040000
  C     -1.476000   -4.049000   -0.034000
  C      2.803000   -4.099000   -0.008000
  C      3.657000   -4.384000    1.069000
  C      4.427000   -5.530000    1.059000
  C      5.245000   -7.588000    0.014000
  C     -0.134000   -4.315000   -0.022000
  C      0.568000   -3.064000   -0.027000
  C      2.775000   -5.012000   -1.074000
  N      4.376000   -6.391000    0.017000
  C      1.959000   -2.869000   -0.009000
  C      2.621000   -1.622000    0.009000
  C      5.543000    4.339000   -1.130000
  C      4.070000   -1.479000   -0.094000
  C      4.104000    2.751000   -0.021000
  C      5.027000    2.729000    1.036000
  C      6.166000    3.509000    0.978000
  C      7.619000    5.153000   -0.115000
  C      4.321000   -0.148000   -0.092000
  C      3.025000    0.514000    0.015000
  C      4.387000    3.582000   -1.115000
  C      2.866000    1.916000    0.013000
  N      6.413000    4.296000   -0.095000
  H     -2.674000    7.483000   -0.323000
  H      2.274000    4.766000    0.081000
  H     -4.660000    3.071000    0.511000
  H     -6.003000    5.166000    0.547000
  H     -5.664000    7.717000   -0.884000
  H     -6.020000    7.466000    0.851000
  H     -4.614000    8.454000    0.362000
  H     -0.332000    5.282000    0.069000
  H     -1.195000    5.484000   -0.399000
  H      0.182000    1.072000    0.005000
  H     -0.183000   -1.080000   -0.021000
  H     -5.864000   -4.962000    1.895000
  H     -4.794000    2.272000    0.139000
  H     -4.800000   -2.160000   -1.994000
  H     -6.841000   -3.582000   -1.893000
  H     -8.428000   -4.536000    0.546000
  H     -7.956000   -5.337000   -0.981000
  H     -7.456000   -6.037000    0.584000
  H     -5.287000   -0.344000    0.100000
  H     -3.780000   -3.601000    1.947000
  H      3.587000   -6.868000   -1.843000
  H     -2.276000   -4.774000   -0.050000
  H      3.714000   -3.724000    1.926000
  H      5.092000   -5.795000    1.871000
  H      6.205000   -7.329000   -0.439000
  H      5.393000   -7.917000    1.042000
  H      4.759000   -8.373000   -0.564000
  H      0.329000   -5.290000   -0.008000
  H      2.146000   -4.842000   -1.940000
  H      5.808000    4.986000   -1.956000
  H      4.788000   -2.281000   -0.185000
  H      4.860000    2.114000    1.912000
  H      6.901000    3.531000    1.772000
  H      7.383000    6.109000    0.356000
  H      8.414000    4.652000    0.435000
  H      7.921000    5.310000   -1.150000
  H      5.283000    0.336000   -0.179000
  H      3.720000    3.632000   -1.967000

----------------------------
CARTESIAN COORDINATES (A.U.)
----------------------------
  NO LB      ZA    FRAG     MASS         X           Y           Z
   0 C     6.0000    0    12.011   -5.775003   12.252984   -0.291018
   1 C     6.0000    0    12.011    2.785456    7.636383    0.107714
   2 C     6.0000    0    12.011   -5.295013    7.734649    0.092597
   3 C     6.0000    0    12.011   -7.891496    7.600479    0.612271
   4 C     6.0000    0    12.011   -9.333357    9.773664    0.657625
   5 C     6.0000    0    12.011   -9.883268   14.344911    0.207870
   6 C     6.0000    0    12.011    0.249444    8.139050    0.115273
   7 C     6.0000    0    12.011   -1.075254    5.775003    0.088817
   8 C     6.0000    0    12.011    3.116158    4.947303    0.043464
   9 C     6.0000    0    12.011   -4.257553   10.130822   -0.368497
  10 N     7.0000    0    14.007   -8.273221   12.058342    0.217319
  11 N     7.0000    0    14.007    0.733214    3.906064    0.047243
  12 N     7.0000    0    14.007   -3.798350    0.746442   -0.141729
  13 N     7.0000    0    14.007   -0.733214   -3.919292   -0.051023
  14 N     7.0000    0    14.007    3.798350   -0.757780    0.122832
  15 C     6.0000    0    12.011   -3.703863    5.406506    0.045353
  16 C     6.0000    0    12.011   -4.956752    3.051908   -0.034015
  17 C     6.0000    0    12.011  -10.531444   -8.180624    2.014448
  18 C     6.0000    0    12.011   -7.696855    2.779787    0.105825
  19 C     6.0000    0    12.011   -7.759216   -5.208085   -0.049133
  20 C     6.0000    0    12.011   -9.439182   -5.209975   -2.099486
  21 C     6.0000    0    12.011  -11.587801   -6.693410   -2.033345
  22 C     6.0000    0    12.011  -14.458295   -9.662170    0.075589
  23 C     6.0000    0    12.011   -8.171176    0.266451    0.069920
  24 C     6.0000    0    12.011   -5.716422   -0.982658   -0.090707
  25 C     6.0000    0    12.011   -8.356369   -6.738763    2.031456
  26 N     7.0000    0    14.007  -12.107475   -8.150389    0.001890
  27 C     6.0000    0    12.011   -5.417845   -3.632054   -0.075589
  28 C     6.0000    0    12.011   -3.118048   -4.958641   -0.051023
  29 C     6.0000    0    12.011    6.742543  -11.606698   -1.965315
  30 C     6.0000    0    12.011   -2.789236   -7.651501   -0.064251
  31 C     6.0000    0    12.011    5.296902   -7.745987   -0.015118
  32 C     6.0000    0    12.011    6.910728   -8.284559    2.020117
  33 C     6.0000    0    12.011    8.365818  -10.450186    2.001220
  34 C     6.0000    0    12.011    9.911614  -14.339242    0.026456
  35 C     6.0000    0    12.011   -0.253223   -8.154168   -0.041574
  36 C     6.0000    0    12.011    1.073364   -5.790121   -0.051023
  37 C     6.0000    0    12.011    5.243990   -9.471307   -2.029566
  38 N     7.0000    0    14.007    8.269442  -12.077240    0.032125
  39 C     6.0000    0    12.011    3.701973   -5.421624   -0.017008
  40 C     6.0000    0    12.011    4.952972   -3.065136    0.017008
  41 C     6.0000    0    12.011   10.474752    8.199522   -2.135391
  42 C     6.0000    0    12.011    7.691185   -2.794905   -0.177634
  43 C     6.0000    0    12.011    7.755436    5.198637   -0.039684
  44 C     6.0000    0    12.011    9.499653    5.157063    1.957756
  45 C     6.0000    0    12.011   11.652051    6.631049    1.848152
  46 C     6.0000    0    12.011   14.397823    9.737759   -0.217319
  47 C     6.0000    0    12.011    8.165507   -0.279679   -0.173855
  48 C     6.0000    0    12.011    5.716422    0.971319    0.028346
  49 C     6.0000    0    12.011    8.290229    6.768999   -2.107045
  50 C     6.0000    0    12.011    5.415955    3.620715    0.024566
  51 N     7.0000    0    14.007   12.118814    8.118263   -0.179524
  52 H     1.0000    0     1.008   -5.053128   14.140821   -0.610382
  53 H     1.0000    0     1.008    4.297237    9.006435    0.153068
  54 H     1.0000    0     1.008   -8.806124    5.803349    0.965650
  55 H     1.0000    0     1.008  -11.344026    9.762325    1.033680
  56 H     1.0000    0     1.008  -10.703409   14.583017   -1.670518
  57 H     1.0000    0     1.008  -11.376151   14.108695    1.608157
  58 H     1.0000    0     1.008   -8.719196   15.975745    0.684081
  59 H     1.0000    0     1.008   -0.627389    9.981533    0.130391
  60 H     1.0000    0     1.008   -2.258223   10.363258   -0.754001
  61 H     1.0000    0     1.008    0.343930    2.025786    0.009449
  62 H     1.0000    0     1.008   -0.345820   -2.040904   -0.039684
  63 H     1.0000    0     1.008  -11.081354   -9.376821    3.581031
  64 H     1.0000    0     1.008   -9.059347    4.293458    0.262672
  65 H     1.0000    0     1.008   -9.070685   -4.081808   -3.768114
  66 H     1.0000    0     1.008  -12.927616   -6.768999   -3.577252
  67 H     1.0000    0     1.008  -15.926612   -8.571798    1.031790
  68 H     1.0000    0     1.008  -15.034661  -10.085468   -1.853821
  69 H     1.0000    0     1.008  -14.089798  -11.408277    1.103600
  70 H     1.0000    0     1.008   -9.990982   -0.650066    0.188973
  71 H     1.0000    0     1.008   -7.143165   -6.804904    3.679297
  72 H     1.0000    0     1.008    6.778448  -12.978639   -3.482765
  73 H     1.0000    0     1.008   -4.301017   -9.021553   -0.094486
  74 H     1.0000    0     1.008    7.018443   -7.037340    3.639613
  75 H     1.0000    0     1.008    9.622485  -10.950963    3.535678
  76 H     1.0000    0     1.008   11.725751  -13.849803   -0.829590
  77 H     1.0000    0     1.008   10.191293  -14.960962    1.969095
  78 H     1.0000    0     1.008    8.993207  -15.822677   -1.065806
  79 H     1.0000    0     1.008    0.621720   -9.996651   -0.015118
  80 H     1.0000    0     1.008    4.055352   -9.150054   -3.666069
  81 H     1.0000    0     1.008   10.975529    9.422175   -3.696304
  82 H     1.0000    0     1.008    9.048009   -4.310465   -0.349599
  83 H     1.0000    0     1.008    9.184069    3.994881    3.613156
  84 H     1.0000    0     1.008   13.041000    6.672623    3.348595
  85 H     1.0000    0     1.008   13.951848   11.544337    0.672743
  86 H     1.0000    0     1.008   15.900156    8.791006    0.822031
  87 H     1.0000    0     1.008   14.968521   10.034446   -2.173185
  88 H     1.0000    0     1.008    9.983423    0.634948   -0.338261
  89 H     1.0000    0     1.008    7.029781    6.863485   -3.717091

--------------------------------
INTERNAL COORDINATES (ANGSTROEM)
--------------------------------
 C      0   0   0     0.000000000000     0.00000000     0.00000000
 C      1   0   0     5.151084351862     0.00000000     0.00000000
 C      1   2   0     2.413007666793    55.53098350     0.00000000
 C      3   1   2     1.403047397631    87.91100133   168.93217001
 C      4   3   1     1.380306125466   120.17077108     0.14657176
 C      5   4   3     2.448037172920   152.53399762     1.62730154
 C      2   1   3     1.368114030335    17.30557313   356.11304791
 C      7   2   1     1.434084376876   108.05010202   170.89891326
 C      2   1   3     1.434123425651   125.23504943     7.56835114
 C      1   2   3     1.381165811914    26.40207836   347.16531028
 N      1   2   3     1.353016629610   144.58916693    19.40228608
 N      9   2   1     1.376127174356   106.58526707   355.67160601
 N     12   9   2     2.925062050624   168.53581413   171.12065651
 N     13  12   9     2.954513327098    91.55032014    11.12112580
 N     14  13  12     2.925371258490    88.43092389   359.84326247
 C      8   7   2     1.404790019896   127.24786865   181.11170171
 C     13  12   9     1.366535034311    81.72106996   188.00453233
 C     14  13  12     5.758810554272    80.56209567   166.76250791
 C     17  13  12     1.459010623676   111.08861209   183.82872609
 C     18  14  13     2.412235892279    27.27532823    36.33507194
 C     20  18  14     1.402692767501    87.95206320   148.94598259
 C     21  20  18     1.382106725257   120.14573887   359.70382047
 C     18  14  13     2.446510985056   144.15733107    82.80075377
 C     19  17  13     1.353610726908   106.29293361   359.75308708
 C     13  12   9     1.366813447402   172.21332906    33.46711076
 C     18  14  13     1.380960173213    15.08449437   309.23336894
 N     22  21  20     1.352773077792   120.73759875     0.27865223
 C     25  13  17     1.410897586645   125.60330303   182.37774668
 C     14  13  12     1.376642291955    80.24689249   177.85461986
 C     14  13  12     5.764089607215   164.51507311   312.20821879
 C     29  14  13     1.435600919476   106.58649366   178.76395472
 C     30  14  13     2.413316804732    27.10625047    82.12560436
 C     32  30  14     1.403734305344    87.90059683   149.76154742
 C     33  32  30     1.380694028378   120.14881443   359.74174632
 C     34  33  32     2.448777858443   152.49203239     2.45173620
 C     31  29  14     1.368160809262   108.16950133     0.70383075
 C     14  13  12     1.376239804685   169.26375223   353.09862627
 C     30  14  13     1.380907310430    14.68948582   353.70041132
 N     34  33  32     1.352658863128   120.85575621     0.19603406
 C     37  14  29     1.404717053360   126.01551127   180.90772073
 C     15  14  13     1.366491126938    81.61824056   183.09049352
 C      2   1   3     4.249062720177   142.88765883   153.07438748
 C     41  15  14     1.459677704153   111.05201287   175.08990246
 C     42   2   1     2.412953791518    41.78584867   183.95198242
 C     44  42   2     1.403446472082    87.95153797   233.97558675
 C     45  44  42     1.381696421071   120.11137308     0.19721020
 C     42   2   1     2.450019795838   135.97209175    94.26683152
 C     43  41  15     1.354461516618   106.26758155     0.30894352
 C     15  14  13     1.367461151185   171.87382904   332.35056460
 C     42   2   1     1.381886391857    32.59078432   232.80726161
 C      9   2   1     1.404988612053   126.98745415   176.67594354
 N     42   2   1     1.352765315936   113.57249190   122.00342071
 H      1   2   3     1.082813926767    97.68368270   184.50516983
 H      2   1   3     1.079907866440   109.51117569   184.76264755
 H      4   3   1     1.083340205106   121.04907424   179.53950966
 H      5   4   3     1.082466165753   122.81473562   179.46794963
 H      6   5   4     1.091910252722   104.46424720   100.11062642
 H      6   5   4     1.090323805115    84.65059230   209.53566272
 H      6   5   4     1.089829803226   133.85256551   322.36637296
 H      7   2   1     1.079807853278   126.66122480   351.13732704
 H     60   7   2     1.002295864503   123.26439602   145.82262184
 H     12   9   2     1.016297692608   125.29023241   180.00180175
 H     14  13  12     1.014936943854    44.97226959   359.42596618
 H     18  14  13     1.082871645210   128.03556573   234.20482432
 H     55   4   3     0.891482473187   141.43473051   303.20881342
 H     21  20  18     1.083569563987   121.05669627   180.67006309
 H     22  21  20     1.082483256222   122.73097286   180.59748951
 H     23  18  14     1.092105306278   103.92715769   234.93429879
 H     23  18  14     1.088871893291   134.19244188    12.25587044
 H     23  18  14     1.089833473518    84.85857450   125.45241208
 H     24  19  17     1.080075460327   127.28078426   178.44613241
 H     26  18  14     1.083408048706   118.76995697   244.94906660
 H     30  14  13     1.082703098730   127.99711412   279.66882698
 H     31  29  14     1.079759695488   125.22293469   180.92530585
 H     33  32  30     1.083188810873   121.01964473   180.74284758
 H     34  33  32     1.082494341787   122.70821597   180.59516895
 H     35  34  33     1.092652735319   105.73575241    97.19771933
 H     35  34  33     1.089462711615    84.05943581   206.43036958
 H     35  34  33     1.089268102902   133.08365142   318.50306270
 H     36  31  29     1.079439669458   126.61599965   178.98859863
 H     38  30  73     1.083742127999   118.77264435   359.90091293
 H     42   2   1     1.082178358682   119.31790784   338.63495117
 H     43  41  15     1.080281907652   126.36969097   182.06329380
 H     45  44  42     1.083277434455   121.10105945   179.58025624
 H     46  45  44     1.082194529648   122.72144639   179.46906377
 H     47  42   2     1.091546151109   106.65128841   315.16475048
 H     47  42   2     1.088818625851   132.46019523    94.52397119
 H     47  42   2     1.089531091801    83.63838232   206.04504406
 H     48  43  41     1.080402239909   127.23657387   181.62955349
 H     50  42   2     1.083186502870   118.77001737    94.71359229

---------------------------
INTERNAL COORDINATES (A.U.)
---------------------------
 C      0   0   0     0.000000000000     0.00000000     0.00000000
 C      1   0   0     9.734138717747     0.00000000     0.00000000
 C      1   2   0     4.559923649290    55.53098350     0.00000000
 C      3   1   2     2.651375334434    87.91100133   168.93217001
 C      4   3   1     2.608400558105   120.17077108     0.14657176
 C      5   4   3     4.626119822478   152.53399762     1.62730154
 C      2   1   3     2.585360837309    17.30557313   356.11304791
 C      7   2   1     2.710026725231   108.05010202   170.89891326
 C      2   1   3     2.710100516721   125.23504943     7.56835114
 C      1   2   3     2.610025130052    26.40207836   347.16531028
 N      1   2   3     2.556830884603   144.58916693    19.40228608
 N      9   2   1     2.600503484979   106.58526707   355.67160601
 N     12   9   2     5.527566200405   168.53581413   171.12065651
 N     13  12   9     5.583221047236    91.55032014    11.12112580
 N     14  13  12     5.528150518591    88.43092389   359.84326247
 C      8   7   2     2.654668413270   127.24786865   181.11170171
 C     13  12   9     2.582376967257    81.72106996   188.00453233
 C     14  13  12    10.882574804710    80.56209567   166.76250791
 C     17  13  12     2.757130505230   111.08861209   183.82872609
 C     18  14  13     4.558465206823    27.27532823    36.33507194
 C     20  18  14     2.650705180609    87.95206320   148.94598259
 C     21  20  18     2.611803198586   120.14573887   359.70382047
 C     18  14  13     4.623235745386   144.15733107    82.80075377
 C     19  17  13     2.557953565794   106.29293361   359.75308708
 C     13  12   9     2.582903091751   172.21332906    33.46711076
 C     18  14  13     2.609636529225    15.08449437   309.23336894
 N     22  21  20     2.556370638369   120.73759875     0.27865223
 C     25  13  17     2.666210041769   125.60330303   182.37774668
 C     14  13  12     2.601476916169    80.24689249   177.85461986
 C     14  13  12    10.892550769017   164.51507311   312.20821879
 C     29  14  13     2.712892575415   106.58649366   178.76395472
 C     30  14  13     4.560507835333    27.10625047    82.12560436
 C     32  30  14     2.652673401891    87.90059683   149.76154742
 C     33  32  30     2.609133588376   120.14881443   359.74174632
 C     34  33  32     4.627519515267   152.49203239     2.45173620
 C     31  29  14     2.585449236669   108.16950133     0.70383075
 C     14  13  12     2.600716325456   169.26375223   353.09862627
 C     30  14  13     2.609536633043    14.68948582   353.70041132
 N     34  33  32     2.556154803934   120.85575621     0.19603406
 C     37  14  29     2.654530526499   126.01551127   180.90772073
 C     15  14  13     2.582293994346    81.61824056   183.09049352
 C      2   1   3     8.029564866989   142.88765883   153.07438748
 C     41  15  14     2.758391104639   111.05201287   175.08990246
 C     42   2   1     4.559821839776    41.78584867   183.95198242
 C     44  42   2     2.652129475853    87.95153797   233.97558675
 C     45  44  42     2.611027836043   120.11137308     0.19721020
 C     42   2   1     4.629866436820   135.97209175    94.26683152
 C     43  41  15     2.559561325344   106.26758155     0.30894352
 C     15  14  13     2.584127074516   171.87382904   332.35056460
 C     42   2   1     2.611386828803    32.59078432   232.80726161
 C      9   2   1     2.655043698059   126.98745415   176.67594354
 N     42   2   1     2.556355970587   113.57249190   122.00342071
 H      1   2   3     2.046221775585    97.68368270   184.50516983
 H      2   1   3     2.040730117440   109.51117569   184.76264755
 H      4   3   1     2.047216297517   121.04907424   179.53950966
 H      5   4   3     2.045564602509   122.81473562   179.46794963
 H      6   5   4     2.063411340466   104.46424720   100.11062642
 H      6   5   4     2.060413388962    84.65059230   209.53566272
 H      6   5   4     2.059479860683   133.85256551   322.36637296
 H      7   2   1     2.040541119952   126.66122480   351.13732704
 H     60   7   2     1.894064689073   123.26439602   145.82262184
 H     12   9   2     1.920524309565   125.29023241   180.00180175
 H     14  13  12     1.917952867083    44.97226959   359.42596618
 H     18  14  13     2.046330847636   128.03556573   234.20482432
 H     55   4   3     1.684657727515   141.43473051   303.20881342
 H     21  20  18     2.047649722989   121.05669627   180.67006309
 H     22  21  20     2.045596898814   122.73097286   180.59748951
 H     23  18  14     2.063779938267   103.92715769   234.93429879
 H     23  18  14     2.057669673245   134.19244188    12.25587044
 H     23  18  14     2.059486796529    84.85857450   125.45241208
 H     24  19  17     2.041046823986   127.28078426   178.44613241
 H     26  18  14     2.047344503340   118.76995697   244.94906660
 H     30  14  13     2.046012340948   127.99711412   279.66882698
 H     31  29  14     2.040450114918   125.22293469   180.92530585
 H     33  32  30     2.046930203877   121.01964473   180.74284758
 H     34  33  32     2.045617847496   122.70821597   180.59516895
 H     35  34  33     2.064814429233   105.73575241    97.19771933
 H     35  34  33     2.058786158072    84.05943581   206.43036958
 H     35  34  33     2.058418400901   133.08365142   318.50306270
 H     36  31  29     2.039845353366   126.61599965   178.98859863
 H     38  30  73     2.047975821711   118.77264435   359.90091293
 H     42   2   1     2.045020725966   119.31790784   338.63495117
 H     43  41  15     2.041436952892   126.36969097   182.06329380
 H     45  44  42     2.047097678177   121.10105945   179.58025624
 H     46  45  44     2.045051284662   122.72144639   179.46906377
 H     47  42   2     2.062723288131   106.65128841   315.16475048
 H     47  42   2     2.057569012371   132.46019523    94.52397119
 H     47  42   2     2.058915377895    83.63838232   206.04504406
 H     48  43  41     2.041664347903   127.23657387   181.62955349
 H     50  42   2     2.046925842384   118.77001737    94.71359229

---------------------
BASIS SET INFORMATION
---------------------
There are 3 groups of distinct atoms

 Group   1 Type C   : 17s4p1d contracted to 3s2p1d pattern {881/31/1}
 Group   2 Type N   : 17s4p1d contracted to 3s2p1d pattern {881/31/1}
 Group   3 Type H   : 4s1p contracted to 2s1p pattern {31/1}

Atom   0C    basis set group =>   1
Atom   1N    basis set group =>   2
Atom   2C    basis set group =>   1
Atom   3N    basis set group =>   2
Atom   4C    basis set group =>   1
Atom   5N    basis set group =>   2
Atom   6C    basis set group =>   1
Atom   7N    basis set group =>   2
Atom   8C    basis set group =>   1
Atom   9N    basis set group =>   2
Atom  10C    basis set group =>   1
Atom  11N    basis set group =>   2
Atom  12C    basis set group =>   1
Atom  13N    basis set group =>   2
Atom  14C    basis set group =>   1
Atom  15N    basis set group =>   2
Atom  16C    basis set group =>   1
Atom  17C    basis set group =>   1
Atom  18C    basis set group =>   1
Atom  19C    basis set group =>   1
Atom  20C    basis set group =>   1
Atom  21C    basis set group =>   1
Atom  22C    basis set group =>   1
Atom  23C    basis set group =>   1
Atom  24C    basis set group =>   1
Atom  25C    basis set group =>   1
Atom  26C    basis set group =>   1
Atom  27C    basis set group =>   1
Atom  28C    basis set group =>   1
Atom  29C    basis set group =>   1
Atom  30C    basis set group =>   1
Atom  31C    basis set group =>   1
Atom  32C    basis set group =>   1
Atom  33C    basis set group =>   1
Atom  34C    basis set group =>   1
Atom  35C    basis set group =>   1
Atom  36C    basis set group =>   1
Atom  37C    basis set group =>   1
Atom  38C    basis set group =>   1
Atom  39C    basis set group =>   1
Atom  40C    basis set group =>   1
Atom  41C    basis set group =>   1
Atom  42C    basis set group =>   1
Atom  43C    basis set group =>   1
Atom  44C    basis set group =>   1
Atom  45C    basis set group =>   1
Atom  46C    basis set group =>   1
Atom  47C    basis set group =>   1
Atom  48C    basis set group =>   1
Atom  49C    basis set group =>   1
Atom  50C    basis set group =>   1
Atom  51C    basis set group =>   1
Atom  52H    basis set group =>   3
Atom  53H    basis set group =>   3
Atom  54H    basis set group =>   3
Atom  55H    basis set group =>   3
Atom  56H    basis set group =>   3
Atom  57H    basis set group =>   3
Atom  58H    basis set group =>   3
Atom  59H    basis set group =>   3
Atom  60H    basis set group =>   3
Atom  61H    basis set group =>   3
Atom  62H    basis set group =>   3
Atom  63H    basis set group =>   3
Atom  64H    basis set group =>   3
Atom  65H    basis set group =>   3
Atom  66H    basis set group =>   3
Atom  67H    basis set group =>   3
Atom  68H    basis set group =>   3
Atom  69H    basis set group =>   3
Atom  70H    basis set group =>   3
Atom  71H    basis set group =>   3
Atom  72H    basis set group =>   3
Atom  73H    basis set group =>   3
Atom  74H    basis set group =>   3
Atom  75H    basis set group =>   3
Atom  76H    basis set group =>   3
Atom  77H    basis set group =>   3
Atom  78H    basis set group =>   3
Atom  79H    basis set group =>   3
Atom  80H    basis set group =>   3
Atom  81H    basis set group =>   3
Atom  82H    basis set group =>   3
Atom  83H    basis set group =>   3
Atom  84H    basis set group =>   3
Atom  85H    basis set group =>   3
Atom  86H    basis set group =>   3
Atom  87H    basis set group =>   3
Atom  88H    basis set group =>   3
Atom  89H    basis set group =>   3


           ************************************************************
           *        Program running with 16 parallel MPI-processes    *
           *              working on a common directory               *
           ************************************************************
------------------------------------------------------------------------------
                           ORCA GTO INTEGRAL CALCULATION
------------------------------------------------------------------------------
------------------------------------------------------------------------------
                   ___                                                        
                  /   \      - P O W E R E D   B Y -                         
                 /     \                                                     
                 |  |  |   _    _      __       _____    __    __             
                 |  |  |  | |  | |    /  \     |  _  \  |  |  /  |          
                  \  \/   | |  | |   /    \    | | | |  |  | /  /          
                 / \  \   | |__| |  /  /\  \   | |_| |  |  |/  /          
                |  |  |   |  __  | /  /__\  \  |    /   |      \           
                |  |  |   | |  | | |   __   |  |    \   |  |\   \          
                \     /   | |  | | |  |  |  |  | |\  \  |  | \   \       
                 \___/    |_|  |_| |__|  |__|  |_| \__\ |__|  \__/        
                                                                              
                      - O R C A' S   B I G   F R I E N D -                    
                                      &                                       
                       - I N T E G R A L  F E E D E R -                       
                                                                              
 v1 FN, 2020, v2 2021                                                         
------------------------------------------------------------------------------


Reading SHARK input file /scratch/allen/tmpyp4_amber_gaff2/conf1/conf1/Conf15.orca.SHARKINP.tmp ... ok
----------------------
SHARK INTEGRAL PACKAGE
----------------------

Number of atoms                             ...     90
Number of basis functions                   ...   1230
Number of shells                            ...    738
Maximum angular momentum                    ...      2
Integral batch strategy                     ... SHARK/LIBINT Hybrid
RI-J (if used) integral strategy            ... SPLIT-RIJ (Revised 2003 algorithm where possible)
Printlevel                                  ...      1
Contraction scheme used                     ... PARTIAL GENERAL contraction
Coulomb Range Separation                    ... NOT USED
Exchange Range Separation                   ... NOT USED
Finite Nucleus Model                        ... NOT USED
Auxiliary Coulomb fitting basis             ... NOT available
Auxiliary J/K fitting basis                 ... NOT available
Auxiliary Correlation fitting basis         ... NOT available
Auxiliary 'external' fitting basis          ... NOT available
Integral threshold                          ...     2.500000e-11
Primitive cut-off                           ...     2.500000e-12
Primitive pair pre-selection threshold      ...     2.500000e-12

Calculating pre-screening integrals         ... done (  0.1 sec) Dimension = 738
Calculating pre-screening integrals (ORCA)  ... done (  0.3 sec) Dimension = 426
Organizing shell pair data                  ... done (  0.5 sec)
Shell pair information
Total number of shell pairs                 ...    272691
Shell pairs after pre-screening             ...     71729
Total number of primitive shell pairs       ...    422091
Primitive shell pairs kept                  ...     92628
          la=0 lb=0:  29445 shell pairs
          la=1 lb=0:  26033 shell pairs
          la=1 lb=1:   4703 shell pairs
          la=2 lb=0:   7891 shell pairs
          la=2 lb=1:   3128 shell pairs
          la=2 lb=2:    529 shell pairs

Calculating one electron integrals          ... done (  0.2 sec)
Calculating Nuclear repulsion               ... done (  0.0 sec) ENN=   6234.976827158639 Eh

SHARK setup successfully completed in   1.7 seconds

Maximum memory used throughout the entire GTOINT-calculation: 99.1 MB


           ************************************************************
           *        Program running with 16 parallel MPI-processes    *
           *              working on a common directory               *
           ************************************************************
-------------------------------------------------------------------------------
                                 ORCA SCF
-------------------------------------------------------------------------------

------------
SCF SETTINGS
------------
Hamiltonian:
 Ab initio Hamiltonian  Method          .... Hartree-Fock(GTOs)


General Settings:
 Integral files         IntName         .... /scratch/allen/tmpyp4_amber_gaff2/conf1/conf1/Conf15.orca
 Hartree-Fock type      HFTyp           .... RHF
 Total Charge           Charge          ....    0
 Multiplicity           Mult            ....    1
 Number of Electrons    NEL             ....  358
 Basis Dimension        Dim             ....  918
 Nuclear Repulsion      ENuc            ....   6234.9768271586 Eh

Convergence Acceleration:
 DIIS                   CNVDIIS         .... on
   Start iteration      DIISMaxIt       ....    12
   Startup error        DIISStart       ....  0.200000
   # of expansion vecs  DIISMaxEq       ....     5
   Bias factor          DIISBfac        ....   1.050
   Max. coefficient     DIISMaxC        ....  10.000
 Trust-Rad. Augm. Hess. CNVTRAH         .... auto
   Auto Start mean grad. ratio tolernc. ....  1.125000
   Auto Start start iteration           ....    20
   Auto Start num. interpolation iter.  ....    10
   Max. Number of Micro iterations      ....    16
   Max. Number of Macro iterations      .... Maxiter - #DIIS iter
   Number of Davidson start vectors     ....     2
   Converg. threshold I  (grad. norm)   ....   1.000e-05
   Converg. threshold II (energy diff.) ....   1.000e-08
   Grad. Scal. Fac. for Micro threshold ....   0.100
   Minimum threshold for Micro iter.    ....   0.010
   NR start threshold (gradient norm)   ....   0.001
   Initial trust radius                 ....   0.400
   Minimum AH scaling param. (alpha)    ....   1.000
   Maximum AH scaling param. (alpha)    .... 1000.000
   Orbital update algorithm             .... Taylor
   White noise on init. David. guess    .... on
   Maximum white noise                  ....   0.010
   Quad. conv. algorithm                .... NR
 SOSCF                  CNVSOSCF        .... on
   Start iteration      SOSCFMaxIt      ....   150
   Startup grad/error   SOSCFStart      ....  0.003300
 Level Shifting         CNVShift        .... on
   Level shift para.    LevelShift      ....    0.2500
   Turn off err/grad.   ShiftErr        ....    0.0010
 Zerner damping         CNVZerner       .... off
 Static damping         CNVDamp         .... on
   Fraction old density DampFac         ....    0.7000
   Max. Damping (<1)    DampMax         ....    0.9800
   Min. Damping (>=0)   DampMin         ....    0.0000
   Turn off err/grad.   DampErr         ....    0.1000
 Fernandez-Rico         CNVRico         .... off

SCF Procedure:
 Maximum # iterations   MaxIter         ....   125
 SCF integral mode      SCFMode         .... Direct
   Integral package                     .... SHARK and LIBINT hybrid scheme
 Reset frequency        DirectResetFreq ....    20
 Integral Threshold     Thresh          ....  2.500e-11 Eh
 Primitive CutOff       TCut            ....  2.500e-12 Eh

Convergence Tolerance:
 Convergence Check Mode ConvCheckMode   .... Total+1el-Energy
 Convergence forced     ConvForced      .... 1
 Energy Change          TolE            ....  1.000e-08 Eh
 1-El. energy change                    ....  1.000e-05 Eh
 Orbital Gradient       TolG            ....  1.000e-05
 Orbital Rotation angle TolX            ....  1.000e-05
 DIIS Error             TolErr          ....  5.000e-07


Diagonalization of the overlap matrix:
Smallest eigenvalue                        ... 1.837e-04
Time for diagonalization                   ...    0.402 sec
Threshold for overlap eigenvalues          ... 1.000e-08
Number of eigenvalues below threshold      ... 0
Time for construction of square roots      ...    0.193 sec
Total time needed                          ...    0.600 sec

Time for model grid setup =    1.003 sec

------------------------------
INITIAL GUESS: MODEL POTENTIAL
------------------------------
Loading Hartree-Fock densities                     ... done
Calculating cut-offs                               ... done
Initializing the effective Hamiltonian             ... done
Setting up the integral package (SHARK)            ... done
Starting the Coulomb interaction                   ... done (   1.1 sec)
Reading the grid                                   ... done
Mapping shells                                     ... done
Starting the XC term evaluation                    ... done (   0.2 sec)
Transforming the Hamiltonian                       ... done (   0.2 sec)
Diagonalizing the Hamiltonian                      ... done (   0.3 sec)
Back transforming the eigenvectors                 ... done (   0.1 sec)
Now organizing SCF variables                       ... done
                      ------------------
                      INITIAL GUESS DONE (   2.9 sec)
                      ------------------
--------------
SCF ITERATIONS
--------------
ITER       Energy         Delta-E        Max-DP      RMS-DP      [F,P]     Damp
               ***  Starting incremental Fock matrix formation  ***
  0  -2121.5997010232   0.000000000000 0.07433919  0.00128136  0.2312469 0.7000
  1  -2122.2418326081  -0.642131584851 0.06972882  0.00104836  0.1434923 0.7000
                               ***Turning on DIIS***
  2  -2122.6425047395  -0.400672131356 0.13205675  0.00236832  0.0803032 0.0000
  3  -2118.0265051998   4.615999539616 0.09370141  0.00073092  0.0434646 0.0000
  4  -2123.3397034654  -5.313198265596 0.02664316  0.00023754  0.0092605 0.0000
  5  -2123.4708360338  -0.131132568349 0.01235266  0.00013614  0.0048353 0.0000
  6  -2123.4548962401   0.015939793697 0.00755908  0.00008696  0.0022419 0.0000
  7  -2123.5470708684  -0.092174628346 0.00457817  0.00006809  0.0016167 0.0000
  8  -2123.5536151165  -0.006544248114 0.00357574  0.00006488  0.0015147 0.0000
  9  -2123.5270323814   0.026582735103 0.00265277  0.00004619  0.0012183 0.0000
 10  -2123.5345632232  -0.007530841727 0.00532465  0.00009660  0.0009539 0.0000
                      *** Initiating the SOSCF procedure ***
                           *** Shutting down DIIS ***
                      *** Re-Reading the Fockian *** 
                      *** Removing any level shift *** 
ITER      Energy       Delta-E        Grad      Rot      Max-DP    RMS-DP
 11  -2123.42908025   0.1054829745  0.000180  0.000180  0.000246  0.000005
               *** Restarting incremental Fock matrix formation ***
 12  -2123.49474233  -0.0656620799  0.000921  0.006166  0.001476  0.000035
 13  -2123.49485424  -0.0001119073  0.001135  0.030630  0.006679  0.000138
 14  -2123.49504053  -0.0001862952  0.000384  0.001767  0.000594  0.000012
 15  -2123.49505584  -0.0000153040  0.000193  0.002457  0.000522  0.000014
 16  -2123.49506305  -0.0000072152  0.000135  0.002163  0.000473  0.000009
 17  -2123.49506584  -0.0000027916  0.000136  0.002151  0.000310  0.000008
 18  -2123.49506723  -0.0000013901  0.000062  0.001287  0.000231  0.000005
 19  -2123.49506808  -0.0000008489  0.000047  0.001796  0.000273  0.000006
 20  -2123.49506863  -0.0000005474  0.000029  0.001089  0.000163  0.000004
 21  -2123.49506889  -0.0000002646  0.000028  0.001306  0.000191  0.000004
 22  -2123.49506915  -0.0000002565  0.000026  0.001064  0.000162  0.000003
 23  -2123.49506930  -0.0000001513  0.000016  0.000416  0.000070  0.000002
 24  -2123.49506936  -0.0000000570  0.000009  0.000271  0.000057  0.000001
 25  -2123.49506939  -0.0000000314  0.000009  0.000142  0.000044  0.000001
 26  -2123.49506940  -0.0000000116  0.000006  0.000087  0.000030  0.000000
 27  -2123.49506940   0.0000000020  0.000003  0.000063  0.000021  0.000000
                  ***Gradient check signals convergence***
              ***Rediagonalizing the Fockian in SOSCF/NRSCF***

               *****************************************************
               *                     SUCCESS                       *
               *           SCF CONVERGED AFTER  28 CYCLES          *
               *****************************************************


----------------
TOTAL SCF ENERGY
----------------

Total Energy       :        -2123.49506940 Eh          -57783.23848 eV

Components:
Nuclear Repulsion  :         6234.97682716 Eh          169662.34493 eV
Electronic Energy  :        -8358.47189656 Eh         -227445.58342 eV
One Electron Energy:       -15310.44416369 Eh         -416618.36616 eV
Two Electron Energy:         6951.97226713 Eh          189172.78275 eV

Virial components:
Potential Energy   :        -4246.03227794 Eh         -115540.41224 eV
Kinetic Energy     :         2122.53720854 Eh           57757.17376 eV
Virial Ratio       :            2.00045128


---------------
SCF CONVERGENCE
---------------

  Last Energy change         ...    1.7335e-09  Tolerance :   1.0000e-08
  Last MAX-Density change    ...    9.5821e-06  Tolerance :   1.0000e-07
  Last RMS-Density change    ...    1.7957e-07  Tolerance :   5.0000e-09
  Last Orbital Gradient      ...    1.9472e-06  Tolerance :   1.0000e-05
  Last Orbital Rotation      ...    3.5879e-05  Tolerance :   1.0000e-05

             **** THE GBW FILE WAS UPDATED (/scratch/allen/tmpyp4_amber_gaff2/conf1/conf1/Conf15.orca.gbw) ****
             **** DENSITY /scratch/allen/tmpyp4_amber_gaff2/conf1/conf1/Conf15.orca.scfp WAS UPDATED ****
             **** ENERGY FILE WAS UPDATED (/scratch/allen/tmpyp4_amber_gaff2/conf1/conf1/Conf15.orca.en.tmp) ****
             **** THE GBW FILE WAS UPDATED (/scratch/allen/tmpyp4_amber_gaff2/conf1/conf1/Conf15.orca.gbw) ****
             **** DENSITY /scratch/allen/tmpyp4_amber_gaff2/conf1/conf1/Conf15.orca.scfp WAS UPDATED ****
----------------
ORBITAL ENERGIES
----------------

  NO   OCC          E(Eh)            E(eV) 
   0   2.0000     -15.679768      -426.6682 
   1   2.0000     -15.632962      -425.3945 
   2   2.0000     -15.632813      -425.3905 
   3   2.0000     -15.588231      -424.1773 
   4   2.0000     -15.524856      -422.4528 
   5   2.0000     -15.515634      -422.2019 
   6   2.0000     -15.454106      -420.5276 
   7   2.0000     -15.439428      -420.1282 
   8   2.0000     -11.329265      -308.2850 
   9   2.0000     -11.328493      -308.2640 
  10   2.0000     -11.327920      -308.2484 
  11   2.0000     -11.299067      -307.4633 
  12   2.0000     -11.298603      -307.4506 
  13   2.0000     -11.292177      -307.2758 
  14   2.0000     -11.292043      -307.2721 
  15   2.0000     -11.287489      -307.1482 
  16   2.0000     -11.285538      -307.0951 
  17   2.0000     -11.282015      -306.9992 
  18   2.0000     -11.270010      -306.6726 
  19   2.0000     -11.263351      -306.4914 
  20   2.0000     -11.262348      -306.4641 
  21   2.0000     -11.252045      -306.1837 
  22   2.0000     -11.248578      -306.0894 
  23   2.0000     -11.237683      -305.7929 
  24   2.0000     -11.236625      -305.7641 
  25   2.0000     -11.230577      -305.5995 
  26   2.0000     -11.230422      -305.5953 
  27   2.0000     -11.230262      -305.5910 
  28   2.0000     -11.229494      -305.5701 
  29   2.0000     -11.210627      -305.0567 
  30   2.0000     -11.209337      -305.0216 
  31   2.0000     -11.194264      -304.6114 
  32   2.0000     -11.191572      -304.5381 
  33   2.0000     -11.191489      -304.5359 
  34   2.0000     -11.188896      -304.4653 
  35   2.0000     -11.188387      -304.4515 
  36   2.0000     -11.187476      -304.4267 
  37   2.0000     -11.176846      -304.1375 
  38   2.0000     -11.174418      -304.0714 
  39   2.0000     -11.171427      -303.9900 
  40   2.0000     -11.171413      -303.9896 
  41   2.0000     -11.171059      -303.9800 
  42   2.0000     -11.167835      -303.8922 
  43   2.0000     -11.162306      -303.7418 
  44   2.0000     -11.160360      -303.6888 
  45   2.0000     -11.157230      -303.6037 
  46   2.0000     -11.156245      -303.5769 
  47   2.0000     -11.152196      -303.4667 
  48   2.0000     -11.147279      -303.3329 
  49   2.0000     -11.135413      -303.0100 
  50   2.0000     -11.129090      -302.8379 
  51   2.0000     -11.116937      -302.5072 
  52   2.0000      -1.360363       -37.0173 
  53   2.0000      -1.320585       -35.9349 
  54   2.0000      -1.320223       -35.9251 
  55   2.0000      -1.280617       -34.8474 
  56   2.0000      -1.225896       -33.3583 
  57   2.0000      -1.210419       -32.9372 
  58   2.0000      -1.173816       -31.9412 
  59   2.0000      -1.150462       -31.3057 
  60   2.0000      -1.143658       -31.1205 
  61   2.0000      -1.110410       -30.2158 
  62   2.0000      -1.108785       -30.1716 
  63   2.0000      -1.082056       -29.4442 
  64   2.0000      -1.077515       -29.3207 
  65   2.0000      -1.045186       -28.4410 
  66   2.0000      -1.044454       -28.4210 
  67   2.0000      -1.041120       -28.3303 
  68   2.0000      -1.014948       -27.6181 
  69   2.0000      -1.013636       -27.5824 
  70   2.0000      -1.009059       -27.4579 
  71   2.0000      -0.993282       -27.0286 
  72   2.0000      -0.985717       -26.8227 
  73   2.0000      -0.981643       -26.7119 
  74   2.0000      -0.973201       -26.4821 
  75   2.0000      -0.962415       -26.1886 
  76   2.0000      -0.954918       -25.9846 
  77   2.0000      -0.945992       -25.7417 
  78   2.0000      -0.938180       -25.5292 
  79   2.0000      -0.917050       -24.9542 
  80   2.0000      -0.910510       -24.7762 
  81   2.0000      -0.897107       -24.4115 
  82   2.0000      -0.876781       -23.8584 
  83   2.0000      -0.871656       -23.7190 
  84   2.0000      -0.871047       -23.7024 
  85   2.0000      -0.860219       -23.4078 
  86   2.0000      -0.844229       -22.9726 
  87   2.0000      -0.835996       -22.7486 
  88   2.0000      -0.828044       -22.5322 
  89   2.0000      -0.796607       -21.6768 
  90   2.0000      -0.789209       -21.4755 
  91   2.0000      -0.765917       -20.8417 
  92   2.0000      -0.752904       -20.4875 
  93   2.0000      -0.733546       -19.9608 
  94   2.0000      -0.727150       -19.7868 
  95   2.0000      -0.724357       -19.7108 
  96   2.0000      -0.719441       -19.5770 
  97   2.0000      -0.717171       -19.5152 
  98   2.0000      -0.713431       -19.4135 
  99   2.0000      -0.698368       -19.0036 
 100   2.0000      -0.697975       -18.9929 
 101   2.0000      -0.693726       -18.8772 
 102   2.0000      -0.685277       -18.6473 
 103   2.0000      -0.684331       -18.6216 
 104   2.0000      -0.678669       -18.4675 
 105   2.0000      -0.674572       -18.3560 
 106   2.0000      -0.672674       -18.3044 
 107   2.0000      -0.660642       -17.9770 
 108   2.0000      -0.658119       -17.9083 
 109   2.0000      -0.652822       -17.7642 
 110   2.0000      -0.652025       -17.7425 
 111   2.0000      -0.646145       -17.5825 
 112   2.0000      -0.645505       -17.5651 
 113   2.0000      -0.637573       -17.3493 
 114   2.0000      -0.636140       -17.3103 
 115   2.0000      -0.628505       -17.1025 
 116   2.0000      -0.623141       -16.9565 
 117   2.0000      -0.620955       -16.8970 
 118   2.0000      -0.612945       -16.6791 
 119   2.0000      -0.612332       -16.6624 
 120   2.0000      -0.611505       -16.6399 
 121   2.0000      -0.611254       -16.6331 
 122   2.0000      -0.601469       -16.3668 
 123   2.0000      -0.588356       -16.0100 
 124   2.0000      -0.581450       -15.8221 
 125   2.0000      -0.580845       -15.8056 
 126   2.0000      -0.580062       -15.7843 
 127   2.0000      -0.571230       -15.5440 
 128   2.0000      -0.567639       -15.4462 
 129   2.0000      -0.559998       -15.2383 
 130   2.0000      -0.554323       -15.0839 
 131   2.0000      -0.547918       -14.9096 
 132   2.0000      -0.542678       -14.7670 
 133   2.0000      -0.540720       -14.7137 
 134   2.0000      -0.538245       -14.6464 
 135   2.0000      -0.536472       -14.5981 
 136   2.0000      -0.531340       -14.4585 
 137   2.0000      -0.518947       -14.1213 
 138   2.0000      -0.516466       -14.0538 
 139   2.0000      -0.514913       -14.0115 
 140   2.0000      -0.512412       -13.9435 
 141   2.0000      -0.510208       -13.8835 
 142   2.0000      -0.507977       -13.8228 
 143   2.0000      -0.505146       -13.7457 
 144   2.0000      -0.502610       -13.6767 
 145   2.0000      -0.495825       -13.4921 
 146   2.0000      -0.488654       -13.2970 
 147   2.0000      -0.481440       -13.1006 
 148   2.0000      -0.477583       -12.9957 
 149   2.0000      -0.467759       -12.7284 
 150   2.0000      -0.466402       -12.6914 
 151   2.0000      -0.456879       -12.4323 
 152   2.0000      -0.451841       -12.2952 
 153   2.0000      -0.444788       -12.1033 
 154   2.0000      -0.438399       -11.9295 
 155   2.0000      -0.427486       -11.6325 
 156   2.0000      -0.409762       -11.1502 
 157   2.0000      -0.399466       -10.8700 
 158   2.0000      -0.390430       -10.6241 
 159   2.0000      -0.387650       -10.5485 
 160   2.0000      -0.378776       -10.3070 
 161   2.0000      -0.375098       -10.2069 
 162   2.0000      -0.367310        -9.9950 
 163   2.0000      -0.356750        -9.7077 
 164   2.0000      -0.355746        -9.6804 
 165   2.0000      -0.342161        -9.3107 
 166   2.0000      -0.337670        -9.1885 
 167   2.0000      -0.324459        -8.8290 
 168   2.0000      -0.321367        -8.7449 
 169   2.0000      -0.305057        -8.3010 
 170   2.0000      -0.299521        -8.1504 
 171   2.0000      -0.285591        -7.7713 
 172   2.0000      -0.278851        -7.5879 
 173   2.0000      -0.263925        -7.1818 
 174   2.0000      -0.241560        -6.5732 
 175   2.0000      -0.189962        -5.1691 
 176   2.0000      -0.181054        -4.9267 
 177   2.0000      -0.079401        -2.1606 
 178   2.0000      -0.059710        -1.6248 
 179   0.0000       0.028341         0.7712 
 180   0.0000       0.065331         1.7778 
 181   0.0000       0.090197         2.4544 
 182   0.0000       0.106269         2.8917 
 183   0.0000       0.115433         3.1411 
 184   0.0000       0.137161         3.7323 
 185   0.0000       0.139293         3.7903 
 186   0.0000       0.140954         3.8356 
 187   0.0000       0.164024         4.4633 
 188   0.0000       0.165093         4.4924 
 189   0.0000       0.165693         4.5087 
 190   0.0000       0.173462         4.7201 
 191   0.0000       0.180380         4.9084 
 192   0.0000       0.183782         5.0010 
 193   0.0000       0.189160         5.1473 
 194   0.0000       0.204814         5.5733 
 195   0.0000       0.205622         5.5953 
 196   0.0000       0.208030         5.6608 
 197   0.0000       0.208880         5.6839 
 198   0.0000       0.216550         5.8926 
 199   0.0000       0.228644         6.2217 
 200   0.0000       0.233760         6.3609 
 201   0.0000       0.233791         6.3618 
 202   0.0000       0.238941         6.5019 
 203   0.0000       0.239764         6.5243 
 204   0.0000       0.246258         6.7010 
 205   0.0000       0.255066         6.9407 
 206   0.0000       0.256237         6.9726 
 207   0.0000       0.257678         7.0118 
 208   0.0000       0.258888         7.0447 
 209   0.0000       0.260472         7.0878 
 210   0.0000       0.263418         7.1680 
 211   0.0000       0.265647         7.2286 
 212   0.0000       0.268667         7.3108 
 213   0.0000       0.271480         7.3874 
 214   0.0000       0.272880         7.4254 
 215   0.0000       0.275788         7.5046 
 216   0.0000       0.277855         7.5608 
 217   0.0000       0.282855         7.6969 
 218   0.0000       0.286689         7.8012 
 219   0.0000       0.287441         7.8217 
 220   0.0000       0.289925         7.8893 
 221   0.0000       0.292077         7.9478 
 222   0.0000       0.294933         8.0255 
 223   0.0000       0.296649         8.0722 
 224   0.0000       0.297146         8.0858 
 225   0.0000       0.300927         8.1886 
 226   0.0000       0.305031         8.3003 
 227   0.0000       0.308567         8.3965 
 228   0.0000       0.313477         8.5301 
 229   0.0000       0.324494         8.8299 
 230   0.0000       0.328014         8.9257 
 231   0.0000       0.334912         9.1134 
 232   0.0000       0.343371         9.3436 
 233   0.0000       0.356012         9.6876 
 234   0.0000       0.365336         9.9413 
 235   0.0000       0.368184        10.0188 
 236   0.0000       0.376557        10.2467 
 237   0.0000       0.390388        10.6230 
 238   0.0000       0.395645        10.7660 
 239   0.0000       0.400431        10.8963 
 240   0.0000       0.407224        11.0811 
 241   0.0000       0.411192        11.1891 
 242   0.0000       0.414414        11.2768 
 243   0.0000       0.418229        11.3806 
 244   0.0000       0.429625        11.6907 
 245   0.0000       0.434678        11.8282 
 246   0.0000       0.438161        11.9230 
 247   0.0000       0.440510        11.9869 
 248   0.0000       0.442387        12.0380 
 249   0.0000       0.448747        12.2110 
 250   0.0000       0.454400        12.3648 
 251   0.0000       0.465736        12.6733 
 252   0.0000       0.467275        12.7152 
 253   0.0000       0.468158        12.7392 
 254   0.0000       0.470886        12.8135 
 255   0.0000       0.474825        12.9207 
 256   0.0000       0.476004        12.9527 
 257   0.0000       0.480054        13.0629 
 258   0.0000       0.489362        13.3162 
 259   0.0000       0.495871        13.4933 
 260   0.0000       0.503704        13.7065 
 261   0.0000       0.504914        13.7394 
 262   0.0000       0.506494        13.7824 
 263   0.0000       0.512263        13.9394 
 264   0.0000       0.516659        14.0590 
 265   0.0000       0.521354        14.1868 
 266   0.0000       0.522735        14.2243 
 267   0.0000       0.528223        14.3737 
 268   0.0000       0.533260        14.5107 
 269   0.0000       0.535894        14.5824 
 270   0.0000       0.544395        14.8137 
 271   0.0000       0.550465        14.9789 
 272   0.0000       0.558255        15.1909 
 273   0.0000       0.559661        15.2292 
 274   0.0000       0.563560        15.3353 
 275   0.0000       0.566158        15.4059 
 276   0.0000       0.572310        15.5734 
 277   0.0000       0.574046        15.6206 
 278   0.0000       0.580030        15.7834 
 279   0.0000       0.586289        15.9537 
 280   0.0000       0.592597        16.1254 
 281   0.0000       0.593398        16.1472 
 282   0.0000       0.594161        16.1680 
 283   0.0000       0.595930        16.2161 
 284   0.0000       0.598466        16.2851 
 285   0.0000       0.600206        16.3324 
 286   0.0000       0.604485        16.4489 
 287   0.0000       0.610824        16.6214 
 288   0.0000       0.616776        16.7833 
 289   0.0000       0.624181        16.9848 
 290   0.0000       0.625109        17.0101 
 291   0.0000       0.628158        17.0931 
 292   0.0000       0.633199        17.2302 
 293   0.0000       0.635718        17.2988 
 294   0.0000       0.645427        17.5630 
 295   0.0000       0.648236        17.6394 
 296   0.0000       0.652445        17.7539 
 297   0.0000       0.655261        17.8306 
 298   0.0000       0.661348        17.9962 
 299   0.0000       0.665993        18.1226 
 300   0.0000       0.670931        18.2570 
 301   0.0000       0.675251        18.3745 
 302   0.0000       0.677572        18.4377 
 303   0.0000       0.679924        18.5017 
 304   0.0000       0.681268        18.5382 
 305   0.0000       0.685310        18.6482 
 306   0.0000       0.688634        18.7387 
 307   0.0000       0.692235        18.8367 
 308   0.0000       0.695187        18.9170 
 309   0.0000       0.700119        19.0512 
 310   0.0000       0.702554        19.1175 
 311   0.0000       0.703991        19.1566 
 312   0.0000       0.706234        19.2176 
 313   0.0000       0.711291        19.3552 
 314   0.0000       0.712103        19.3773 
 315   0.0000       0.715993        19.4832 
 316   0.0000       0.716956        19.5094 
 317   0.0000       0.718165        19.5423 
 318   0.0000       0.724559        19.7162 
 319   0.0000       0.727684        19.8013 
 320   0.0000       0.728149        19.8139 
 321   0.0000       0.729288        19.8449 
 322   0.0000       0.731153        19.8957 
 323   0.0000       0.732636        19.9360 
 324   0.0000       0.735623        20.0173 
 325   0.0000       0.740608        20.1530 
 326   0.0000       0.743756        20.2386 
 327   0.0000       0.749007        20.3815 
 328   0.0000       0.753092        20.4927 
 329   0.0000       0.756328        20.5807 
 330   0.0000       0.757733        20.6190 
 331   0.0000       0.763285        20.7700 
 332   0.0000       0.766856        20.8672 
 333   0.0000       0.767034        20.8721 
 334   0.0000       0.768989        20.9253 
 335   0.0000       0.774397        21.0724 
 336   0.0000       0.779298        21.2058 
 337   0.0000       0.781247        21.2588 
 338   0.0000       0.784898        21.3582 
 339   0.0000       0.789986        21.4966 
 340   0.0000       0.792681        21.5700 
 341   0.0000       0.794775        21.6269 
 342   0.0000       0.800604        21.7855 
 343   0.0000       0.803120        21.8540 
 344   0.0000       0.806147        21.9364 
 345   0.0000       0.808178        21.9916 
 346   0.0000       0.811092        22.0709 
 347   0.0000       0.814880        22.1740 
 348   0.0000       0.815591        22.1934 
 349   0.0000       0.817168        22.2363 
 350   0.0000       0.819697        22.3051 
 351   0.0000       0.822856        22.3911 
 352   0.0000       0.824857        22.4455 
 353   0.0000       0.826972        22.5031 
 354   0.0000       0.830787        22.6069 
 355   0.0000       0.832651        22.6576 
 356   0.0000       0.834426        22.7059 
 357   0.0000       0.836764        22.7695 
 358   0.0000       0.838569        22.8186 
 359   0.0000       0.840050        22.8589 
 360   0.0000       0.842424        22.9235 
 361   0.0000       0.843571        22.9547 
 362   0.0000       0.845732        23.0135 
 363   0.0000       0.849294        23.1105 
 364   0.0000       0.851886        23.1810 
 365   0.0000       0.856142        23.2968 
 366   0.0000       0.858934        23.3728 
 367   0.0000       0.861937        23.4545 
 368   0.0000       0.867790        23.6138 
 369   0.0000       0.870283        23.6816 
 370   0.0000       0.871082        23.7033 
 371   0.0000       0.873254        23.7625 
 372   0.0000       0.875994        23.8370 
 373   0.0000       0.877847        23.8874 
 374   0.0000       0.878930        23.9169 
 375   0.0000       0.882594        24.0166 
 376   0.0000       0.889575        24.2066 
 377   0.0000       0.889937        24.2164 
 378   0.0000       0.892679        24.2910 
 379   0.0000       0.894151        24.3311 
 380   0.0000       0.897189        24.4138 
 381   0.0000       0.898658        24.4537 
 382   0.0000       0.900575        24.5059 
 383   0.0000       0.900951        24.5161 
 384   0.0000       0.905916        24.6512 
 385   0.0000       0.906870        24.6772 
 386   0.0000       0.908412        24.7192 
 387   0.0000       0.911336        24.7987 
 388   0.0000       0.915488        24.9117 
 389   0.0000       0.918360        24.9898 
 390   0.0000       0.920595        25.0507 
 391   0.0000       0.925790        25.1920 
 392   0.0000       0.926929        25.2230 
 393   0.0000       0.928364        25.2621 
 394   0.0000       0.929825        25.3018 
 395   0.0000       0.932187        25.3661 
 396   0.0000       0.935263        25.4498 
 397   0.0000       0.941122        25.6092 
 398   0.0000       0.943777        25.6815 
 399   0.0000       0.944124        25.6909 
 400   0.0000       0.948667        25.8146 
 401   0.0000       0.953909        25.9572 
 402   0.0000       0.955109        25.9898 
 403   0.0000       0.958216        26.0744 
 404   0.0000       0.960750        26.1433 
 405   0.0000       0.962548        26.1923 
 406   0.0000       0.971477        26.4352 
 407   0.0000       0.978473        26.6256 
 408   0.0000       0.982257        26.7286 
 409   0.0000       0.986998        26.8576 
 410   0.0000       0.988243        26.8915 
 411   0.0000       0.993367        27.0309 
 412   0.0000       0.998979        27.1836 
 413   0.0000       1.003251        27.2999 
 414   0.0000       1.007694        27.4208 
 415   0.0000       1.010610        27.5001 
 416   0.0000       1.016715        27.6662 
 417   0.0000       1.018869        27.7248 
 418   0.0000       1.027802        27.9679 
 419   0.0000       1.032269        28.0895 
 420   0.0000       1.034726        28.1563 
 421   0.0000       1.038144        28.2493 
 422   0.0000       1.043743        28.4017 
 423   0.0000       1.052952        28.6523 
 424   0.0000       1.061952        28.8972 
 425   0.0000       1.067489        29.0479 
 426   0.0000       1.071431        29.1551 
 427   0.0000       1.076093        29.2820 
 428   0.0000       1.078346        29.3433 
 429   0.0000       1.087403        29.5897 
 430   0.0000       1.088985        29.6328 
 431   0.0000       1.092112        29.7179 
 432   0.0000       1.099391        29.9159 
 433   0.0000       1.102258        29.9940 
 434   0.0000       1.106827        30.1183 
 435   0.0000       1.110803        30.2265 
 436   0.0000       1.113523        30.3005 
 437   0.0000       1.116731        30.3878 
 438   0.0000       1.120685        30.4954 
 439   0.0000       1.121527        30.5183 
 440   0.0000       1.124642        30.6031 
 441   0.0000       1.128892        30.7187 
 442   0.0000       1.132047        30.8046 
 443   0.0000       1.134556        30.8728 
 444   0.0000       1.137517        30.9534 
 445   0.0000       1.139909        31.0185 
 446   0.0000       1.146867        31.2078 
 447   0.0000       1.150267        31.3003 
 448   0.0000       1.153153        31.3789 
 449   0.0000       1.157764        31.5044 
 450   0.0000       1.159510        31.5519 
 451   0.0000       1.162253        31.6265 
 452   0.0000       1.165922        31.7264 
 453   0.0000       1.168458        31.7954 
 454   0.0000       1.169223        31.8162 
 455   0.0000       1.172164        31.8962 
 456   0.0000       1.183082        32.1933 
 457   0.0000       1.184116        32.2214 
 458   0.0000       1.193428        32.4748 
 459   0.0000       1.197347        32.5815 
 460   0.0000       1.202708        32.7274 
 461   0.0000       1.202874        32.7319 
 462   0.0000       1.207330        32.8531 
 463   0.0000       1.208591        32.8874 
 464   0.0000       1.210372        32.9359 
 465   0.0000       1.217039        33.1173 
 466   0.0000       1.218821        33.1658 
 467   0.0000       1.225997        33.3611 
 468   0.0000       1.227976        33.4149 
 469   0.0000       1.229447        33.4550 
 470   0.0000       1.232123        33.5278 
 471   0.0000       1.236419        33.6447 
 472   0.0000       1.240252        33.7490 
 473   0.0000       1.243342        33.8331 
 474   0.0000       1.244405        33.8620 
 475   0.0000       1.248693        33.9787 
 476   0.0000       1.251139        34.0452 
 477   0.0000       1.251614        34.0582 
 478   0.0000       1.254142        34.1269 
 479   0.0000       1.260331        34.2954 
 480   0.0000       1.261937        34.3391 
 481   0.0000       1.263677        34.3864 
 482   0.0000       1.270283        34.5662 
 483   0.0000       1.271137        34.5894 
 484   0.0000       1.278827        34.7986 
 485   0.0000       1.282150        34.8891 
 486   0.0000       1.283922        34.9373 
 487   0.0000       1.289173        35.0802 
 488   0.0000       1.291659        35.1478 
 489   0.0000       1.293192        35.1895 
 490   0.0000       1.300436        35.3867 
 491   0.0000       1.300644        35.3923 
 492   0.0000       1.306075        35.5401 
 493   0.0000       1.311418        35.6855 
 494   0.0000       1.313331        35.7375 
 495   0.0000       1.319143        35.8957 
 496   0.0000       1.321677        35.9646 
 497   0.0000       1.324896        36.0523 
 498   0.0000       1.328216        36.1426 
 499   0.0000       1.330897        36.2156 
 500   0.0000       1.337779        36.4028 
 501   0.0000       1.339745        36.4563 
 502   0.0000       1.341454        36.5028 
 503   0.0000       1.343831        36.5675 
 504   0.0000       1.347670        36.6720 
 505   0.0000       1.350384        36.7458 
 506   0.0000       1.351931        36.7879 
 507   0.0000       1.358652        36.9708 
 508   0.0000       1.360863        37.0310 
 509   0.0000       1.363200        37.0946 
[...]
      px      :     0.043611
      py      :     0.014046
 77 H s       :     0.884472  s :     0.884472
      pz      :     0.047978  p :     0.079295
      px      :     0.015024
      py      :     0.016293
 78 H s       :     0.884792  s :     0.884792
      pz      :     0.025886  p :     0.079270
      px      :     0.020455
      py      :     0.032929
 79 H s       :     0.910865  s :     0.910865
      pz      :     0.021786  p :     0.086284
      px      :     0.021658
      py      :     0.042840
 80 H s       :     0.864308  s :     0.864308
      pz      :     0.039396  p :     0.084830
      px      :     0.030282
      py      :     0.015152
 81 H s       :     0.886600  s :     0.886600
      pz      :     0.037839  p :     0.084132
      px      :     0.016168
      py      :     0.030125
 82 H s       :     0.915935  s :     0.915935
      pz      :     0.021943  p :     0.086731
      px      :     0.031661
      py      :     0.033127
 83 H s       :     0.873184  s :     0.873184
      pz      :     0.039297  p :     0.084126
      px      :     0.015270
      py      :     0.029559
 84 H s       :     0.886444  s :     0.886444
      pz      :     0.035784  p :     0.083425
      px      :     0.031706
      py      :     0.015935
 85 H s       :     0.892594  s :     0.892594
      pz      :     0.022495  p :     0.079796
      px      :     0.014060
      py      :     0.043241
 86 H s       :     0.890839  s :     0.890839
      pz      :     0.024736  p :     0.078841
      px      :     0.032991
      py      :     0.021114
 87 H s       :     0.889701  s :     0.889701
      pz      :     0.048029  p :     0.078754
      px      :     0.015586
      py      :     0.015139
 88 H s       :     0.910541  s :     0.910541
      pz      :     0.021602  p :     0.087008
      px      :     0.042951
      py      :     0.022455
 89 H s       :     0.870974  s :     0.870974
      pz      :     0.037970  p :     0.083870
      px      :     0.030511
      py      :     0.015389


                      *****************************
                      * MAYER POPULATION ANALYSIS *
                      *****************************

  NA   - Mulliken gross atomic population
  ZA   - Total nuclear charge
  QA   - Mulliken gross atomic charge
  VA   - Mayer's total valence
  BVA  - Mayer's bonded valence
  FA   - Mayer's free valence

  ATOM       NA         ZA         QA         VA         BVA        FA
  0 C      5.7813     6.0000     0.2187     3.8482     3.8482     0.0000
  1 N      7.4559     7.0000    -0.4559     3.3439     3.3439    -0.0000
  2 C      6.0722     6.0000    -0.0722     3.9234     3.9234     0.0000
  3 N      7.3411     7.0000    -0.3411     3.4548     3.4548    -0.0000
  4 C      6.0680     6.0000    -0.0680     4.1123     4.1123     0.0000
  5 N      7.5682     7.0000    -0.5682     3.0952     3.0952     0.0000
  6 C      6.1032     6.0000    -0.1032     3.9328     3.9328    -0.0000
  7 N      7.3409     7.0000    -0.3409     3.4324     3.4324    -0.0000
  8 C      5.7877     6.0000     0.2123     3.8500     3.8500     0.0000
  9 N      7.5621     7.0000    -0.5621     3.0767     3.0767    -0.0000
 10 C      5.8807     6.0000     0.1193     3.9091     3.9091     0.0000
 11 N      7.4387     7.0000    -0.4387     3.3769     3.3769    -0.0000
 12 C      6.0580     6.0000    -0.0580     3.8513     3.8513    -0.0000
 13 N      7.4294     7.0000    -0.4294     3.4284     3.4284     0.0000
 14 C      5.7790     6.0000     0.2210     3.7965     3.7965     0.0000
 15 N      7.4407     7.0000    -0.4407     3.3738     3.3738     0.0000
 16 C      5.7689     6.0000     0.2311     3.7758     3.7758    -0.0000
 17 C      6.1189     6.0000    -0.1189     3.9515     3.9515     0.0000
 18 C      6.1820     6.0000    -0.1820     3.7573     3.7573    -0.0000
 19 C      5.7850     6.0000     0.2150     3.8745     3.8745    -0.0000
 20 C      5.7868     6.0000     0.2132     3.8293     3.8293     0.0000
 21 C      6.0576     6.0000    -0.0576     3.8164     3.8164    -0.0000
 22 C      6.0912     6.0000    -0.0912     3.9830     3.9830    -0.0000
 23 C      6.0395     6.0000    -0.0395     3.9927     3.9927     0.0000
 24 C      5.8069     6.0000     0.1931     3.8212     3.8212    -0.0000
 25 C      5.8853     6.0000     0.1147     3.8920     3.8920     0.0000
 26 C      6.0904     6.0000    -0.0904     3.9092     3.9092    -0.0000
 27 C      5.7836     6.0000     0.2164     3.8621     3.8621    -0.0000
 28 C      6.0619     6.0000    -0.0619     3.9888     3.9888     0.0000
 29 C      6.1821     6.0000    -0.1821     3.7460     3.7460     0.0000
 30 C      5.7538     6.0000     0.2462     3.8013     3.8013     0.0000
 31 C      5.7701     6.0000     0.2299     3.8169     3.8169    -0.0000
 32 C      6.0619     6.0000    -0.0619     3.9229     3.9229     0.0000
 33 C      6.0601     6.0000    -0.0601     3.9712     3.9712     0.0000
 34 C      6.0517     6.0000    -0.0517     3.9833     3.9833     0.0000
 35 C      5.7709     6.0000     0.2291     3.8165     3.8165    -0.0000
 36 C      5.8918     6.0000     0.1082     3.8747     3.8747    -0.0000
 37 C      6.0643     6.0000    -0.0643     3.9179     3.9179    -0.0000
 38 C      5.7694     6.0000     0.2306     3.8005     3.8005    -0.0000
 39 C      6.0572     6.0000    -0.0572     3.9831     3.9831     0.0000
 40 C      6.1815     6.0000    -0.1815     3.7267     3.7267     0.0000
 41 C      5.7735     6.0000     0.2265     3.8878     3.8878     0.0000
 42 C      5.8023     6.0000     0.1977     3.8255     3.8255     0.0000
 43 C      6.0723     6.0000    -0.0723     3.9000     3.9000    -0.0000
 44 C      6.0890     6.0000    -0.0890     3.9849     3.9849    -0.0000
 45 C      6.0616     6.0000    -0.0616     3.9919     3.9919    -0.0000
 46 C      5.7876     6.0000     0.2124     3.8283     3.8283    -0.0000
 47 C      5.8848     6.0000     0.1152     3.8924     3.8924    -0.0000
 48 C      6.0665     6.0000    -0.0665     3.9095     3.9095     0.0000
 49 C      5.7611     6.0000     0.2389     3.8942     3.8942     0.0000
 50 C      6.0461     6.0000    -0.0461     3.9903     3.9903     0.0000
 51 C      6.1927     6.0000    -0.1927     3.7367     3.7367    -0.0000
 52 H      0.9646     1.0000     0.0354     0.9857     0.9857    -0.0000
 53 H      1.0180     1.0000    -0.0180     0.9988     0.9988     0.0000
 54 H      0.9551     1.0000     0.0449     1.0143     1.0143     0.0000
 55 H      0.9659     1.0000     0.0341     0.9862     0.9862     0.0000
 56 H      0.9506     1.0000     0.0494     0.9695     0.9695     0.0000
 57 H      0.9523     1.0000     0.0477     0.9826     0.9826     0.0000
 58 H      0.9533     1.0000     0.0467     0.9846     0.9846     0.0000
 59 H      1.0108     1.0000    -0.0108     0.9968     0.9968     0.0000
 60 H      0.9569     1.0000     0.0431     1.0133     1.0133     0.0000
 61 H      0.8288     1.0000     0.1712     1.0422     1.0422     0.0000
 62 H      0.8246     1.0000     0.1754     1.0436     1.0436    -0.0000
 63 H      0.9452     1.0000     0.0548     0.9853     0.9853    -0.0000
 64 H      1.0322     1.0000    -0.0322     0.9912     0.9912     0.0000
 65 H      0.9531     1.0000     0.0469     1.0099     1.0099    -0.0000
 66 H      0.9448     1.0000     0.0552     0.9855     0.9855    -0.0000
 67 H      0.9379     1.0000     0.0621     0.9719     0.9719     0.0000
 68 H      0.9430     1.0000     0.0570     0.9868     0.9868     0.0000
 69 H      0.9439     1.0000     0.0561     0.9828     0.9828     0.0000
 70 H      1.0306     1.0000    -0.0306     0.9942     0.9942    -0.0000
 71 H      0.9557     1.0000     0.0443     1.0059     1.0059     0.0000
 72 H      0.9286     1.0000     0.0714     0.9836     0.9836     0.0000
 73 H      1.0079     1.0000    -0.0079     1.0010     1.0010     0.0000
 74 H      0.9395     1.0000     0.0605     1.0100     1.0100    -0.0000
 75 H      0.9291     1.0000     0.0709     0.9838     0.9838    -0.0000
 76 H      0.9250     1.0000     0.0750     0.9721     0.9721    -0.0000
 77 H      0.9319     1.0000     0.0681     0.9855     0.9855     0.0000
 78 H      0.9326     1.0000     0.0674     0.9854     0.9854     0.0000
 79 H      1.0168     1.0000    -0.0168     0.9974     0.9974    -0.0000
 80 H      0.9385     1.0000     0.0615     1.0072     1.0072     0.0000
 81 H      0.9452     1.0000     0.0548     0.9856     0.9856     0.0000
 82 H      1.0247     1.0000    -0.0247     0.9935     0.9935     0.0000
 83 H      0.9576     1.0000     0.0424     1.0082     1.0082     0.0000
 84 H      0.9453     1.0000     0.0547     0.9852     0.9852    -0.0000
 85 H      0.9387     1.0000     0.0613     0.9716     0.9716     0.0000
 86 H      0.9442     1.0000     0.0558     0.9839     0.9839     0.0000
 87 H      0.9425     1.0000     0.0575     0.9857     0.9857     0.0000
 88 H      1.0144     1.0000    -0.0144     0.9968     0.9968     0.0000
 89 H      0.9528     1.0000     0.0472     1.0076     1.0076     0.0000

  Mayer bond orders larger than 0.100000
B(  0-C ,  1-N ) :   1.1002 B(  0-C , 17-C ) :   1.7120 B(  0-C , 52-H ) :   0.9630 
B(  1-N ,  8-C ) :   1.0898 B(  1-N , 10-C ) :   0.9772 B(  2-C , 12-C ) :   1.4910 
B(  2-C , 16-C ) :   1.3705 B(  2-C , 53-H ) :   0.9725 B(  3-N , 14-C ) :   1.2221 
B(  3-N , 16-C ) :   1.1806 B(  3-N , 61-H ) :   0.8986 B(  4-C ,  6-C ) :   1.2170 
B(  4-C , 17-C ) :   1.2183 B(  4-C , 18-C ) :   1.4725 B(  5-N , 19-C ) :   1.4591 
B(  5-N , 27-C ) :   1.3711 B(  6-C ,  8-C ) :   1.7238 B(  6-C , 54-H ) :   0.8760 
B(  7-N , 30-C ) :   1.1960 B(  7-N , 38-C ) :   1.1889 B(  7-N , 62-H ) :   0.8968 
B(  8-C , 55-H ) :   0.9623 B(  9-N , 41-C ) :   1.3951 B(  9-N , 49-C ) :   1.4243 
B( 10-C , 56-H ) :   0.9776 B( 10-C , 57-H ) :   0.9823 B( 10-C , 58-H ) :   0.9841 
B( 11-N , 20-C ) :   1.1303 B( 11-N , 24-C ) :   1.1058 B( 11-N , 25-C ) :   0.9607 
B( 12-C , 14-C ) :   1.3572 B( 12-C , 59-H ) :   0.9372 B( 13-N , 31-C ) :   1.1611 
B( 13-N , 35-C ) :   1.1612 B( 13-N , 36-C ) :   0.9412 B( 14-C , 18-C ) :   1.1198 
B( 15-N , 42-C ) :   1.1085 B( 15-N , 46-C ) :   1.1257 B( 15-N , 47-C ) :   0.9607 
B( 16-C , 51-C ) :   1.1684 B( 17-C , 60-H ) :   0.9034 B( 18-C , 19-C ) :   1.1180 
B( 19-C , 21-C ) :   1.2541 B( 20-C , 28-C ) :   1.6298 B( 20-C , 63-H ) :   0.9703 
B( 21-C , 26-C ) :   1.5781 B( 21-C , 64-H ) :   0.9111 B( 22-C , 23-C ) :   1.2883 
B( 22-C , 28-C ) :   1.2627 B( 22-C , 29-C ) :   1.2280 B( 23-C , 24-C ) :   1.6215 
B( 23-C , 65-H ) :   0.9703 B( 24-C , 66-H ) :   0.9696 B( 25-C , 67-H ) :   0.9761 
B( 25-C , 68-H ) :   0.9828 B( 25-C , 69-H ) :   0.9824 B( 26-C , 27-C ) :   1.2634 
B( 26-C , 70-H ) :   0.9673 B( 27-C , 29-C ) :   1.2045 B( 28-C , 71-H ) :   0.9720 
B( 29-C , 30-C ) :   1.2467 B( 30-C , 32-C ) :   1.2792 B( 31-C , 39-C ) :   1.5874 
B( 31-C , 72-H ) :   0.9681 B( 32-C , 37-C ) :   1.5793 B( 32-C , 73-H ) :   0.9787 
B( 33-C , 34-C ) :   1.3066 B( 33-C , 39-C ) :   1.3048 B( 33-C , 40-C ) :   1.1761 
B( 34-C , 35-C ) :   1.5854 B( 34-C , 74-H ) :   0.9696 B( 35-C , 75-H ) :   0.9681 
B( 36-C , 76-H ) :   0.9768 B( 36-C , 77-H ) :   0.9816 B( 36-C , 78-H ) :   0.9823 
B( 37-C , 38-C ) :   1.2856 B( 37-C , 79-H ) :   0.9764 B( 38-C , 40-C ) :   1.2336 
B( 39-C , 80-H ) :   0.9705 B( 40-C , 41-C ) :   1.2509 B( 41-C , 43-C ) :   1.1834 
B( 42-C , 50-C ) :   1.6317 B( 42-C , 81-H ) :   0.9696 B( 43-C , 48-C ) :   1.6697 
B( 43-C , 82-H ) :   0.9721 B( 44-C , 45-C ) :   1.2644 B( 44-C , 50-C ) :   1.2737 
B( 44-C , 51-C ) :   1.2583 B( 45-C , 46-C ) :   1.6333 B( 45-C , 83-H ) :   0.9718 
B( 46-C , 84-H ) :   0.9699 B( 47-C , 85-H ) :   0.9762 B( 47-C , 86-H ) :   0.9829 
B( 47-C , 87-H ) :   0.9824 B( 48-C , 49-C ) :   1.1868 B( 48-C , 88-H ) :   0.9748 
B( 49-C , 51-C ) :   1.2461 B( 50-C , 89-H ) :   0.9708 B( 54-H , 64-H ) :   0.1024 


-------
TIMINGS
-------

Total SCF time: 0 days 0 hours 23 min 2 sec 

Total time                  ....    1382.909 sec
Sum of individual times     ....    1379.134 sec  ( 99.7%)

Fock matrix formation       ....    1358.696 sec  ( 98.2%)
Diagonalization             ....       6.534 sec  (  0.5%)
Density matrix formation    ....       0.386 sec  (  0.0%)
Population analysis         ....       0.424 sec  (  0.0%)
Initial guess               ....       1.924 sec  (  0.1%)
Orbital Transformation      ....       0.000 sec  (  0.0%)
Orbital Orthonormalization  ....       0.000 sec  (  0.0%)
DIIS solution               ....       2.929 sec  (  0.2%)
SOSCF solution              ....       7.238 sec  (  0.5%)

Maximum memory used throughout the entire SCF-calculation: 302.7 MB


           ************************************************************
           *        Program running with 16 parallel MPI-processes    *
           *              working on a common directory               *
           ************************************************************

------------------------------------------------------------------------------
                                ORCA  MP2 
------------------------------------------------------------------------------

Freezing NCore=104 chemical core electrons

----------
MP2 ENERGY (disk based algorithm)
----------

Dimension of the basis                    ...  918
Memory devoted to MP2                     ... 2000 MB   
Data format for buffers                   ... DOUBLE
Compression type for matrix containers    ... UNCOMPRESSED

-------------------------------
PARTIAL EXCHANGE TRANSFORMATION
-------------------------------

Transformation type                        ... one-operator
Generation of integrals (i,mue|j,nue)      ... ON
Generation of integrals (mue,kappa|nue,tau)... OFF
Generation of integrals (i,mue|a,nue)      ... OFF
Dimension of the basis                     ...  918
Number of internal MOs                     ...  127 (  52- 178)
Pair cutoff                                ... 2.500e-12 Eh
Number of AO pairs in the trafo            ... 421821
Total Number of distinct AO pairs          ... 421821
Memory devoted for trafo                   ... 2000.0 MB 
Max. Number of MO pairs treated together   ...  311      
Number Format for Storage                  ... Double (8 Byte)
Integral package used                      ... LIBINT

Starting integral evaluation:
    ... done with AO integral generation
Closing buffer AOK     (38.30 GB; CompressionRatio= 1.32)
Collecting buffer AOK 
Number of MO pairs included in the trafo   ... 8128
------------------------
SORTING OF (i,mue|j,nue)
------------------------

IBATCH = 1 of  2
IBATCH = 2 of  2
Closing buffer KAO     (51.03 GB; CompressionRatio= 1.00)
Collecting buffer KAO 
N(AO-Batches) Done                         ...  86143685 
N(AO-Batches) Skipped                      ...  82310924 
N(IJ)-pairs Skipped                        ...         0 
TOTAL TIME for half transformation         ...  2490.390 sec
AO-integral generation                     ...   176.396 sec
Half transformation                        ...   310.571 sec
K-integral sorting                         ...  1848.969 sec
Process 10:   Internal MO 132
Process 13:   Internal MO 156

Finished integral transformation - now doing MP2 part

Process  1:   Internal MO  60
Process  7:   Internal MO 108
OPERATOR COMBINATION   0   0: ij=( 52..178, 52..178)
Process  4:   Internal MO  84
Process  0:   Internal MO  54
Process  2:   Internal MO  69
Process  1:   Internal MO  63
Process  0:   Internal MO  57
Process  3:   Internal MO  78
Process  5:   Internal MO  93
Process  8:   Internal MO 117
Process  2:   Internal MO  72
Process  1:   Internal MO  66
Process  6:   Internal MO 102
Process 14:   Internal MO 165
Process 11:   Internal MO 141
Process  2:   Internal MO  75
Process  3:   Internal MO  81
Process  5:   Internal MO  96
Process 12:   Internal MO 150
Process  7:   Internal MO 111
Process  9:   Internal MO 126
Process  6:   Internal MO 105
Process 10:   Internal MO 135
Process 15:   Internal MO 174
Process  8:   Internal MO 120
Process  4:   Internal MO  87
Process  7:   Internal MO 114
Process  5:   Internal MO  99
Process 13:   Internal MO 159
Process 11:   Internal MO 144
Process  4:   Internal MO  90
Process 12:   Internal MO 153
Process  9:   Internal MO 129
Process 14:   Internal MO 168
Process 10:   Internal MO 138
Process  8:   Internal MO 123
Process 15:   Internal MO 177
Process 13:   Internal MO 162
Process 11:   Internal MO 147
Process 14:   Internal MO 171
-----------------------------------------------
 MP2 CORRELATION ENERGY   :     -7.290152348 Eh
-----------------------------------------------


-------
TIMINGS
-------
Total time                : 2780.703 sec
Integral trafo            : 2492.419 sec ( 89.6%)
K(i,j)                    :    6.774 sec (  0.2%)
T(i,j)                    :    0.353 sec (  0.0%)

---------------------------------------
MP2 TOTAL ENERGY:    -2130.785221745 Eh
---------------------------------------

Maximum memory used throughout the entire MP2-calculation: 2275.3 MB

-------------------------   --------------------
FINAL SINGLE POINT ENERGY     -2130.785221744691
-------------------------   --------------------


                            ***************************************
                            *     ORCA property calculations      *
                            ***************************************


  WARNING: The energy has been calculated at the MP2 level but the densities
           used in the property calculations are still SCF densities
           MP2 response densities have not been calculated 
           use %mp2 Density relaxed end
           or  %mp2 Density unrelaxed end

                                    ---------------------
                                    Active property flags
                                    ---------------------
   (+) Dipole Moment


------------------------------------------------------------------------------
                       ORCA ELECTRIC PROPERTIES CALCULATION
------------------------------------------------------------------------------

Dipole Moment Calculation                       ... on
Quadrupole Moment Calculation                   ... off
Polarizability Calculation                      ... off
GBWName                                         ... /scratch/allen/tmpyp4_amber_gaff2/conf1/conf1/Conf15.orca.gbw
Electron density                                ... /scratch/allen/tmpyp4_amber_gaff2/conf1/conf1/Conf15.orca.scfp
The origin for moment calculation is the CENTER OF MASS  = (-0.001038, -0.004838  0.002642)

-------------
DIPOLE MOMENT
-------------
                                X             Y             Z
Electronic contribution:      2.95948      -4.22502      -0.09924
Nuclear contribution   :     -0.04417       0.15777       0.11443
                        -----------------------------------------
Total Dipole Moment    :      2.91531      -4.06725       0.01519
                        -----------------------------------------
Magnitude (a.u.)       :      5.00418
Magnitude (Debye)      :     12.71962



--------------------
Rotational spectrum 
--------------------
 
Rotational constants in cm-1:     0.001503     0.001478     0.000760 
Rotational constants in MHz :    45.063893    44.296898    22.784273 

 Dipole components along the rotational axes: 
x,y,z [a.u.] :     3.601200     3.474594     0.019384 
x,y,z [Debye]:     9.153522     8.831717     0.049269 

 

Timings for individual modules:

Sum of individual times         ...     4185.926 sec (=  69.765 min)
GTO integral calculation        ...        2.705 sec (=   0.045 min)   0.1 %
SCF iterations                  ...     1383.851 sec (=  23.064 min)  33.1 %
MP2 module                      ...     2799.370 sec (=  46.656 min)  66.9 %
                             ****ORCA TERMINATED NORMALLY****
TOTAL RUN TIME: 0 days 1 hours 9 minutes 49 seconds 309 msec
# of primitive gaussian functions

