
                                 *****************
                                 * O   R   C   A *
                                 *****************

                                            #,                                       
                                            ###                                      
                                            ####                                     
                                            #####                                    
                                            ######                                   
                                           ########,                                 
                                     ,,################,,,,,                         
                               ,,#################################,,                 
                          ,,##########################################,,             
                       ,#########################################, ''#####,          
                    ,#############################################,,   '####,        
                  ,##################################################,,,,####,       
                ,###########''''           ''''###############################       
              ,#####''   ,,,,##########,,,,          '''####'''          '####       
            ,##' ,,,,###########################,,,                        '##       
           ' ,,###''''                  '''############,,,                           
         ,,##''                                '''############,,,,        ,,,,,,###''
      ,#''                                            '''#######################'''  
     '                                                          ''''####''''         
             ,#######,   #######,   ,#######,      ##                                
            ,#'     '#,  ##    ##  ,#'     '#,    #''#        ######   ,####,        
            ##       ##  ##   ,#'  ##            #'  '#       #        #'  '#        
            ##       ##  #######   ##           ,######,      #####,   #    #        
            '#,     ,#'  ##    ##  '#,     ,#' ,#      #,         ##   #,  ,#        
             '#######'   ##     ##  '#######'  #'      '#     #####' # '####'        



                  #######################################################
                  #                        -***-                        #
                  #          Department of theory and spectroscopy      #
                  #    Directorship and core code : Frank Neese         #
                  #        Max Planck Institute fuer Kohlenforschung    #
                  #                Kaiser Wilhelm Platz 1               #
                  #                 D-45470 Muelheim/Ruhr               #
                  #                      Germany                        #
                  #                                                     #
                  #                  All rights reserved                #
                  #                        -***-                        #
                  #######################################################


                         Program Version 5.0.4 -  RELEASE  -


 With contributions from (in alphabetic order):
   Daniel Aravena         : Magnetic Suceptibility
   Michael Atanasov       : Ab Initio Ligand Field Theory (pilot matlab implementation)
   Alexander A. Auer      : GIAO ZORA, VPT2 properties, NMR spectrum
   Ute Becker             : Parallelization
   Giovanni Bistoni       : ED, misc. LED, open-shell LED, HFLD
   Martin Brehm           : Molecular dynamics
   Dmytro Bykov           : SCF Hessian
   Vijay G. Chilkuri      : MRCI spin determinant printing, contributions to CSF-ICE
   Dipayan Datta          : RHF DLPNO-CCSD density
   Achintya Kumar Dutta   : EOM-CC, STEOM-CC
   Dmitry Ganyushin       : Spin-Orbit,Spin-Spin,Magnetic field MRCI
   Miquel Garcia          : C-PCM and meta-GGA Hessian, CC/C-PCM, Gaussian charge scheme
   Yang Guo               : DLPNO-NEVPT2, F12-NEVPT2, CIM, IAO-localization
   Andreas Hansen         : Spin unrestricted coupled pair/coupled cluster methods
   Benjamin Helmich-Paris : MC-RPA, TRAH-SCF, COSX integrals
   Lee Huntington         : MR-EOM, pCC
   Robert Izsak           : Overlap fitted RIJCOSX, COSX-SCS-MP3, EOM
   Marcus Kettner         : VPT2
   Christian Kollmar      : KDIIS, OOCD, Brueckner-CCSD(T), CCSD density, CASPT2, CASPT2-K
   Simone Kossmann        : Meta GGA functionals, TD-DFT gradient, OOMP2, MP2 Hessian
   Martin Krupicka        : Initial AUTO-CI
   Lucas Lang             : DCDCAS
   Marvin Lechner         : AUTO-CI (C++ implementation), FIC-MRCC
   Dagmar Lenk            : GEPOL surface, SMD
   Dimitrios Liakos       : Extrapolation schemes; Compound Job, initial MDCI parallelization
   Dimitrios Manganas     : Further ROCIS development; embedding schemes
   Dimitrios Pantazis     : SARC Basis sets
   Anastasios Papadopoulos: AUTO-CI, single reference methods and gradients
   Taras Petrenko         : DFT Hessian,TD-DFT gradient, ASA, ECA, R-Raman, ABS, FL, XAS/XES, NRVS
   Peter Pinski           : DLPNO-MP2, DLPNO-MP2 Gradient
   Christoph Reimann      : Effective Core Potentials
   Marius Retegan         : Local ZFS, SOC
   Christoph Riplinger    : Optimizer, TS searches, QM/MM, DLPNO-CCSD(T), (RO)-DLPNO pert. Triples
   Tobias Risthaus        : Range-separated hybrids, TD-DFT gradient, RPA, STAB
   Michael Roemelt        : Original ROCIS implementation
   Masaaki Saitow         : Open-shell DLPNO-CCSD energy and density
   Barbara Sandhoefer     : DKH picture change effects
   Avijit Sen             : IP-ROCIS
   Kantharuban Sivalingam : CASSCF convergence, NEVPT2, FIC-MRCI
   Bernardo de Souza      : ESD, SOC TD-DFT
   Georgi Stoychev        : AutoAux, RI-MP2 NMR, DLPNO-MP2 response
   Willem Van den Heuvel  : Paramagnetic NMR
   Boris Wezisla          : Elementary symmetry handling
   Frank Wennmohs         : Technical directorship


 We gratefully acknowledge several colleagues who have allowed us to
 interface, adapt or use parts of their codes:
   Stefan Grimme, W. Hujo, H. Kruse, P. Pracht,  : VdW corrections, initial TS optimization,
                  C. Bannwarth, S. Ehlert          DFT functionals, gCP, sTDA/sTD-DF
   Ed Valeev, F. Pavosevic, A. Kumar             : LibInt (2-el integral package), F12 methods
   Garnet Chan, S. Sharma, J. Yang, R. Olivares  : DMRG
   Ulf Ekstrom                                   : XCFun DFT Library
   Mihaly Kallay                                 : mrcc  (arbitrary order and MRCC methods)
   Jiri Pittner, Ondrej Demel                    : Mk-CCSD
   Frank Weinhold                                : gennbo (NPA and NBO analysis)
   Christopher J. Cramer and Donald G. Truhlar   : smd solvation model
   Lars Goerigk                                  : TD-DFT with DH, B97 family of functionals
   V. Asgeirsson, H. Jonsson                     : NEB implementation
   FAccTs GmbH                                   : IRC, NEB, NEB-TS, DLPNO-Multilevel, CI-OPT
                                                   MM, QMMM, 2- and 3-layer-ONIOM, Crystal-QMMM,
                                                   LR-CPCM, SF, NACMEs, symmetry and pop. for TD-DFT,
                                                   nearIR, NL-DFT gradient (VV10), updates on ESD,
                                                   ML-optimized integration grids
   S Lehtola, MJT Oliveira, MAL Marques          : LibXC Library
   Liviu Ungur et al                             : ANISO software


 Your calculation uses the libint2 library for the computation of 2-el integrals
 For citations please refer to: http://libint.valeyev.net

 Your ORCA version has been built with support for libXC version: 5.1.0
 For citations please refer to: https://tddft.org/programs/libxc/

 This ORCA versions uses:
   CBLAS   interface :  Fast vector & matrix operations
   LAPACKE interface :  Fast linear algebra routines
   SCALAPACK package :  Parallel linear algebra routines
   Shared memory     :  Shared parallel matrices
   BLAS/LAPACK       :  OpenBLAS 0.3.15  USE64BITINT DYNAMIC_ARCH NO_AFFINITY Sandybridge SINGLE_THREADED
        Core in use  :  Sandybridge
   Copyright (c) 2011-2014, The OpenBLAS Project


================================================================================

----- Orbital basis set information -----
Your calculation utilizes the basis: cc-pVDZ 
       H, B-Ne : Obtained from the ccRepo (grant-hill.group.shef.ac.uk/ccrepo) Feb. 2017
                 T. H. Dunning, Jr., J. Chem. Phys. 90, 1007 (1989)
            He : Obtained from the ccRepo (grant-hill.group.shef.ac.uk/ccrepo) Feb. 2017
                 D. E. Woon, T. H. Dunning, Jr., J. Chem. Phys. 100, 2975 (1994)
  Li-Be, Na-Mg : Obtained from the ccRepo (grant-hill.group.shef.ac.uk/ccrepo) Feb. 2017
                 B. P. Prascher, D. E. Woon, K. A. Peterson, T. H. Dunning, Jr., A. K. Wilson, Theor. Chem. Acc. 128, 69 (2011)
         Al-Ar : Obtained from the ccRepo (grant-hill.group.shef.ac.uk/ccrepo) Feb. 2017
                 D. E. Woon, T. H. Dunning, Jr., J. Chem. Phys. 98, 1358 (1993)
            Ca : Obtained from the Peterson Research Group Website (tyr0.chem.wsu.edu/~kipeters) Feb. 2017
                 J. Koput, K. A. Peterson, J. Phys. Chem. 106, 9595 (2002)
         Sc-Zn : Obtained from the ccRepo (grant-hill.group.shef.ac.uk/ccrepo) Feb. 2017
                 N. B. Balabanov, K. A. Peterson, J. Chem. Phys. 123, 064107 (2005)
                 N. B. Balabanov, K. A. Peterson, J. Chem. Phys. 125, 074110 (2006)
         Ga-Kr : Obtained from the ccRepo (grant-hill.group.shef.ac.uk/ccrepo) Feb. 2017
                 A. K. Wilson, D. E. Woon, K. A. Peterson, T. H. Dunning, Jr., J. Chem. Phys. 110, 7667 (1999)

================================================================================
                                        WARNINGS
                       Please study these warnings very carefully!
================================================================================


WARNING: No MP2 level density has been requested!
         To caclulate MP2 level properties use
         %mp2 Density relaxed end
         or
         %mp2 Density unrelaxed end

WARNING: Post HF methods need fully converged wavefunctions
  ===> : Setting SCFConvForced true
         You can overwrite this default with %scf ConvForced false 


INFO   : the flag for use of the SHARK integral package has been found!

================================================================================
                                       INPUT FILE
================================================================================
NAME = /scratch/allen/tmpyp4_amber_gaff2/2.Mdgx/conf11/conf11/Conf268.orca
|  1> ! PAL2
|  2> ! mp2 cc-pvdz TightSCF  NoKeepInts
|  3> 
|  4> %scf
|  5>   MaxCore 2000
|  6> end
|  7> %mp2
|  8>   MaxCore 2000
|  9> end
| 10> * xyz 0 1
| 11>    C       -4.06100         5.76900         1.24500
| 12>    C        1.47400         4.04100         0.05700
| 13>    C       -2.80200         4.09300         0.04900
| 14>    C       -3.15400         4.75000        -1.14000
| 15>    C       -3.93800         5.88600        -1.09900
| 16>    C       -5.18900         7.61900         0.09300
| 17>    C        0.13200         4.30700         0.06100
| 18>    C       -0.56900         3.05600         0.04700
| 19>    C        1.64900         2.61800         0.02300
| 20>    C       -3.27400         4.63400         1.25500
| 21>    N       -4.38300         6.37800         0.08100
| 22>    N        0.38800         2.06700         0.02500
| 23>    N       -2.01000         0.39500        -0.07500
| 24>    N       -0.38800        -2.07400        -0.02700
| 25>    N        2.01000        -0.40100         0.06500
| 26>    C       -1.96000         2.86100         0.02400
| 27>    C       -2.62300         1.61500        -0.01800
| 28>    C       -5.57300        -4.32900         1.06600
| 29>    C       -4.07300         1.47100         0.05600
| 30>    C       -4.10600        -2.75600        -0.02600
| 31>    C       -4.99500        -2.75700        -1.11100
| 32>    C       -6.13200        -3.54200        -1.07600
| 33>    C       -7.65100        -5.11300         0.04000
| 34>    C       -4.32400         0.14100         0.03700
| 35>    C       -3.02500        -0.52000        -0.04800
| 36>    C       -4.42200        -3.56600         1.07500
| 37>    N       -6.40700        -4.31300         0.00100
| 38>    C       -2.86700        -1.92200        -0.04000
| 39>    C       -1.65000        -2.62400        -0.02700
| 40>    C        3.56800        -6.14200        -1.04000
| 41>    C       -1.47600        -4.04900        -0.03400
| 42>    C        2.80300        -4.09900        -0.00800
| 43>    C        3.65700        -4.38400         1.06900
| 44>    C        4.42700        -5.53000         1.05900
| 45>    C        5.24500        -7.58800         0.01400
| 46>    C       -0.13400        -4.31500        -0.02200
| 47>    C        0.56800        -3.06400        -0.02700
| 48>    C        2.77500        -5.01200        -1.07400
| 49>    N        4.37600        -6.39100         0.01700
| 50>    C        1.95900        -2.86900        -0.00900
| 51>    C        2.62100        -1.62200         0.00900
| 52>    C        5.54300         4.33900        -1.13000
| 53>    C        4.07000        -1.47900        -0.09400
| 54>    C        4.10400         2.75100        -0.02100
| 55>    C        5.02700         2.72900         1.03600
| 56>    C        6.16600         3.50900         0.97800
| 57>    C        7.61900         5.15300        -0.11500
| 58>    C        4.32100        -0.14800        -0.09200
| 59>    C        3.02500         0.51400         0.01500
| 60>    C        4.38700         3.58200        -1.11500
| 61>    C        2.86600         1.91600         0.01300
| 62>    N        6.41300         4.29600        -0.09500
| 63>    H       -4.45700         6.21400         2.14900
| 64>    H        2.27400         4.76600         0.08100
| 65>    H       -2.81200         4.38700        -2.10200
| 66>    H       -4.22800         6.43100        -1.98800
| 67>    H       -4.51700         8.48000         0.10700
| 68>    H       -5.81200         7.64200        -0.80100
| 69>    H       -5.81600         7.62000         0.98500
| 70>    H       -0.33200         5.28200         0.06900
| 71>    H       -3.04900         4.16400         2.20600
| 72>    H        0.18200         1.07200         0.00500
| 73>    H       -0.18300        -1.08000        -0.02100
| 74>    H       -5.86400        -4.96200         1.89500
| 75>    H       -4.79400         2.27200         0.13900
| 76>    H       -4.80000        -2.16000        -1.99400
| 77>    H       -6.84100        -3.58200        -1.89300
| 78>    H       -8.42800        -4.53600         0.54600
| 79>    H       -7.95600        -5.33700        -0.98100
| 80>    H       -7.45600        -6.03700         0.58400
| 81>    H       -5.28700        -0.34400         0.10000
| 82>    H       -3.78000        -3.60100         1.94700
| 83>    H        3.58700        -6.86800        -1.84300
| 84>    H       -2.27600        -4.77400        -0.05000
| 85>    H        3.71400        -3.72400         1.92600
| 86>    H        5.09200        -5.79500         1.87100
| 87>    H        6.20500        -7.32900        -0.43900
| 88>    H        5.39300        -7.91700         1.04200
| 89>    H        4.75900        -8.37300        -0.56400
| 90>    H        0.32900        -5.29000        -0.00800
| 91>    H        2.14600        -4.84200        -1.94000
| 92>    H        5.80800         4.98600        -1.95600
| 93>    H        4.78800        -2.28100        -0.18500
| 94>    H        4.86000         2.11400         1.91200
| 95>    H        6.90100         3.53100         1.77200
| 96>    H        7.38300         6.10900         0.35600
| 97>    H        8.41400         4.65200         0.43500
| 98>    H        7.92100         5.31000        -1.15000
| 99>    H        5.28300         0.33600        -0.17900
|100>    H        3.72000         3.63200        -1.96700
|101> *
|102> 
|103>                          ****END OF INPUT****
================================================================================

                       ****************************
                       * Single Point Calculation *
                       ****************************

---------------------------------
CARTESIAN COORDINATES (ANGSTROEM)
---------------------------------
  C     -4.061000    5.769000    1.245000
  C      1.474000    4.041000    0.057000
  C     -2.802000    4.093000    0.049000
  C     -3.154000    4.750000   -1.140000
  C     -3.938000    5.886000   -1.099000
  C     -5.189000    7.619000    0.093000
  C      0.132000    4.307000    0.061000
  C     -0.569000    3.056000    0.047000
  C      1.649000    2.618000    0.023000
  C     -3.274000    4.634000    1.255000
  N     -4.383000    6.378000    0.081000
  N      0.388000    2.067000    0.025000
  N     -2.010000    0.395000   -0.075000
  N     -0.388000   -2.074000   -0.027000
  N      2.010000   -0.401000    0.065000
  C     -1.960000    2.861000    0.024000
  C     -2.623000    1.615000   -0.018000
  C     -5.573000   -4.329000    1.066000
  C     -4.073000    1.471000    0.056000
  C     -4.106000   -2.756000   -0.026000
  C     -4.995000   -2.757000   -1.111000
  C     -6.132000   -3.542000   -1.076000
  C     -7.651000   -5.113000    0.040000
  C     -4.324000    0.141000    0.037000
  C     -3.025000   -0.520000   -0.048000
  C     -4.422000   -3.566000    1.075000
  N     -6.407000   -4.313000    0.001000
  C     -2.867000   -1.922000   -0.040000
  C     -1.650000   -2.624000   -0.027000
  C      3.568000   -6.142000   -1.040000
  C     -1.476000   -4.049000   -0.034000
  C      2.803000   -4.099000   -0.008000
  C      3.657000   -4.384000    1.069000
  C      4.427000   -5.530000    1.059000
  C      5.245000   -7.588000    0.014000
  C     -0.134000   -4.315000   -0.022000
  C      0.568000   -3.064000   -0.027000
  C      2.775000   -5.012000   -1.074000
  N      4.376000   -6.391000    0.017000
  C      1.959000   -2.869000   -0.009000
  C      2.621000   -1.622000    0.009000
  C      5.543000    4.339000   -1.130000
  C      4.070000   -1.479000   -0.094000
  C      4.104000    2.751000   -0.021000
  C      5.027000    2.729000    1.036000
  C      6.166000    3.509000    0.978000
  C      7.619000    5.153000   -0.115000
  C      4.321000   -0.148000   -0.092000
  C      3.025000    0.514000    0.015000
  C      4.387000    3.582000   -1.115000
  C      2.866000    1.916000    0.013000
  N      6.413000    4.296000   -0.095000
  H     -4.457000    6.214000    2.149000
  H      2.274000    4.766000    0.081000
  H     -2.812000    4.387000   -2.102000
  H     -4.228000    6.431000   -1.988000
  H     -4.517000    8.480000    0.107000
  H     -5.812000    7.642000   -0.801000
  H     -5.816000    7.620000    0.985000
  H     -0.332000    5.282000    0.069000
  H     -3.049000    4.164000    2.206000
  H      0.182000    1.072000    0.005000
  H     -0.183000   -1.080000   -0.021000
  H     -5.864000   -4.962000    1.895000
  H     -4.794000    2.272000    0.139000
  H     -4.800000   -2.160000   -1.994000
  H     -6.841000   -3.582000   -1.893000
  H     -8.428000   -4.536000    0.546000
  H     -7.956000   -5.337000   -0.981000
  H     -7.456000   -6.037000    0.584000
  H     -5.287000   -0.344000    0.100000
  H     -3.780000   -3.601000    1.947000
  H      3.587000   -6.868000   -1.843000
  H     -2.276000   -4.774000   -0.050000
  H      3.714000   -3.724000    1.926000
  H      5.092000   -5.795000    1.871000
  H      6.205000   -7.329000   -0.439000
  H      5.393000   -7.917000    1.042000
  H      4.759000   -8.373000   -0.564000
  H      0.329000   -5.290000   -0.008000
  H      2.146000   -4.842000   -1.940000
  H      5.808000    4.986000   -1.956000
  H      4.788000   -2.281000   -0.185000
  H      4.860000    2.114000    1.912000
  H      6.901000    3.531000    1.772000
  H      7.383000    6.109000    0.356000
  H      8.414000    4.652000    0.435000
  H      7.921000    5.310000   -1.150000
  H      5.283000    0.336000   -0.179000
  H      3.720000    3.632000   -1.967000

----------------------------
CARTESIAN COORDINATES (A.U.)
----------------------------
  NO LB      ZA    FRAG     MASS         X           Y           Z
   0 C     6.0000    0    12.011   -7.674178   10.901830    2.352709
   1 C     6.0000    0    12.011    2.785456    7.636383    0.107714
   2 C     6.0000    0    12.011   -5.295013    7.734649    0.092597
   3 C     6.0000    0    12.011   -5.960196    8.976199   -2.154288
   4 C     6.0000    0    12.011   -7.441742   11.122928   -2.076809
   5 C     6.0000    0    12.011   -9.805789   14.397823    0.175745
   6 C     6.0000    0    12.011    0.249444    8.139050    0.115273
   7 C     6.0000    0    12.011   -1.075254    5.775003    0.088817
   8 C     6.0000    0    12.011    3.116158    4.947303    0.043464
   9 C     6.0000    0    12.011   -6.186963    8.756991    2.371606
  10 N     7.0000    0    14.007   -8.282670   12.052673    0.153068
  11 N     7.0000    0    14.007    0.733214    3.906064    0.047243
  12 N     7.0000    0    14.007   -3.798350    0.746442   -0.141729
  13 N     7.0000    0    14.007   -0.733214   -3.919292   -0.051023
  14 N     7.0000    0    14.007    3.798350   -0.757780    0.122832
  15 C     6.0000    0    12.011   -3.703863    5.406506    0.045353
  16 C     6.0000    0    12.011   -4.956752    3.051908   -0.034015
  17 C     6.0000    0    12.011  -10.531444   -8.180624    2.014448
  18 C     6.0000    0    12.011   -7.696855    2.779787    0.105825
  19 C     6.0000    0    12.011   -7.759216   -5.208085   -0.049133
  20 C     6.0000    0    12.011   -9.439182   -5.209975   -2.099486
  21 C     6.0000    0    12.011  -11.587801   -6.693410   -2.033345
  22 C     6.0000    0    12.011  -14.458295   -9.662170    0.075589
  23 C     6.0000    0    12.011   -8.171176    0.266451    0.069920
  24 C     6.0000    0    12.011   -5.716422   -0.982658   -0.090707
  25 C     6.0000    0    12.011   -8.356369   -6.738763    2.031456
  26 N     7.0000    0    14.007  -12.107475   -8.150389    0.001890
  27 C     6.0000    0    12.011   -5.417845   -3.632054   -0.075589
  28 C     6.0000    0    12.011   -3.118048   -4.958641   -0.051023
  29 C     6.0000    0    12.011    6.742543  -11.606698   -1.965315
  30 C     6.0000    0    12.011   -2.789236   -7.651501   -0.064251
  31 C     6.0000    0    12.011    5.296902   -7.745987   -0.015118
  32 C     6.0000    0    12.011    6.910728   -8.284559    2.020117
  33 C     6.0000    0    12.011    8.365818  -10.450186    2.001220
  34 C     6.0000    0    12.011    9.911614  -14.339242    0.026456
  35 C     6.0000    0    12.011   -0.253223   -8.154168   -0.041574
  36 C     6.0000    0    12.011    1.073364   -5.790121   -0.051023
  37 C     6.0000    0    12.011    5.243990   -9.471307   -2.029566
  38 N     7.0000    0    14.007    8.269442  -12.077240    0.032125
  39 C     6.0000    0    12.011    3.701973   -5.421624   -0.017008
  40 C     6.0000    0    12.011    4.952972   -3.065136    0.017008
  41 C     6.0000    0    12.011   10.474752    8.199522   -2.135391
  42 C     6.0000    0    12.011    7.691185   -2.794905   -0.177634
  43 C     6.0000    0    12.011    7.755436    5.198637   -0.039684
  44 C     6.0000    0    12.011    9.499653    5.157063    1.957756
  45 C     6.0000    0    12.011   11.652051    6.631049    1.848152
  46 C     6.0000    0    12.011   14.397823    9.737759   -0.217319
  47 C     6.0000    0    12.011    8.165507   -0.279679   -0.173855
  48 C     6.0000    0    12.011    5.716422    0.971319    0.028346
  49 C     6.0000    0    12.011    8.290229    6.768999   -2.107045
  50 C     6.0000    0    12.011    5.415955    3.620715    0.024566
  51 N     7.0000    0    14.007   12.118814    8.118263   -0.179524
  52 H     1.0000    0     1.008   -8.422509   11.742758    4.061021
  53 H     1.0000    0     1.008    4.297237    9.006435    0.153068
  54 H     1.0000    0     1.008   -5.313910    8.290229   -3.972204
  55 H     1.0000    0     1.008   -7.989762   12.152829   -3.756776
  56 H     1.0000    0     1.008   -8.535893   16.024878    0.202201
  57 H     1.0000    0     1.008  -10.983088   14.441287   -1.513671
  58 H     1.0000    0     1.008  -10.990647   14.399713    1.861380
  59 H     1.0000    0     1.008   -0.627389    9.981533    0.130391
  60 H     1.0000    0     1.008   -5.761775    7.868820    4.168736
  61 H     1.0000    0     1.008    0.343930    2.025786    0.009449
  62 H     1.0000    0     1.008   -0.345820   -2.040904   -0.039684
  63 H     1.0000    0     1.008  -11.081354   -9.376821    3.581031
  64 H     1.0000    0     1.008   -9.059347    4.293458    0.262672
  65 H     1.0000    0     1.008   -9.070685   -4.081808   -3.768114
  66 H     1.0000    0     1.008  -12.927616   -6.768999   -3.577252
  67 H     1.0000    0     1.008  -15.926612   -8.571798    1.031790
  68 H     1.0000    0     1.008  -15.034661  -10.085468   -1.853821
  69 H     1.0000    0     1.008  -14.089798  -11.408277    1.103600
  70 H     1.0000    0     1.008   -9.990982   -0.650066    0.188973
  71 H     1.0000    0     1.008   -7.143165   -6.804904    3.679297
  72 H     1.0000    0     1.008    6.778448  -12.978639   -3.482765
  73 H     1.0000    0     1.008   -4.301017   -9.021553   -0.094486
  74 H     1.0000    0     1.008    7.018443   -7.037340    3.639613
  75 H     1.0000    0     1.008    9.622485  -10.950963    3.535678
  76 H     1.0000    0     1.008   11.725751  -13.849803   -0.829590
  77 H     1.0000    0     1.008   10.191293  -14.960962    1.969095
  78 H     1.0000    0     1.008    8.993207  -15.822677   -1.065806
  79 H     1.0000    0     1.008    0.621720   -9.996651   -0.015118
  80 H     1.0000    0     1.008    4.055352   -9.150054   -3.666069
  81 H     1.0000    0     1.008   10.975529    9.422175   -3.696304
  82 H     1.0000    0     1.008    9.048009   -4.310465   -0.349599
  83 H     1.0000    0     1.008    9.184069    3.994881    3.613156
  84 H     1.0000    0     1.008   13.041000    6.672623    3.348595
  85 H     1.0000    0     1.008   13.951848   11.544337    0.672743
  86 H     1.0000    0     1.008   15.900156    8.791006    0.822031
  87 H     1.0000    0     1.008   14.968521   10.034446   -2.173185
  88 H     1.0000    0     1.008    9.983423    0.634948   -0.338261
  89 H     1.0000    0     1.008    7.029781    6.863485   -3.717091

--------------------------------
INTERNAL COORDINATES (ANGSTROEM)
--------------------------------
 C      0   0   0     0.000000000000     0.00000000     0.00000000
 C      1   0   0     5.918914849869     0.00000000     0.00000000
 C      1   2   0     2.413394497383    37.81025857     0.00000000
 C      3   1   2     1.403308234138    87.93126058   253.62994019
 C      4   3   1     1.380881240368   120.15956904     0.14372555
 C      5   4   3     2.447274810887   152.52877311     1.64746061
 C      2   1   3     1.368114030335    12.93174672    27.38274755
 C      7   2   3     1.434084376876   108.05010202     0.84668783
 C      2   1   3     1.434123425651   114.11380229   322.12852896
 C      1   2   3     1.381192962623    39.52987400    49.19700741
 N      1   2   3     1.352575691043   100.44797934   282.73219399
 N      9   2   1     1.376127174356   106.58526707    11.59260979
 N     12   9   2     2.925062050624   168.53581413   171.12065651
 N     13  12   9     2.954513327098    91.55032014    11.12112580
 N     14  13  12     2.925371258490    88.43092389   359.84326247
 C      8   7   2     1.404790019896   127.24786865   181.11170171
 C     13  12   9     1.366535034311    81.72106996   188.00453233
 C     14  13  12     5.758810554272    80.56209567   166.76250791
 C     17  13  12     1.459010623676   111.08861209   183.82872609
 C     18  14  13     2.412235892279    27.27532823    36.33507194
 C     20  18  14     1.402692767501    87.95206320   148.94598259
 C     21  20  18     1.382106725257   120.14573887   359.70382047
 C     18  14  13     2.446510985056   144.15733107    82.80075377
 C     19  17  13     1.353610726908   106.29293361   359.75308708
 C     13  12   9     1.366813447402   172.21332906    33.46711076
 C     18  14  13     1.380960173213    15.08449437   309.23336894
 N     22  21  20     1.352773077792   120.73759875     0.27865223
 C     25  13  17     1.410897586645   125.60330303   182.37774668
 C     14  13  12     1.376642291955    80.24689249   177.85461986
 C     14  13  12     5.764089607215   164.51507311   312.20821879
 C     29  14  13     1.435600919476   106.58649366   178.76395472
 C     30  14  13     2.413316804732    27.10625047    82.12560436
 C     32  30  14     1.403734305344    87.90059683   149.76154742
 C     33  32  30     1.380694028378   120.14881443   359.74174632
 C     34  33  32     2.448777858443   152.49203239     2.45173620
 C     31  29  14     1.368160809262   108.16950133     0.70383075
 C     14  13  12     1.376239804685   169.26375223   353.09862627
 C     30  14  13     1.380907310430    14.68948582   353.70041132
 N     34  33  32     1.352658863128   120.85575621     0.19603406
 C     37  14  29     1.404717053360   126.01551127   180.90772073
 C     15  14  13     1.366491126938    81.61824056   183.09049352
 C      2   1   3     4.249062720177   158.60762982   130.86853176
 C     41  15  14     1.459677704153   111.05201287   175.08990246
 C     42   2   1     2.412953791518    41.78584867   166.63703400
 C     44  42   2     1.403446472082    87.95153797   233.97558675
 C     45  44  42     1.381696421071   120.11137308     0.19721020
 C     42   2   1     2.450019795838   135.97209175    76.95188310
 C     43  41  15     1.354461516618   106.26758155     0.30894352
 C     15  14  13     1.367461151185   171.87382904   332.35056460
 C     42   2   1     1.381886391857    32.59078432   215.49231319
 C      9   2   1     1.404988612053   126.98745415   192.59694732
 N     42   2   1     1.352765315936   113.57249190   104.68847229
 H      1   2   3     1.082615813666   129.02466116   145.52520507
 H      2   1   3     1.079907866440   119.49149707   154.02654815
 H      4   3   1     1.083594481344   121.07771931   179.52848499
 H      5   4   3     1.082333589980   122.81860565   179.47521193
 H      6   5   4     1.092291627726   104.47407111   100.03010245
 H      6   5   4     1.089905500491    84.69922140   209.56945095
 H      6   5   4     1.090318302149   133.87509198   322.38254268
 H      7   2  54     1.079807853278   126.66122480     1.30600390
 H     10   1   2     1.084401217262   118.73367105   113.91517093
 H     12   9   2     1.016297692608   125.29023241   180.00180175
 H     14  13  12     1.014936943854    44.97226959   359.42596618
 H     18  14  13     1.082871645210   128.03556573   234.20482432
 H     19  17  13     1.080893611786   126.41830519   178.11313280
 H     21  20  18     1.083569563987   121.05669627   180.67006309
 H     22  21  20     1.082483256222   122.73097286   180.59748951
 H     23  18  14     1.092105306278   103.92715769   234.93429879
 H     23  18  14     1.088871893291   134.19244188    12.25587044
 H     23  18  14     1.089833473518    84.85857450   125.45241208
 H     24  19  17     1.080075460327   127.28078426   178.44613241
 H     26  18  14     1.083408048706   118.76995697   244.94906660
 H     30  14  13     1.082703098730   127.99711412   279.66882698
 H     31  29  14     1.079759695488   125.22293469   180.92530585
 H     33  32  30     1.083188810873   121.01964473   180.74284758
 H     34  33  32     1.082494341787   122.70821597   180.59516895
 H     35  34  33     1.092652735319   105.73575241    97.19771933
 H     35  34  33     1.089462711615    84.05943581   206.43036958
 H     35  34  33     1.089268102902   133.08365142   318.50306270
 H     36  31  29     1.079439669458   126.61599965   178.98859863
 H     38  30  73     1.083742127999   118.77264435   359.90091293
 H     42   2   1     1.082178358682   119.31790784   321.32000275
 H     43  41  15     1.080281907652   126.36969097   182.06329380
 H     45  44  42     1.083277434455   121.10105945   179.58025624
 H     46  45  44     1.082194529648   122.72144639   179.46906377
 H     47  42   2     1.091546151109   106.65128841   315.16475048
 H     47  42   2     1.088818625851   132.46019523    94.52397119
 H     47  42   2     1.089531091801    83.63838232   206.04504406
 H     48  43  41     1.080402239909   127.23657387   181.62955349
 H     50  42   2     1.083186502870   118.77001737    94.71359229

---------------------------
INTERNAL COORDINATES (A.U.)
---------------------------
 C      0   0   0     0.000000000000     0.00000000     0.00000000
 C      1   0   0    11.185128076252     0.00000000     0.00000000
 C      1   2   0     4.560654653167    37.81025857     0.00000000
 C      3   1   2     2.651868243998    87.93126058   253.62994019
 C      4   3   1     2.609487367765   120.15956904     0.14372555
 C      5   4   3     4.624679167020   152.52877311     1.64746061
 C      2   1   3     2.585360837309    12.93174672    27.38274755
 C      7   2   3     2.710026725231   108.05010202     0.84668783
 C      2   1   3     2.710100516721   114.11380229   322.12852896
 C      1   2   3     2.610076437457    39.52987400    49.19700741
 N      1   2   3     2.555997631470   100.44797934   282.73219399
 N      9   2   1     2.600503484979   106.58526707    11.59260979
 N     12   9   2     5.527566200405   168.53581413   171.12065651
 N     13  12   9     5.583221047236    91.55032014    11.12112580
 N     14  13  12     5.528150518591    88.43092389   359.84326247
 C      8   7   2     2.654668413270   127.24786865   181.11170171
 C     13  12   9     2.582376967257    81.72106996   188.00453233
 C     14  13  12    10.882574804710    80.56209567   166.76250791
 C     17  13  12     2.757130505230   111.08861209   183.82872609
 C     18  14  13     4.558465206823    27.27532823    36.33507194
 C     20  18  14     2.650705180609    87.95206320   148.94598259
 C     21  20  18     2.611803198586   120.14573887   359.70382047
 C     18  14  13     4.623235745386   144.15733107    82.80075377
 C     19  17  13     2.557953565794   106.29293361   359.75308708
 C     13  12   9     2.582903091751   172.21332906    33.46711076
 C     18  14  13     2.609636529225    15.08449437   309.23336894
 N     22  21  20     2.556370638369   120.73759875     0.27865223
 C     25  13  17     2.666210041769   125.60330303   182.37774668
 C     14  13  12     2.601476916169    80.24689249   177.85461986
 C     14  13  12    10.892550769017   164.51507311   312.20821879
 C     29  14  13     2.712892575415   106.58649366   178.76395472
 C     30  14  13     4.560507835333    27.10625047    82.12560436
 C     32  30  14     2.652673401891    87.90059683   149.76154742
 C     33  32  30     2.609133588376   120.14881443   359.74174632
 C     34  33  32     4.627519515267   152.49203239     2.45173620
 C     31  29  14     2.585449236669   108.16950133     0.70383075
 C     14  13  12     2.600716325456   169.26375223   353.09862627
 C     30  14  13     2.609536633043    14.68948582   353.70041132
 N     34  33  32     2.556154803934   120.85575621     0.19603406
 C     37  14  29     2.654530526499   126.01551127   180.90772073
 C     15  14  13     2.582293994346    81.61824056   183.09049352
 C      2   1   3     8.029564866989   158.60762982   130.86853176
 C     41  15  14     2.758391104639   111.05201287   175.08990246
 C     42   2   1     4.559821839776    41.78584867   166.63703400
 C     44  42   2     2.652129475853    87.95153797   233.97558675
 C     45  44  42     2.611027836043   120.11137308     0.19721020
 C     42   2   1     4.629866436820   135.97209175    76.95188310
 C     43  41  15     2.559561325344   106.26758155     0.30894352
 C     15  14  13     2.584127074516   171.87382904   332.35056460
 C     42   2   1     2.611386828803    32.59078432   215.49231319
 C      9   2   1     2.655043698059   126.98745415   192.59694732
 N     42   2   1     2.556355970587   113.57249190   104.68847229
 H      1   2   3     2.045847396081   129.02466116   145.52520507
 H      2   1   3     2.040730117440   119.49149707   154.02654815
 H      4   3   1     2.047696809969   121.07771931   179.52848499
 H      5   4   3     2.045314070607   122.81860565   179.47521193
 H      6   5   4     2.064132034777   104.47407111   100.03010245
 H      6   5   4     2.059622907782    84.69922140   209.56945095
 H      6   5   4     2.060402989863   133.87509198   322.38254268
 H      7   2  54     2.040541119952   126.66122480     1.30600390
 H     10   1   2     2.049221319917   118.73367105   113.91517093
 H     12   9   2     1.920524309565   125.29023241   180.00180175
 H     14  13  12     1.917952867083    44.97226959   359.42596618
 H     18  14  13     2.046330847636   128.03556573   234.20482432
 H     19  17  13     2.042592906181   126.41830519   178.11313280
 H     21  20  18     2.047649722989   121.05669627   180.67006309
 H     22  21  20     2.045596898814   122.73097286   180.59748951
 H     23  18  14     2.063779938267   103.92715769   234.93429879
 H     23  18  14     2.057669673245   134.19244188    12.25587044
 H     23  18  14     2.059486796529    84.85857450   125.45241208
 H     24  19  17     2.041046823986   127.28078426   178.44613241
 H     26  18  14     2.047344503340   118.76995697   244.94906660
 H     30  14  13     2.046012340948   127.99711412   279.66882698
 H     31  29  14     2.040450114918   125.22293469   180.92530585
 H     33  32  30     2.046930203877   121.01964473   180.74284758
 H     34  33  32     2.045617847496   122.70821597   180.59516895
 H     35  34  33     2.064814429233   105.73575241    97.19771933
 H     35  34  33     2.058786158072    84.05943581   206.43036958
 H     35  34  33     2.058418400901   133.08365142   318.50306270
 H     36  31  29     2.039845353366   126.61599965   178.98859863
 H     38  30  73     2.047975821711   118.77264435   359.90091293
 H     42   2   1     2.045020725966   119.31790784   321.32000275
 H     43  41  15     2.041436952892   126.36969097   182.06329380
 H     45  44  42     2.047097678177   121.10105945   179.58025624
 H     46  45  44     2.045051284662   122.72144639   179.46906377
 H     47  42   2     2.062723288131   106.65128841   315.16475048
 H     47  42   2     2.057569012371   132.46019523    94.52397119
 H     47  42   2     2.058915377895    83.63838232   206.04504406
 H     48  43  41     2.041664347903   127.23657387   181.62955349
 H     50  42   2     2.046925842384   118.77001737    94.71359229

---------------------
BASIS SET INFORMATION
---------------------
There are 3 groups of distinct atoms

 Group   1 Type C   : 17s4p1d contracted to 3s2p1d pattern {881/31/1}
 Group   2 Type N   : 17s4p1d contracted to 3s2p1d pattern {881/31/1}
 Group   3 Type H   : 4s1p contracted to 2s1p pattern {31/1}

Atom   0C    basis set group =>   1
Atom   1N    basis set group =>   2
Atom   2C    basis set group =>   1
Atom   3N    basis set group =>   2
Atom   4C    basis set group =>   1
Atom   5N    basis set group =>   2
Atom   6C    basis set group =>   1
Atom   7N    basis set group =>   2
Atom   8C    basis set group =>   1
Atom   9N    basis set group =>   2
Atom  10C    basis set group =>   1
Atom  11N    basis set group =>   2
Atom  12C    basis set group =>   1
Atom  13N    basis set group =>   2
Atom  14C    basis set group =>   1
Atom  15N    basis set group =>   2
Atom  16C    basis set group =>   1
Atom  17C    basis set group =>   1
Atom  18C    basis set group =>   1
Atom  19C    basis set group =>   1
Atom  20C    basis set group =>   1
Atom  21C    basis set group =>   1
Atom  22C    basis set group =>   1
Atom  23C    basis set group =>   1
Atom  24C    basis set group =>   1
Atom  25C    basis set group =>   1
Atom  26C    basis set group =>   1
Atom  27C    basis set group =>   1
Atom  28C    basis set group =>   1
Atom  29C    basis set group =>   1
Atom  30C    basis set group =>   1
Atom  31C    basis set group =>   1
Atom  32C    basis set group =>   1
Atom  33C    basis set group =>   1
Atom  34C    basis set group =>   1
Atom  35C    basis set group =>   1
Atom  36C    basis set group =>   1
Atom  37C    basis set group =>   1
Atom  38C    basis set group =>   1
Atom  39C    basis set group =>   1
Atom  40C    basis set group =>   1
Atom  41C    basis set group =>   1
Atom  42C    basis set group =>   1
Atom  43C    basis set group =>   1
Atom  44C    basis set group =>   1
Atom  45C    basis set group =>   1
Atom  46C    basis set group =>   1
Atom  47C    basis set group =>   1
Atom  48C    basis set group =>   1
Atom  49C    basis set group =>   1
Atom  50C    basis set group =>   1
Atom  51C    basis set group =>   1
Atom  52H    basis set group =>   3
Atom  53H    basis set group =>   3
Atom  54H    basis set group =>   3
Atom  55H    basis set group =>   3
Atom  56H    basis set group =>   3
Atom  57H    basis set group =>   3
Atom  58H    basis set group =>   3
Atom  59H    basis set group =>   3
Atom  60H    basis set group =>   3
Atom  61H    basis set group =>   3
Atom  62H    basis set group =>   3
Atom  63H    basis set group =>   3
Atom  64H    basis set group =>   3
Atom  65H    basis set group =>   3
Atom  66H    basis set group =>   3
Atom  67H    basis set group =>   3
Atom  68H    basis set group =>   3
Atom  69H    basis set group =>   3
Atom  70H    basis set group =>   3
Atom  71H    basis set group =>   3
Atom  72H    basis set group =>   3
Atom  73H    basis set group =>   3
Atom  74H    basis set group =>   3
Atom  75H    basis set group =>   3
Atom  76H    basis set group =>   3
Atom  77H    basis set group =>   3
Atom  78H    basis set group =>   3
Atom  79H    basis set group =>   3
Atom  80H    basis set group =>   3
Atom  81H    basis set group =>   3
Atom  82H    basis set group =>   3
Atom  83H    basis set group =>   3
Atom  84H    basis set group =>   3
Atom  85H    basis set group =>   3
Atom  86H    basis set group =>   3
Atom  87H    basis set group =>   3
Atom  88H    basis set group =>   3
Atom  89H    basis set group =>   3


           ************************************************************
           *        Program running with 16 parallel MPI-processes    *
           *              working on a common directory               *
           ************************************************************
------------------------------------------------------------------------------
                           ORCA GTO INTEGRAL CALCULATION
------------------------------------------------------------------------------
------------------------------------------------------------------------------
                   ___                                                        
                  /   \      - P O W E R E D   B Y -                         
                 /     \                                                     
                 |  |  |   _    _      __       _____    __    __             
                 |  |  |  | |  | |    /  \     |  _  \  |  |  /  |          
                  \  \/   | |  | |   /    \    | | | |  |  | /  /          
                 / \  \   | |__| |  /  /\  \   | |_| |  |  |/  /          
                |  |  |   |  __  | /  /__\  \  |    /   |      \           
                |  |  |   | |  | | |   __   |  |    \   |  |\   \          
                \     /   | |  | | |  |  |  |  | |\  \  |  | \   \       
                 \___/    |_|  |_| |__|  |__|  |_| \__\ |__|  \__/        
                                                                              
                      - O R C A' S   B I G   F R I E N D -                    
                                      &                                       
                       - I N T E G R A L  F E E D E R -                       
                                                                              
 v1 FN, 2020, v2 2021                                                         
------------------------------------------------------------------------------


Reading SHARK input file /scratch/allen/tmpyp4_amber_gaff2/conf1/conf1/Conf268.orca.SHARKINP.tmp ... ok
----------------------
SHARK INTEGRAL PACKAGE
----------------------

Number of atoms                             ...     90
Number of basis functions                   ...   1230
Number of shells                            ...    738
Maximum angular momentum                    ...      2
Integral batch strategy                     ... SHARK/LIBINT Hybrid
RI-J (if used) integral strategy            ... SPLIT-RIJ (Revised 2003 algorithm where possible)
Printlevel                                  ...      1
Contraction scheme used                     ... PARTIAL GENERAL contraction
Coulomb Range Separation                    ... NOT USED
Exchange Range Separation                   ... NOT USED
Finite Nucleus Model                        ... NOT USED
Auxiliary Coulomb fitting basis             ... NOT available
Auxiliary J/K fitting basis                 ... NOT available
Auxiliary Correlation fitting basis         ... NOT available
Auxiliary 'external' fitting basis          ... NOT available
Integral threshold                          ...     2.500000e-11
Primitive cut-off                           ...     2.500000e-12
Primitive pair pre-selection threshold      ...     2.500000e-12

Calculating pre-screening integrals         ... done (  0.1 sec) Dimension = 738
Calculating pre-screening integrals (ORCA)  ... done (  0.3 sec) Dimension = 426
Organizing shell pair data                  ... done (  0.7 sec)
Shell pair information
Total number of shell pairs                 ...    272691
Shell pairs after pre-screening             ...     71615
Total number of primitive shell pairs       ...    422091
Primitive shell pairs kept                  ...     92356
          la=0 lb=0:  29422 shell pairs
          la=1 lb=0:  25967 shell pairs
          la=1 lb=1:   4685 shell pairs
          la=2 lb=0:   7896 shell pairs
          la=2 lb=1:   3115 shell pairs
          la=2 lb=2:    530 shell pairs

Calculating one electron integrals          ... done (  0.2 sec)
Calculating Nuclear repulsion               ... done (  0.0 sec) ENN=   6221.863683841161 Eh

SHARK setup successfully completed in   2.2 seconds

Maximum memory used throughout the entire GTOINT-calculation: 98.9 MB


           ************************************************************
           *        Program running with 16 parallel MPI-processes    *
           *              working on a common directory               *
           ************************************************************
-------------------------------------------------------------------------------
                                 ORCA SCF
-------------------------------------------------------------------------------

------------
SCF SETTINGS
------------
Hamiltonian:
 Ab initio Hamiltonian  Method          .... Hartree-Fock(GTOs)


General Settings:
 Integral files         IntName         .... /scratch/allen/tmpyp4_amber_gaff2/conf1/conf1/Conf268.orca
 Hartree-Fock type      HFTyp           .... RHF
 Total Charge           Charge          ....    0
 Multiplicity           Mult            ....    1
 Number of Electrons    NEL             ....  358
 Basis Dimension        Dim             ....  918
 Nuclear Repulsion      ENuc            ....   6221.8636838412 Eh

Convergence Acceleration:
 DIIS                   CNVDIIS         .... on
   Start iteration      DIISMaxIt       ....    12
   Startup error        DIISStart       ....  0.200000
   # of expansion vecs  DIISMaxEq       ....     5
   Bias factor          DIISBfac        ....   1.050
   Max. coefficient     DIISMaxC        ....  10.000
 Trust-Rad. Augm. Hess. CNVTRAH         .... auto
   Auto Start mean grad. ratio tolernc. ....  1.125000
   Auto Start start iteration           ....    20
   Auto Start num. interpolation iter.  ....    10
   Max. Number of Micro iterations      ....    16
   Max. Number of Macro iterations      .... Maxiter - #DIIS iter
   Number of Davidson start vectors     ....     2
   Converg. threshold I  (grad. norm)   ....   1.000e-05
   Converg. threshold II (energy diff.) ....   1.000e-08
   Grad. Scal. Fac. for Micro threshold ....   0.100
   Minimum threshold for Micro iter.    ....   0.010
   NR start threshold (gradient norm)   ....   0.001
   Initial trust radius                 ....   0.400
   Minimum AH scaling param. (alpha)    ....   1.000
   Maximum AH scaling param. (alpha)    .... 1000.000
   Orbital update algorithm             .... Taylor
   White noise on init. David. guess    .... on
   Maximum white noise                  ....   0.010
   Quad. conv. algorithm                .... NR
 SOSCF                  CNVSOSCF        .... on
   Start iteration      SOSCFMaxIt      ....   150
   Startup grad/error   SOSCFStart      ....  0.003300
 Level Shifting         CNVShift        .... on
   Level shift para.    LevelShift      ....    0.2500
   Turn off err/grad.   ShiftErr        ....    0.0010
 Zerner damping         CNVZerner       .... off
 Static damping         CNVDamp         .... on
   Fraction old density DampFac         ....    0.7000
   Max. Damping (<1)    DampMax         ....    0.9800
   Min. Damping (>=0)   DampMin         ....    0.0000
   Turn off err/grad.   DampErr         ....    0.1000
 Fernandez-Rico         CNVRico         .... off

SCF Procedure:
 Maximum # iterations   MaxIter         ....   125
 SCF integral mode      SCFMode         .... Direct
   Integral package                     .... SHARK and LIBINT hybrid scheme
 Reset frequency        DirectResetFreq ....    20
 Integral Threshold     Thresh          ....  2.500e-11 Eh
 Primitive CutOff       TCut            ....  2.500e-12 Eh

Convergence Tolerance:
 Convergence Check Mode ConvCheckMode   .... Total+1el-Energy
 Convergence forced     ConvForced      .... 1
 Energy Change          TolE            ....  1.000e-08 Eh
 1-El. energy change                    ....  1.000e-05 Eh
 Orbital Gradient       TolG            ....  1.000e-05
 Orbital Rotation angle TolX            ....  1.000e-05
 DIIS Error             TolErr          ....  5.000e-07


Diagonalization of the overlap matrix:
Smallest eigenvalue                        ... 2.263e-04
Time for diagonalization                   ...    0.465 sec
Threshold for overlap eigenvalues          ... 1.000e-08
Number of eigenvalues below threshold      ... 0
Time for construction of square roots      ...    0.269 sec
Total time needed                          ...    0.741 sec

Time for model grid setup =    1.296 sec

------------------------------
INITIAL GUESS: MODEL POTENTIAL
------------------------------
Loading Hartree-Fock densities                     ... done
Calculating cut-offs                               ... done
Initializing the effective Hamiltonian             ... done
Setting up the integral package (SHARK)            ... done
Starting the Coulomb interaction                   ... done (   1.4 sec)
Reading the grid                                   ... done
Mapping shells                                     ... done
Starting the XC term evaluation                    ... done (   0.2 sec)
Transforming the Hamiltonian                       ... done (   0.3 sec)
Diagonalizing the Hamiltonian                      ... done (   0.4 sec)
Back transforming the eigenvectors                 ... done (   0.1 sec)
Now organizing SCF variables                       ... done
                      ------------------
                      INITIAL GUESS DONE (   3.8 sec)
                      ------------------
--------------
SCF ITERATIONS
--------------
ITER       Energy         Delta-E        Max-DP      RMS-DP      [F,P]     Damp
               ***  Starting incremental Fock matrix formation  ***
  0  -2121.6408057433   0.000000000000 0.06934392  0.00121206  0.2351347 0.7000
  1  -2122.3097996325  -0.668993889214 0.05272015  0.00098202  0.1454635 0.7000
                               ***Turning on DIIS***
  2  -2122.7259816715  -0.416182039073 0.11744975  0.00221917  0.0807619 0.0000
  3  -2117.7734716591   4.952510012432 0.03412144  0.00068533  0.0442509 0.0000
  4  -2123.4147863515  -5.641314692388 0.00936078  0.00023061  0.0074104 0.0000
  5  -2123.5809436792  -0.166157327696 0.00557821  0.00013897  0.0051670 0.0000
  6  -2123.5593766876   0.021566991576 0.00473505  0.00009552  0.0024928 0.0000
  7  -2123.6636540091  -0.104277321485 0.00425769  0.00008094  0.0019681 0.0000
  8  -2123.6918072871  -0.028153277950 0.00415739  0.00008282  0.0018549 0.0000
  9  -2123.6503778647   0.041429422341 0.00301556  0.00006128  0.0015038 0.0000
 10  -2123.6737392483  -0.023361383552 0.00306042  0.00006013  0.0011501 0.0000
 11  -2123.6698459053   0.003893342924 0.00917526  0.00014173  0.0009884 0.0000
                      *** Initiating the SOSCF procedure ***
                           *** Shutting down DIIS ***
                      *** Re-Reading the Fockian *** 
                      *** Removing any level shift *** 
ITER      Energy       Delta-E        Grad      Rot      Max-DP    RMS-DP
 12  -2123.51003900   0.1598069048  0.000391  0.000391  0.000450  0.000010
               *** Restarting incremental Fock matrix formation ***
 13  -2123.60870789  -0.0986688868  0.001447  0.014355  0.002471  0.000059
 14  -2123.60900297  -0.0002950830  0.001987  0.078341  0.015839  0.000262
 15  -2123.60978050  -0.0007775325  0.000849  0.035595  0.008842  0.000119
 16  -2123.60995456  -0.0001740591  0.000748  0.010955  0.003806  0.000039
 17  -2123.61001562  -0.0000610565  0.000389  0.003573  0.001400  0.000028
 18  -2123.61004555  -0.0000299271  0.000236  0.002045  0.001053  0.000016
 19  -2123.61005555  -0.0000100045  0.000102  0.001575  0.000673  0.000011
 20  -2123.61005972  -0.0000041743  0.000097  0.000751  0.000237  0.000004
 21  -2123.61006103  -0.0000013090  0.000049  0.000781  0.000188  0.000004
 22  -2123.61006153  -0.0000004997  0.000037  0.000554  0.000095  0.000002
 23  -2123.61006177  -0.0000002408  0.000017  0.000568  0.000089  0.000002
 24  -2123.61006192  -0.0000001466  0.000015  0.000533  0.000088  0.000002
 25  -2123.61006199  -0.0000000731  0.000011  0.000341  0.000061  0.000001
 26  -2123.61006203  -0.0000000354  0.000007  0.000245  0.000050  0.000001
 27  -2123.61006205  -0.0000000173  0.000006  0.000137  0.000037  0.000001
 28  -2123.61006205  -0.0000000058  0.000005  0.000132  0.000038  0.000000
 29  -2123.61006206  -0.0000000037  0.000004  0.000199  0.000057  0.000001
 30  -2123.61006206  -0.0000000002  0.000003  0.000149  0.000042  0.000001
                  ***Gradient check signals convergence***
              ***Rediagonalizing the Fockian in SOSCF/NRSCF***

               *****************************************************
               *                     SUCCESS                       *
               *           SCF CONVERGED AFTER  31 CYCLES          *
               *****************************************************


----------------
TOTAL SCF ENERGY
----------------

Total Energy       :        -2123.61006206 Eh          -57786.36759 eV

Components:
Nuclear Repulsion  :         6221.86368384 Eh          169305.51816 eV
Electronic Energy  :        -8345.47374590 Eh         -227091.88575 eV
One Electron Energy:       -15285.21758191 Eh         -415931.91597 eV
Two Electron Energy:         6939.74383601 Eh          188840.03022 eV

Virial components:
Potential Energy   :        -4245.59139029 Eh         -115528.41508 eV
Kinetic Energy     :         2121.98132823 Eh           57742.04749 eV
Virial Ratio       :            2.00076755


---------------
SCF CONVERGENCE
---------------

  Last Energy change         ...   -1.1551e-09  Tolerance :   1.0000e-08
  Last MAX-Density change    ...    2.3319e-05  Tolerance :   1.0000e-07
  Last RMS-Density change    ...    3.1246e-07  Tolerance :   5.0000e-09
  Last Orbital Gradient      ...    2.0891e-06  Tolerance :   1.0000e-05
  Last Orbital Rotation      ...    8.4306e-05  Tolerance :   1.0000e-05

             **** THE GBW FILE WAS UPDATED (/scratch/allen/tmpyp4_amber_gaff2/conf1/conf1/Conf268.orca.gbw) ****
             **** DENSITY /scratch/allen/tmpyp4_amber_gaff2/conf1/conf1/Conf268.orca.scfp WAS UPDATED ****
             **** ENERGY FILE WAS UPDATED (/scratch/allen/tmpyp4_amber_gaff2/conf1/conf1/Conf268.orca.en.tmp) ****
             **** THE GBW FILE WAS UPDATED (/scratch/allen/tmpyp4_amber_gaff2/conf1/conf1/Conf268.orca.gbw) ****
             **** DENSITY /scratch/allen/tmpyp4_amber_gaff2/conf1/conf1/Conf268.orca.scfp WAS UPDATED ****
----------------
ORBITAL ENERGIES
----------------

  NO   OCC          E(Eh)            E(eV) 
   0   2.0000     -15.720878      -427.7869 
   1   2.0000     -15.628293      -425.2675 
   2   2.0000     -15.618213      -424.9932 
   3   2.0000     -15.575898      -423.8417 
   4   2.0000     -15.520844      -422.3436 
   5   2.0000     -15.503973      -421.8845 
   6   2.0000     -15.451399      -420.4539 
   7   2.0000     -15.426606      -419.7793 
   8   2.0000     -11.358041      -309.0680 
   9   2.0000     -11.357559      -309.0549 
  10   2.0000     -11.350838      -308.8720 
  11   2.0000     -11.314620      -307.8865 
  12   2.0000     -11.296275      -307.3873 
  13   2.0000     -11.290541      -307.2312 
  14   2.0000     -11.289393      -307.2000 
  15   2.0000     -11.287227      -307.1411 
  16   2.0000     -11.287117      -307.1381 
  17   2.0000     -11.281253      -306.9785 
  18   2.0000     -11.280222      -306.9504 
  19   2.0000     -11.270901      -306.6968 
  20   2.0000     -11.262741      -306.4748 
  21   2.0000     -11.242536      -305.9250 
  22   2.0000     -11.238861      -305.8250 
  23   2.0000     -11.232056      -305.6398 
  24   2.0000     -11.226635      -305.4923 
  25   2.0000     -11.225739      -305.4679 
  26   2.0000     -11.222539      -305.3808 
  27   2.0000     -11.218705      -305.2765 
  28   2.0000     -11.218380      -305.2676 
  29   2.0000     -11.211473      -305.0797 
  30   2.0000     -11.209603      -305.0288 
  31   2.0000     -11.195787      -304.6529 
  32   2.0000     -11.194689      -304.6230 
  33   2.0000     -11.193335      -304.5861 
  34   2.0000     -11.187730      -304.4336 
  35   2.0000     -11.186970      -304.4129 
  36   2.0000     -11.182511      -304.2916 
  37   2.0000     -11.179541      -304.2108 
  38   2.0000     -11.179506      -304.2098 
  39   2.0000     -11.178184      -304.1739 
  40   2.0000     -11.170523      -303.9654 
  41   2.0000     -11.165415      -303.8264 
  42   2.0000     -11.164472      -303.8007 
  43   2.0000     -11.162111      -303.7365 
  44   2.0000     -11.160519      -303.6932 
  45   2.0000     -11.144307      -303.2520 
  46   2.0000     -11.143722      -303.2361 
  47   2.0000     -11.140368      -303.1448 
  48   2.0000     -11.136944      -303.0516 
  49   2.0000     -11.130451      -302.8750 
  50   2.0000     -11.116398      -302.4926 
  51   2.0000     -11.110634      -302.3357 
  52   2.0000      -1.392246       -37.8849 
  53   2.0000      -1.316570       -35.8257 
  54   2.0000      -1.307276       -35.5728 
  55   2.0000      -1.271274       -34.5931 
  56   2.0000      -1.224652       -33.3245 
  57   2.0000      -1.199985       -32.6532 
  58   2.0000      -1.178588       -32.0710 
  59   2.0000      -1.165576       -31.7169 
  60   2.0000      -1.136613       -30.9288 
  61   2.0000      -1.110096       -30.2073 
  62   2.0000      -1.105900       -30.0931 
  63   2.0000      -1.097091       -29.8534 
  64   2.0000      -1.065549       -28.9951 
  65   2.0000      -1.057991       -28.7894 
  66   2.0000      -1.041034       -28.3280 
  67   2.0000      -1.032247       -28.0889 
  68   2.0000      -1.015298       -27.6277 
  69   2.0000      -1.003868       -27.3166 
  70   2.0000      -0.998531       -27.1714 
  71   2.0000      -0.995269       -27.0826 
  72   2.0000      -0.985615       -26.8200 
  73   2.0000      -0.975833       -26.5538 
  74   2.0000      -0.964482       -26.2449 
  75   2.0000      -0.961176       -26.1549 
  76   2.0000      -0.950700       -25.8699 
  77   2.0000      -0.940301       -25.5869 
  78   2.0000      -0.935923       -25.4678 
  79   2.0000      -0.919530       -25.0217 
  80   2.0000      -0.912039       -24.8178 
  81   2.0000      -0.891421       -24.2568 
  82   2.0000      -0.886893       -24.1336 
  83   2.0000      -0.868160       -23.6238 
  84   2.0000      -0.859782       -23.3959 
  85   2.0000      -0.846205       -23.0264 
  86   2.0000      -0.828934       -22.5564 
  87   2.0000      -0.826070       -22.4785 
  88   2.0000      -0.820033       -22.3142 
  89   2.0000      -0.794253       -21.6127 
  90   2.0000      -0.785636       -21.3782 
  91   2.0000      -0.772651       -21.0249 
  92   2.0000      -0.740918       -20.1614 
  93   2.0000      -0.733561       -19.9612 
  94   2.0000      -0.728960       -19.8360 
  95   2.0000      -0.724234       -19.7074 
  96   2.0000      -0.716050       -19.4847 
  97   2.0000      -0.711051       -19.3487 
  98   2.0000      -0.706385       -19.2217 
  99   2.0000      -0.705397       -19.1948 
 100   2.0000      -0.695807       -18.9339 
 101   2.0000      -0.688009       -18.7217 
 102   2.0000      -0.683929       -18.6106 
 103   2.0000      -0.675726       -18.3875 
 104   2.0000      -0.672292       -18.2940 
 105   2.0000      -0.671866       -18.2824 
 106   2.0000      -0.666592       -18.1389 
 107   2.0000      -0.661468       -17.9994 
 108   2.0000      -0.652018       -17.7423 
 109   2.0000      -0.648817       -17.6552 
 110   2.0000      -0.648364       -17.6429 
 111   2.0000      -0.641804       -17.4644 
 112   2.0000      -0.640428       -17.4269 
 113   2.0000      -0.635147       -17.2832 
 114   2.0000      -0.633695       -17.2437 
 115   2.0000      -0.629067       -17.1178 
 116   2.0000      -0.627021       -17.0621 
 117   2.0000      -0.614491       -16.7212 
 118   2.0000      -0.610706       -16.6181 
 119   2.0000      -0.608763       -16.5653 
 120   2.0000      -0.608255       -16.5514 
 121   2.0000      -0.600442       -16.3389 
 122   2.0000      -0.593200       -16.1418 
 123   2.0000      -0.589152       -16.0316 
 124   2.0000      -0.584121       -15.8947 
 125   2.0000      -0.578095       -15.7308 
 126   2.0000      -0.574573       -15.6349 
 127   2.0000      -0.571505       -15.5514 
 128   2.0000      -0.570472       -15.5233 
 129   2.0000      -0.569324       -15.4921 
 130   2.0000      -0.556235       -15.1359 
 131   2.0000      -0.542702       -14.7677 
 132   2.0000      -0.542036       -14.7496 
 133   2.0000      -0.538199       -14.6451 
 134   2.0000      -0.533492       -14.5171 
 135   2.0000      -0.529098       -14.3975 
 136   2.0000      -0.519510       -14.1366 
 137   2.0000      -0.515616       -14.0306 
 138   2.0000      -0.513742       -13.9796 
 139   2.0000      -0.511853       -13.9282 
 140   2.0000      -0.509705       -13.8698 
 141   2.0000      -0.503330       -13.6963 
 142   2.0000      -0.500993       -13.6327 
 143   2.0000      -0.497438       -13.5360 
 144   2.0000      -0.495298       -13.4777 
 145   2.0000      -0.492555       -13.4031 
 146   2.0000      -0.488256       -13.2861 
 147   2.0000      -0.473004       -12.8711 
 148   2.0000      -0.469864       -12.7857 
 149   2.0000      -0.465959       -12.6794 
 150   2.0000      -0.462742       -12.5918 
 151   2.0000      -0.459970       -12.5164 
 152   2.0000      -0.451941       -12.2979 
 153   2.0000      -0.440739       -11.9931 
 154   2.0000      -0.432606       -11.7718 
 155   2.0000      -0.430849       -11.7240 
 156   2.0000      -0.418621       -11.3912 
 157   2.0000      -0.416619       -11.3368 
 158   2.0000      -0.410920       -11.1817 
 159   2.0000      -0.410517       -11.1707 
 160   2.0000      -0.381361       -10.3774 
 161   2.0000      -0.369269       -10.0483 
 162   2.0000      -0.353209        -9.6113 
 163   2.0000      -0.351584        -9.5671 
 164   2.0000      -0.345392        -9.3986 
 165   2.0000      -0.341707        -9.2983 
 166   2.0000      -0.337832        -9.1929 
 167   2.0000      -0.316505        -8.6125 
 168   2.0000      -0.311693        -8.4816 
 169   2.0000      -0.305150        -8.3036 
 170   2.0000      -0.298053        -8.1104 
 171   2.0000      -0.282379        -7.6839 
 172   2.0000      -0.275243        -7.4897 
 173   2.0000      -0.266617        -7.2550 
 174   2.0000      -0.228719        -6.2238 
 175   2.0000      -0.182900        -4.9770 
 176   2.0000      -0.173121        -4.7109 
 177   2.0000      -0.062712        -1.7065 
 178   2.0000      -0.050699        -1.3796 
 179   0.0000       0.036197         0.9850 
 180   0.0000       0.054047         1.4707 
 181   0.0000       0.072951         1.9851 
 182   0.0000       0.098611         2.6833 
 183   0.0000       0.102364         2.7855 
 184   0.0000       0.122682         3.3383 
 185   0.0000       0.141585         3.8527 
 186   0.0000       0.149332         4.0635 
 187   0.0000       0.160376         4.3641 
 188   0.0000       0.164985         4.4895 
 189   0.0000       0.166760         4.5378 
 190   0.0000       0.167412         4.5555 
 191   0.0000       0.173360         4.7174 
 192   0.0000       0.180820         4.9204 
 193   0.0000       0.196157         5.3377 
 194   0.0000       0.199446         5.4272 
 195   0.0000       0.206077         5.6077 
 196   0.0000       0.212341         5.7781 
 197   0.0000       0.212561         5.7841 
 198   0.0000       0.216580         5.8935 
 199   0.0000       0.218208         5.9377 
 200   0.0000       0.229454         6.2438 
 201   0.0000       0.237191         6.4543 
 202   0.0000       0.237340         6.4583 
 203   0.0000       0.240291         6.5386 
 204   0.0000       0.241493         6.5714 
 205   0.0000       0.245665         6.6849 
 206   0.0000       0.246545         6.7088 
 207   0.0000       0.248753         6.7689 
 208   0.0000       0.251305         6.8384 
 209   0.0000       0.258374         7.0307 
 210   0.0000       0.263623         7.1735 
 211   0.0000       0.267234         7.2718 
 212   0.0000       0.268669         7.3109 
 213   0.0000       0.274110         7.4589 
 214   0.0000       0.279252         7.5988 
 215   0.0000       0.280352         7.6288 
 216   0.0000       0.283724         7.7205 
 217   0.0000       0.284884         7.7521 
 218   0.0000       0.287739         7.8298 
 219   0.0000       0.289723         7.8838 
 220   0.0000       0.290218         7.8972 
 221   0.0000       0.294585         8.0161 
 222   0.0000       0.299297         8.1443 
 223   0.0000       0.299994         8.1633 
 224   0.0000       0.300550         8.1784 
 225   0.0000       0.305428         8.3111 
 226   0.0000       0.306969         8.3530 
 227   0.0000       0.307548         8.3688 
 228   0.0000       0.318131         8.6568 
 229   0.0000       0.320854         8.7309 
 230   0.0000       0.327672         8.9164 
 231   0.0000       0.330656         8.9976 
 232   0.0000       0.333508         9.0752 
 233   0.0000       0.336914         9.1679 
 234   0.0000       0.340577         9.2676 
 235   0.0000       0.356435         9.6991 
 236   0.0000       0.358415         9.7530 
 237   0.0000       0.361791         9.8448 
 238   0.0000       0.373535        10.1644 
 239   0.0000       0.386297        10.5117 
 240   0.0000       0.394105        10.7241 
 241   0.0000       0.398687        10.8488 
 242   0.0000       0.408530        11.1167 
 243   0.0000       0.416852        11.3431 
 244   0.0000       0.423592        11.5265 
 245   0.0000       0.430928        11.7262 
 246   0.0000       0.436540        11.8789 
 247   0.0000       0.438640        11.9360 
 248   0.0000       0.443616        12.0714 
 249   0.0000       0.444838        12.1047 
 250   0.0000       0.452081        12.3018 
 251   0.0000       0.455996        12.4083 
 252   0.0000       0.457300        12.4438 
 253   0.0000       0.469221        12.7681 
 254   0.0000       0.471608        12.8331 
 255   0.0000       0.476814        12.9748 
 256   0.0000       0.480196        13.0668 
 257   0.0000       0.483399        13.1540 
 258   0.0000       0.483935        13.1686 
 259   0.0000       0.492943        13.4137 
 260   0.0000       0.501448        13.6451 
 261   0.0000       0.504756        13.7351 
 262   0.0000       0.506331        13.7780 
 263   0.0000       0.509754        13.8711 
 264   0.0000       0.512349        13.9417 
 265   0.0000       0.517382        14.0787 
 266   0.0000       0.521243        14.1838 
 267   0.0000       0.525579        14.3017 
 268   0.0000       0.531972        14.4757 
 269   0.0000       0.537672        14.6308 
 270   0.0000       0.543204        14.7813 
 271   0.0000       0.544809        14.8250 
 272   0.0000       0.546583        14.8733 
 273   0.0000       0.548653        14.9296 
 274   0.0000       0.553128        15.0514 
 275   0.0000       0.560705        15.2576 
 276   0.0000       0.568492        15.4694 
 277   0.0000       0.571875        15.5615 
 278   0.0000       0.578362        15.7380 
 279   0.0000       0.586138        15.9496 
 280   0.0000       0.588028        16.0011 
 281   0.0000       0.594106        16.1665 
 282   0.0000       0.596961        16.2441 
 283   0.0000       0.598515        16.2864 
 284   0.0000       0.599232        16.3059 
 285   0.0000       0.601915        16.3789 
 286   0.0000       0.605075        16.4649 
 287   0.0000       0.608174        16.5492 
 288   0.0000       0.613048        16.6819 
 289   0.0000       0.620193        16.8763 
 290   0.0000       0.626475        17.0472 
 291   0.0000       0.629799        17.1377 
 292   0.0000       0.632951        17.2235 
 293   0.0000       0.638404        17.3719 
 294   0.0000       0.642206        17.4753 
 295   0.0000       0.646701        17.5976 
 296   0.0000       0.648221        17.6390 
 297   0.0000       0.655271        17.8308 
 298   0.0000       0.660115        17.9626 
 299   0.0000       0.661929        18.0120 
 300   0.0000       0.663032        18.0420 
 301   0.0000       0.669108        18.2073 
 302   0.0000       0.669443        18.2165 
 303   0.0000       0.673627        18.3303 
 304   0.0000       0.677956        18.4481 
 305   0.0000       0.679838        18.4993 
 306   0.0000       0.683041        18.5865 
 307   0.0000       0.686662        18.6850 
 308   0.0000       0.690381        18.7862 
 309   0.0000       0.693676        18.8759 
 310   0.0000       0.699321        19.0295 
 311   0.0000       0.701190        19.0804 
 312   0.0000       0.704853        19.1800 
 313   0.0000       0.707574        19.2541 
 314   0.0000       0.712129        19.3780 
 315   0.0000       0.715127        19.4596 
 316   0.0000       0.715862        19.4796 
 317   0.0000       0.717990        19.5375 
 318   0.0000       0.719298        19.5731 
 319   0.0000       0.723189        19.6790 
 320   0.0000       0.726095        19.7580 
 321   0.0000       0.729424        19.8486 
 322   0.0000       0.731811        19.9136 
 323   0.0000       0.737153        20.0590 
 324   0.0000       0.739465        20.1219 
 325   0.0000       0.743849        20.2412 
 326   0.0000       0.744698        20.2643 
 327   0.0000       0.748334        20.3632 
 328   0.0000       0.753358        20.4999 
 329   0.0000       0.755781        20.5658 
 330   0.0000       0.759115        20.6566 
 331   0.0000       0.761158        20.7122 
 332   0.0000       0.762913        20.7599 
 333   0.0000       0.765308        20.8251 
 334   0.0000       0.765469        20.8295 
 335   0.0000       0.767808        20.8931 
 336   0.0000       0.770559        20.9680 
 337   0.0000       0.775694        21.1077 
 338   0.0000       0.783718        21.3261 
 339   0.0000       0.785919        21.3859 
 340   0.0000       0.788958        21.4687 
 341   0.0000       0.791128        21.5277 
 342   0.0000       0.792546        21.5663 
 343   0.0000       0.794229        21.6121 
 344   0.0000       0.796437        21.6721 
 345   0.0000       0.797943        21.7131 
 346   0.0000       0.804818        21.9002 
 347   0.0000       0.805735        21.9252 
 348   0.0000       0.812686        22.1143 
 349   0.0000       0.814692        22.1689 
 350   0.0000       0.817568        22.2472 
 351   0.0000       0.822018        22.3683 
 352   0.0000       0.825056        22.4509 
 353   0.0000       0.825882        22.4734 
 354   0.0000       0.828338        22.5402 
 355   0.0000       0.830311        22.5939 
 356   0.0000       0.830591        22.6015 
 357   0.0000       0.836903        22.7733 
 358   0.0000       0.840217        22.8635 
 359   0.0000       0.840709        22.8769 
 360   0.0000       0.844832        22.9891 
 361   0.0000       0.846289        23.0287 
 362   0.0000       0.848816        23.0975 
 363   0.0000       0.851194        23.1622 
 364   0.0000       0.851783        23.1782 
 365   0.0000       0.856313        23.3015 
 366   0.0000       0.858905        23.3720 
 367   0.0000       0.859631        23.3917 
 368   0.0000       0.861603        23.4454 
 369   0.0000       0.864428        23.5223 
 370   0.0000       0.866104        23.5679 
 371   0.0000       0.867740        23.6124 
 372   0.0000       0.869737        23.6668 
 373   0.0000       0.871945        23.7268 
 374   0.0000       0.875470        23.8227 
 375   0.0000       0.877596        23.8806 
 376   0.0000       0.878104        23.8944 
 377   0.0000       0.879135        23.9225 
 378   0.0000       0.883557        24.0428 
 379   0.0000       0.889149        24.1950 
 380   0.0000       0.889787        24.2123 
 381   0.0000       0.891568        24.2608 
 382   0.0000       0.902650        24.5623 
 383   0.0000       0.903351        24.5814 
 384   0.0000       0.904278        24.6066 
 385   0.0000       0.908225        24.7141 
 386   0.0000       0.909964        24.7614 
 387   0.0000       0.916372        24.9357 
 388   0.0000       0.918235        24.9864 
 389   0.0000       0.918811        25.0021 
 390   0.0000       0.920607        25.0510 
 391   0.0000       0.924362        25.1532 
 392   0.0000       0.928851        25.2753 
 393   0.0000       0.933569        25.4037 
 394   0.0000       0.933906        25.4129 
 395   0.0000       0.935450        25.4549 
 396   0.0000       0.937289        25.5049 
 397   0.0000       0.939512        25.5654 
 398   0.0000       0.941590        25.6220 
 399   0.0000       0.942981        25.6598 
 400   0.0000       0.945141        25.7186 
 401   0.0000       0.949007        25.8238 
 402   0.0000       0.952339        25.9145 
 403   0.0000       0.956590        26.0301 
 404   0.0000       0.958280        26.0761 
 405   0.0000       0.960796        26.1446 
 406   0.0000       0.963072        26.2065 
 407   0.0000       0.968024        26.3413 
 408   0.0000       0.969459        26.3803 
 409   0.0000       0.975675        26.5495 
 410   0.0000       0.981031        26.6952 
 411   0.0000       0.984283        26.7837 
 412   0.0000       0.988681        26.9034 
 413   0.0000       0.996615        27.1193 
 414   0.0000       0.997196        27.1351 
 415   0.0000       1.000143        27.2153 
 416   0.0000       1.003906        27.3177 
 417   0.0000       1.006769        27.3956 
 418   0.0000       1.008698        27.4481 
 419   0.0000       1.013125        27.5685 
 420   0.0000       1.018512        27.7151 
 421   0.0000       1.026479        27.9319 
 422   0.0000       1.033084        28.1116 
 423   0.0000       1.037632        28.2354 
 424   0.0000       1.040092        28.3023 
 425   0.0000       1.046094        28.4657 
 426   0.0000       1.057257        28.7694 
 427   0.0000       1.062766        28.9193 
 428   0.0000       1.066207        29.0130 
 429   0.0000       1.071353        29.1530 
 430   0.0000       1.073462        29.2104 
 431   0.0000       1.082102        29.4455 
 432   0.0000       1.085277        29.5319 
 433   0.0000       1.088612        29.6226 
 434   0.0000       1.094491        29.7826 
 435   0.0000       1.095723        29.8161 
 436   0.0000       1.101977        29.9863 
 437   0.0000       1.110121        30.2079 
 438   0.0000       1.113532        30.3008 
 439   0.0000       1.115064        30.3424 
 440   0.0000       1.117678        30.4136 
 441   0.0000       1.118953        30.4482 
 442   0.0000       1.124516        30.5996 
 443   0.0000       1.128756        30.7150 
 444   0.0000       1.132667        30.8214 
 445   0.0000       1.134324        30.8665 
 446   0.0000       1.141998        31.0753 
 447   0.0000       1.143553        31.1177 
 448   0.0000       1.145344        31.1664 
 449   0.0000       1.148970        31.2651 
 450   0.0000       1.155314        31.4377 
 451   0.0000       1.156152        31.4605 
 452   0.0000       1.159116        31.5412 
 453   0.0000       1.161077        31.5945 
 454   0.0000       1.165869        31.7249 
 455   0.0000       1.167263        31.7628 
 456   0.0000       1.176067        32.0024 
 457   0.0000       1.178288        32.0628 
 458   0.0000       1.182530        32.1783 
 459   0.0000       1.186675        32.2911 
 460   0.0000       1.189353        32.3639 
 461   0.0000       1.191575        32.4244 
 462   0.0000       1.200224        32.6598 
 463   0.0000       1.200772        32.6747 
 464   0.0000       1.204781        32.7838 
 465   0.0000       1.208171        32.8760 
 466   0.0000       1.209793        32.9202 
 467   0.0000       1.212903        33.0048 
 468   0.0000       1.216987        33.1159 
 469   0.0000       1.220438        33.2098 
 470   0.0000       1.226947        33.3869 
 471   0.0000       1.229428        33.4544 
 472   0.0000       1.233686        33.5703 
 473   0.0000       1.236697        33.6522 
 474   0.0000       1.238748        33.7081 
 475   0.0000       1.243164        33.8282 
 476   0.0000       1.246770        33.9263 
 477   0.0000       1.250197        34.0196 
 478   0.0000       1.255592        34.1664 
 479   0.0000       1.257985        34.2315 
 480   0.0000       1.259139        34.2629 
 481   0.0000       1.264665        34.4133 
 482   0.0000       1.265848        34.4455 
 483   0.0000       1.269681        34.5498 
 484   0.0000       1.274869        34.6910 
 485   0.0000       1.282070        34.8869 
 486   0.0000       1.283919        34.9372 
 487   0.0000       1.286707        35.0131 
 488   0.0000       1.289967        35.1018 
 489   0.0000       1.291962        35.1561 
 490   0.0000       1.295403        35.2497 
 491   0.0000       1.299790        35.3691 
 492   0.0000       1.302930        35.4545 
 493   0.0000       1.306630        35.5552 
 494   0.0000       1.309827        35.6422 
 495   0.0000       1.314951        35.7816 
 496   0.0000       1.320341        35.9283 
 497   0.0000       1.323322        36.0094 
 498   0.0000       1.324754        36.0484 
 499   0.0000       1.330574        36.2068 
 500   0.0000       1.332462        36.2581 
 501   0.0000       1.336710        36.3737 
 502   0.0000       1.340721        36.4829 
 503   0.0000       1.343344        36.5542 
 504   0.0000       1.346229        36.6328 
[...]
      pz      :     0.021739  p :     0.079233
      px      :     0.042794
      py      :     0.014700
 77 H s       :     0.896402  s :     0.896402
      pz      :     0.047057  p :     0.078271
      px      :     0.015002
      py      :     0.016212
 78 H s       :     0.896797  s :     0.896797
      pz      :     0.025412  p :     0.078180
      px      :     0.020726
      py      :     0.032042
 79 H s       :     0.906985  s :     0.906985
      pz      :     0.022674  p :     0.087343
      px      :     0.021914
      py      :     0.042755
 80 H s       :     0.880897  s :     0.880897
      pz      :     0.038065  p :     0.083073
      px      :     0.029430
      py      :     0.015578
 81 H s       :     0.889077  s :     0.889077
      pz      :     0.037515  p :     0.083226
      px      :     0.016073
      py      :     0.029639
 82 H s       :     0.914113  s :     0.914113
      pz      :     0.022551  p :     0.087192
      px      :     0.030859
      py      :     0.033781
 83 H s       :     0.872355  s :     0.872355
      pz      :     0.039151  p :     0.083580
      px      :     0.015248
      py      :     0.029180
 84 H s       :     0.889116  s :     0.889116
      pz      :     0.035804  p :     0.084542
      px      :     0.031812
      py      :     0.016926
 85 H s       :     0.896534  s :     0.896534
      pz      :     0.022507  p :     0.079581
      px      :     0.014169
      py      :     0.042905
 86 H s       :     0.890865  s :     0.890865
      pz      :     0.024692  p :     0.078885
      px      :     0.032985
      py      :     0.021209
 87 H s       :     0.891579  s :     0.891579
      pz      :     0.047774  p :     0.078560
      px      :     0.015665
      py      :     0.015122
 88 H s       :     0.918795  s :     0.918795
      pz      :     0.022588  p :     0.086818
      px      :     0.041910
      py      :     0.022320
 89 H s       :     0.875974  s :     0.875974
      pz      :     0.037776  p :     0.084036
      px      :     0.030446
      py      :     0.015814


                      *****************************
                      * MAYER POPULATION ANALYSIS *
                      *****************************

  NA   - Mulliken gross atomic population
  ZA   - Total nuclear charge
  QA   - Mulliken gross atomic charge
  VA   - Mayer's total valence
  BVA  - Mayer's bonded valence
  FA   - Mayer's free valence

  ATOM       NA         ZA         QA         VA         BVA        FA
  0 C      5.7615     6.0000     0.2385     3.7977     3.7977     0.0000
  1 N      7.4102     7.0000    -0.4102     3.4869     3.4869     0.0000
  2 C      6.0663     6.0000    -0.0663     3.9210     3.9210    -0.0000
  3 N      7.3443     7.0000    -0.3443     3.4189     3.4189     0.0000
  4 C      6.0650     6.0000    -0.0650     3.9511     3.9511     0.0000
  5 N      7.5663     7.0000    -0.5663     3.0651     3.0651     0.0000
  6 C      6.0278     6.0000    -0.0278     3.9577     3.9577    -0.0000
  7 N      7.3367     7.0000    -0.3367     3.4460     3.4460    -0.0000
  8 C      5.7633     6.0000     0.2367     3.7985     3.7985    -0.0000
  9 N      7.5665     7.0000    -0.5665     3.0927     3.0927     0.0000
 10 C      5.8977     6.0000     0.1023     3.8565     3.8565     0.0000
 11 N      7.4402     7.0000    -0.4402     3.3705     3.3705     0.0000
 12 C      6.0581     6.0000    -0.0581     3.9081     3.9081     0.0000
 13 N      7.4521     7.0000    -0.4521     3.3117     3.3117    -0.0000
 14 C      5.7807     6.0000     0.2193     3.8119     3.8119    -0.0000
 15 N      7.4419     7.0000    -0.4419     3.3614     3.3614     0.0000
 16 C      5.7417     6.0000     0.2583     3.8069     3.8069    -0.0000
 17 C      6.0308     6.0000    -0.0308     3.9587     3.9587     0.0000
 18 C      6.1758     6.0000    -0.1758     3.6699     3.6699     0.0000
 19 C      5.7689     6.0000     0.2311     3.9027     3.9027    -0.0000
 20 C      5.8143     6.0000     0.1857     3.8206     3.8206     0.0000
 21 C      6.0677     6.0000    -0.0677     3.8897     3.8897    -0.0000
 22 C      6.0924     6.0000    -0.0924     3.9851     3.9851    -0.0000
 23 C      6.0694     6.0000    -0.0694     3.9884     3.9884    -0.0000
 24 C      5.7823     6.0000     0.2177     3.8312     3.8312     0.0000
 25 C      5.8848     6.0000     0.1152     3.8945     3.8945     0.0000
 26 C      6.0646     6.0000    -0.0646     3.9104     3.9104     0.0000
 27 C      5.7497     6.0000     0.2503     3.9041     3.9041    -0.0000
 28 C      6.0387     6.0000    -0.0387     3.9911     3.9911     0.0000
 29 C      6.1980     6.0000    -0.1980     3.7277     3.7277    -0.0000
 30 C      5.7807     6.0000     0.2193     3.7769     3.7769    -0.0000
 31 C      5.8143     6.0000     0.1857     3.8341     3.8341     0.0000
 32 C      6.0644     6.0000    -0.0644     3.9127     3.9127    -0.0000
 33 C      6.1045     6.0000    -0.1045     3.9837     3.9837    -0.0000
 34 C      6.0506     6.0000    -0.0506     4.0003     4.0003    -0.0000
 35 C      5.8240     6.0000     0.1760     3.8302     3.8302    -0.0000
 36 C      5.8783     6.0000     0.1217     3.9123     3.9123    -0.0000
 37 C      6.0710     6.0000    -0.0710     3.9131     3.9131    -0.0000
 38 C      5.7548     6.0000     0.2452     3.7936     3.7936    -0.0000
 39 C      6.0657     6.0000    -0.0657     3.9997     3.9997    -0.0000
 40 C      6.2060     6.0000    -0.2060     3.7537     3.7537    -0.0000
 41 C      5.7841     6.0000     0.2159     3.8731     3.8731     0.0000
 42 C      5.7873     6.0000     0.2127     3.8335     3.8335    -0.0000
 43 C      6.0778     6.0000    -0.0778     3.9050     3.9050    -0.0000
 44 C      6.0931     6.0000    -0.0931     3.9826     3.9826    -0.0000
 45 C      6.0368     6.0000    -0.0368     3.9968     3.9968    -0.0000
 46 C      5.8184     6.0000     0.1816     3.8194     3.8194    -0.0000
 47 C      5.8830     6.0000     0.1170     3.8978     3.8978    -0.0000
 48 C      6.0826     6.0000    -0.0826     3.8970     3.8970    -0.0000
 49 C      5.7941     6.0000     0.2059     3.8599     3.8599     0.0000
 50 C      6.0692     6.0000    -0.0692     3.9904     3.9904     0.0000
 51 C      6.1885     6.0000    -0.1885     3.7435     3.7435     0.0000
 52 H      0.9155     1.0000     0.0845     0.9818     0.9818     0.0000
 53 H      1.0060     1.0000    -0.0060     1.0028     1.0028     0.0000
 54 H      0.9308     1.0000     0.0692     1.0044     1.0044    -0.0000
 55 H      0.9170     1.0000     0.0830     0.9825     0.9825     0.0000
 56 H      0.9124     1.0000     0.0876     0.9726     0.9726     0.0000
 57 H      0.9218     1.0000     0.0782     0.9848     0.9848     0.0000
 58 H      0.9234     1.0000     0.0766     0.9870     0.9870     0.0000
 59 H      1.0304     1.0000    -0.0304     0.9961     0.9961     0.0000
 60 H      0.9298     1.0000     0.0702     1.0047     1.0047     0.0000
 61 H      0.8223     1.0000     0.1777     1.0439     1.0439    -0.0000
 62 H      0.8328     1.0000     0.1672     1.0433     1.0433    -0.0000
 63 H      0.9482     1.0000     0.0518     0.9864     0.9864     0.0000
 64 H      1.0356     1.0000    -0.0356     0.9927     0.9927    -0.0000
 65 H      0.9605     1.0000     0.0395     1.0076     1.0076     0.0000
 66 H      0.9460     1.0000     0.0540     0.9847     0.9847     0.0000
 67 H      0.9428     1.0000     0.0572     0.9715     0.9715     0.0000
 68 H      0.9446     1.0000     0.0554     0.9863     0.9863     0.0000
 69 H      0.9414     1.0000     0.0586     0.9830     0.9830    -0.0000
 70 H      1.0120     1.0000    -0.0120     0.9987     0.9987     0.0000
 71 H      0.9540     1.0000     0.0460     1.0077     1.0077     0.0000
 72 H      0.9645     1.0000     0.0355     0.9861     0.9861    -0.0000
 73 H      1.0197     1.0000    -0.0197     0.9960     0.9960    -0.0000
 74 H      0.9724     1.0000     0.0276     1.0089     1.0089    -0.0000
 75 H      0.9659     1.0000     0.0341     0.9868     0.9868     0.0000
 76 H      0.9554     1.0000     0.0446     0.9700     0.9700    -0.0000
 77 H      0.9552     1.0000     0.0448     0.9841     0.9841    -0.0000
 78 H      0.9559     1.0000     0.0441     0.9834     0.9834    -0.0000
 79 H      1.0115     1.0000    -0.0115     1.0021     1.0021    -0.0000
 80 H      0.9727     1.0000     0.0273     1.0061     1.0061    -0.0000
 81 H      0.9504     1.0000     0.0496     0.9852     0.9852    -0.0000
 82 H      1.0230     1.0000    -0.0230     0.9953     0.9953    -0.0000
 83 H      0.9576     1.0000     0.0424     1.0109     1.0109    -0.0000
 84 H      0.9514     1.0000     0.0486     0.9865     0.9865     0.0000
 85 H      0.9465     1.0000     0.0535     0.9713     0.9713    -0.0000
 86 H      0.9438     1.0000     0.0562     0.9841     0.9841    -0.0000
 87 H      0.9460     1.0000     0.0540     0.9852     0.9852    -0.0000
 88 H      1.0312     1.0000    -0.0312     0.9907     0.9907     0.0000
 89 H      0.9622     1.0000     0.0378     1.0058     1.0058     0.0000

  Mayer bond orders larger than 0.100000
B(  0-C ,  1-N ) :   1.2135 B(  0-C , 17-C ) :   1.5055 B(  0-C , 52-H ) :   0.9665 
B(  1-N ,  8-C ) :   1.2107 B(  1-N , 10-C ) :   0.9230 B(  2-C , 12-C ) :   1.5835 
B(  2-C , 16-C ) :   1.2696 B(  2-C , 53-H ) :   0.9794 B(  3-N , 14-C ) :   1.1738 
B(  3-N , 16-C ) :   1.2022 B(  3-N , 61-H ) :   0.8950 B(  4-C ,  6-C ) :   1.3621 
B(  4-C , 17-C ) :   1.3679 B(  4-C , 18-C ) :   1.0444 B(  5-N , 19-C ) :   1.3626 
B(  5-N , 27-C ) :   1.4497 B(  6-C ,  8-C ) :   1.5093 B(  6-C , 54-H ) :   0.9706 
B(  7-N , 30-C ) :   1.1836 B(  7-N , 38-C ) :   1.2162 B(  7-N , 62-H ) :   0.9016 
B(  8-C , 55-H ) :   0.9674 B(  9-N , 41-C ) :   1.4363 B(  9-N , 49-C ) :   1.3914 
B( 10-C , 56-H ) :   0.9767 B( 10-C , 57-H ) :   0.9806 B( 10-C , 58-H ) :   0.9814 
B( 11-N , 20-C ) :   1.0949 B( 11-N , 24-C ) :   1.1344 B( 11-N , 25-C ) :   0.9628 
B( 12-C , 14-C ) :   1.2700 B( 12-C , 59-H ) :   0.9766 B( 13-N , 31-C ) :   1.0801 
B( 13-N , 35-C ) :   1.0697 B( 13-N , 36-C ) :   0.9836 B( 14-C , 18-C ) :   1.2657 
B( 15-N , 42-C ) :   1.1265 B( 15-N , 46-C ) :   1.0873 B( 15-N , 47-C ) :   0.9669 
B( 16-C , 51-C ) :   1.2511 B( 17-C , 60-H ) :   0.9705 B( 18-C , 19-C ) :   1.3158 
B( 19-C , 21-C ) :   1.1590 B( 20-C , 28-C ) :   1.6300 B( 20-C , 63-H ) :   0.9710 
B( 21-C , 26-C ) :   1.6857 B( 21-C , 64-H ) :   0.9715 B( 22-C , 23-C ) :   1.2537 
B( 22-C , 28-C ) :   1.2796 B( 22-C , 29-C ) :   1.2583 B( 23-C , 24-C ) :   1.6362 
B( 23-C , 65-H ) :   0.9723 B( 24-C , 66-H ) :   0.9691 B( 25-C , 67-H ) :   0.9762 
B( 25-C , 68-H ) :   0.9834 B( 25-C , 69-H ) :   0.9819 B( 26-C , 27-C ) :   1.1692 
B( 26-C , 70-H ) :   0.9759 B( 27-C , 29-C ) :   1.2447 B( 28-C , 71-H ) :   0.9709 
B( 29-C , 30-C ) :   1.1723 B( 30-C , 32-C ) :   1.3536 B( 31-C , 39-C ) :   1.6877 
B( 31-C , 72-H ) :   0.9709 B( 32-C , 37-C ) :   1.5066 B( 32-C , 73-H ) :   0.9771 
B( 33-C , 34-C ) :   1.2302 B( 33-C , 39-C ) :   1.2226 B( 33-C , 40-C ) :   1.3642 
B( 34-C , 35-C ) :   1.6864 B( 34-C , 74-H ) :   0.9710 B( 35-C , 75-H ) :   0.9709 
B( 36-C , 76-H ) :   0.9754 B( 36-C , 77-H ) :   0.9826 B( 36-C , 78-H ) :   0.9838 
B( 37-C , 38-C ) :   1.3467 B( 37-C , 79-H ) :   0.9793 B( 38-C , 40-C ) :   1.1765 
B( 39-C , 80-H ) :   0.9721 B( 40-C , 41-C ) :   1.1659 B( 41-C , 43-C ) :   1.2584 
B( 42-C , 50-C ) :   1.6431 B( 42-C , 81-H ) :   0.9697 B( 43-C , 48-C ) :   1.5927 
B( 43-C , 82-H ) :   0.9757 B( 44-C , 45-C ) :   1.2813 B( 44-C , 50-C ) :   1.2475 
B( 44-C , 51-C ) :   1.2465 B( 45-C , 46-C ) :   1.6334 B( 45-C , 83-H ) :   0.9702 
B( 46-C , 84-H ) :   0.9710 B( 47-C , 85-H ) :   0.9759 B( 47-C , 86-H ) :   0.9825 
B( 47-C , 87-H ) :   0.9830 B( 48-C , 49-C ) :   1.2525 B( 48-C , 88-H ) :   0.9725 
B( 49-C , 51-C ) :   1.1880 B( 50-C , 89-H ) :   0.9723 

-------
TIMINGS
-------

Total SCF time: 0 days 0 hours 31 min 2 sec 

Total time                  ....    1862.985 sec
Sum of individual times     ....    1858.020 sec  ( 99.7%)

Fock matrix formation       ....    1828.104 sec  ( 98.1%)
Diagonalization             ....       9.516 sec  (  0.5%)
Density matrix formation    ....       0.589 sec  (  0.0%)
Population analysis         ....       0.585 sec  (  0.0%)
Initial guess               ....       2.510 sec  (  0.1%)
Orbital Transformation      ....       0.000 sec  (  0.0%)
Orbital Orthonormalization  ....       0.000 sec  (  0.0%)
DIIS solution               ....       4.322 sec  (  0.2%)
SOSCF solution              ....      11.099 sec  (  0.6%)

Maximum memory used throughout the entire SCF-calculation: 302.6 MB


           ************************************************************
           *        Program running with 16 parallel MPI-processes    *
           *              working on a common directory               *
           ************************************************************

------------------------------------------------------------------------------
                                ORCA  MP2 
------------------------------------------------------------------------------

Freezing NCore=104 chemical core electrons

----------
MP2 ENERGY (disk based algorithm)
----------

Dimension of the basis                    ...  918
Memory devoted to MP2                     ... 2000 MB   
Data format for buffers                   ... DOUBLE
Compression type for matrix containers    ... UNCOMPRESSED

-------------------------------
PARTIAL EXCHANGE TRANSFORMATION
-------------------------------

Transformation type                        ... one-operator
Generation of integrals (i,mue|j,nue)      ... ON
Generation of integrals (mue,kappa|nue,tau)... OFF
Generation of integrals (i,mue|a,nue)      ... OFF
Dimension of the basis                     ...  918
Number of internal MOs                     ...  127 (  52- 178)
Pair cutoff                                ... 2.500e-12 Eh
Number of AO pairs in the trafo            ... 421821
Total Number of distinct AO pairs          ... 421821
Memory devoted for trafo                   ... 2000.0 MB 
Max. Number of MO pairs treated together   ...  311      
Number Format for Storage                  ... Double (8 Byte)
Integral package used                      ... LIBINT

Starting integral evaluation:
    ... done with AO integral generation
Closing buffer AOK     (37.64 GB; CompressionRatio= 1.35)
Collecting buffer AOK 
Number of MO pairs included in the trafo   ... 8128
------------------------
SORTING OF (i,mue|j,nue)
------------------------

IBATCH = 1 of  2
IBATCH = 2 of  2
Closing buffer KAO     (51.03 GB; CompressionRatio= 1.00)
Collecting buffer KAO 
N(AO-Batches) Done                         ...  85527746 
N(AO-Batches) Skipped                      ...  82012895 
N(IJ)-pairs Skipped                        ...         0 
TOTAL TIME for half transformation         ...  2149.619 sec
AO-integral generation                     ...   209.899 sec
Half transformation                        ...   423.593 sec
K-integral sorting                         ...  1294.931 sec
Process 10:   Internal MO 132
Process 13:   Internal MO 156

Finished integral transformation - now doing MP2 part

OPERATOR COMBINATION   0   0: ij=( 52..178, 52..178)
Process  1:   Internal MO  60
Process  7:   Internal MO 108
Process  4:   Internal MO  84
Process  1:   Internal MO  63
Process  5:   Internal MO  93
Process  3:   Internal MO  78
Process  2:   Internal MO  69
Process  8:   Internal MO 117
Process  0:   Internal MO  54
Process  1:   Internal MO  66
Process  4:   Internal MO  87
Process  0:   Internal MO  57
Process  6:   Internal MO 102
Process 14:   Internal MO 165
Process 11:   Internal MO 141
Process  2:   Internal MO  72
Process  9:   Internal MO 126
Process  3:   Internal MO  81
Process  7:   Internal MO 111
Process  4:   Internal MO  90
Process  5:   Internal MO  96
Process 12:   Internal MO 150
Process  2:   Internal MO  75
Process 10:   Internal MO 135
Process  6:   Internal MO 105
Process  8:   Internal MO 120
Process 15:   Internal MO 174
Process  7:   Internal MO 114
Process  9:   Internal MO 129
Process  5:   Internal MO  99
Process 13:   Internal MO 159
Process 11:   Internal MO 144
Process 12:   Internal MO 153
Process 14:   Internal MO 168
Process  8:   Internal MO 123
Process 10:   Internal MO 138
Process 15:   Internal MO 177
Process 11:   Internal MO 147
Process 13:   Internal MO 162
Process 14:   Internal MO 171
-----------------------------------------------
 MP2 CORRELATION ENERGY   :     -7.258895227 Eh
-----------------------------------------------


-------
TIMINGS
-------
Total time                : 2430.800 sec
Integral trafo            : 2152.250 sec ( 88.5%)
K(i,j)                    :   37.017 sec (  1.5%)
T(i,j)                    :    0.178 sec (  0.0%)

---------------------------------------
MP2 TOTAL ENERGY:    -2130.868957284 Eh
---------------------------------------

Maximum memory used throughout the entire MP2-calculation: 2275.2 MB

-------------------------   --------------------
FINAL SINGLE POINT ENERGY     -2130.868957284014
-------------------------   --------------------


                            ***************************************
                            *     ORCA property calculations      *
                            ***************************************


  WARNING: The energy has been calculated at the MP2 level but the densities
           used in the property calculations are still SCF densities
           MP2 response densities have not been calculated 
           use %mp2 Density relaxed end
           or  %mp2 Density unrelaxed end

                                    ---------------------
                                    Active property flags
                                    ---------------------
   (+) Dipole Moment


------------------------------------------------------------------------------
                       ORCA ELECTRIC PROPERTIES CALCULATION
------------------------------------------------------------------------------

Dipole Moment Calculation                       ... on
Quadrupole Moment Calculation                   ... off
Polarizability Calculation                      ... off
GBWName                                         ... /scratch/allen/tmpyp4_amber_gaff2/conf1/conf1/Conf268.orca.gbw
Electron density                                ... /scratch/allen/tmpyp4_amber_gaff2/conf1/conf1/Conf268.orca.scfp
The origin for moment calculation is the CENTER OF MASS  = ( 0.000428, -0.003746 -0.001631)

-------------
DIPOLE MOMENT
-------------
                                X             Y             Z
Electronic contribution:     -4.82323       5.55190      -0.06619
Nuclear contribution   :      0.05853       0.22814       0.09269
                        -----------------------------------------
Total Dipole Moment    :     -4.76470       5.78004       0.02650
                        -----------------------------------------
Magnitude (a.u.)       :      7.49079
Magnitude (Debye)      :     19.04009



--------------------
Rotational spectrum 
--------------------
 
Rotational constants in cm-1:     0.001498     0.001472     0.000763 
Rotational constants in MHz :    44.911902    44.128823    22.867895 

 Dipole components along the rotational axes: 
x,y,z [a.u.] :    -6.612615     3.519166     0.028299 
x,y,z [Debye]:   -16.807931     8.945008     0.071930 

 

Timings for individual modules:

Sum of individual times         ...     4315.816 sec (=  71.930 min)
GTO integral calculation        ...        3.410 sec (=   0.057 min)   0.1 %
SCF iterations                  ...     1864.176 sec (=  31.070 min)  43.2 %
MP2 module                      ...     2448.230 sec (=  40.804 min)  56.7 %
                             ****ORCA TERMINATED NORMALLY****
TOTAL RUN TIME: 0 days 1 hours 11 minutes 59 seconds 82 msec
# of primitive gaussian functions

