
                                 *****************
                                 * O   R   C   A *
                                 *****************

                                            #,                                       
                                            ###                                      
                                            ####                                     
                                            #####                                    
                                            ######                                   
                                           ########,                                 
                                     ,,################,,,,,                         
                               ,,#################################,,                 
                          ,,##########################################,,             
                       ,#########################################, ''#####,          
                    ,#############################################,,   '####,        
                  ,##################################################,,,,####,       
                ,###########''''           ''''###############################       
              ,#####''   ,,,,##########,,,,          '''####'''          '####       
            ,##' ,,,,###########################,,,                        '##       
           ' ,,###''''                  '''############,,,                           
         ,,##''                                '''############,,,,        ,,,,,,###''
      ,#''                                            '''#######################'''  
     '                                                          ''''####''''         
             ,#######,   #######,   ,#######,      ##                                
            ,#'     '#,  ##    ##  ,#'     '#,    #''#        ######   ,####,        
            ##       ##  ##   ,#'  ##            #'  '#       #        #'  '#        
            ##       ##  #######   ##           ,######,      #####,   #    #        
            '#,     ,#'  ##    ##  '#,     ,#' ,#      #,         ##   #,  ,#        
             '#######'   ##     ##  '#######'  #'      '#     #####' # '####'        



                  #######################################################
                  #                        -***-                        #
                  #          Department of theory and spectroscopy      #
                  #    Directorship and core code : Frank Neese         #
                  #        Max Planck Institute fuer Kohlenforschung    #
                  #                Kaiser Wilhelm Platz 1               #
                  #                 D-45470 Muelheim/Ruhr               #
                  #                      Germany                        #
                  #                                                     #
                  #                  All rights reserved                #
                  #                        -***-                        #
                  #######################################################


                         Program Version 5.0.4 -  RELEASE  -


 With contributions from (in alphabetic order):
   Daniel Aravena         : Magnetic Suceptibility
   Michael Atanasov       : Ab Initio Ligand Field Theory (pilot matlab implementation)
   Alexander A. Auer      : GIAO ZORA, VPT2 properties, NMR spectrum
   Ute Becker             : Parallelization
   Giovanni Bistoni       : ED, misc. LED, open-shell LED, HFLD
   Martin Brehm           : Molecular dynamics
   Dmytro Bykov           : SCF Hessian
   Vijay G. Chilkuri      : MRCI spin determinant printing, contributions to CSF-ICE
   Dipayan Datta          : RHF DLPNO-CCSD density
   Achintya Kumar Dutta   : EOM-CC, STEOM-CC
   Dmitry Ganyushin       : Spin-Orbit,Spin-Spin,Magnetic field MRCI
   Miquel Garcia          : C-PCM and meta-GGA Hessian, CC/C-PCM, Gaussian charge scheme
   Yang Guo               : DLPNO-NEVPT2, F12-NEVPT2, CIM, IAO-localization
   Andreas Hansen         : Spin unrestricted coupled pair/coupled cluster methods
   Benjamin Helmich-Paris : MC-RPA, TRAH-SCF, COSX integrals
   Lee Huntington         : MR-EOM, pCC
   Robert Izsak           : Overlap fitted RIJCOSX, COSX-SCS-MP3, EOM
   Marcus Kettner         : VPT2
   Christian Kollmar      : KDIIS, OOCD, Brueckner-CCSD(T), CCSD density, CASPT2, CASPT2-K
   Simone Kossmann        : Meta GGA functionals, TD-DFT gradient, OOMP2, MP2 Hessian
   Martin Krupicka        : Initial AUTO-CI
   Lucas Lang             : DCDCAS
   Marvin Lechner         : AUTO-CI (C++ implementation), FIC-MRCC
   Dagmar Lenk            : GEPOL surface, SMD
   Dimitrios Liakos       : Extrapolation schemes; Compound Job, initial MDCI parallelization
   Dimitrios Manganas     : Further ROCIS development; embedding schemes
   Dimitrios Pantazis     : SARC Basis sets
   Anastasios Papadopoulos: AUTO-CI, single reference methods and gradients
   Taras Petrenko         : DFT Hessian,TD-DFT gradient, ASA, ECA, R-Raman, ABS, FL, XAS/XES, NRVS
   Peter Pinski           : DLPNO-MP2, DLPNO-MP2 Gradient
   Christoph Reimann      : Effective Core Potentials
   Marius Retegan         : Local ZFS, SOC
   Christoph Riplinger    : Optimizer, TS searches, QM/MM, DLPNO-CCSD(T), (RO)-DLPNO pert. Triples
   Tobias Risthaus        : Range-separated hybrids, TD-DFT gradient, RPA, STAB
   Michael Roemelt        : Original ROCIS implementation
   Masaaki Saitow         : Open-shell DLPNO-CCSD energy and density
   Barbara Sandhoefer     : DKH picture change effects
   Avijit Sen             : IP-ROCIS
   Kantharuban Sivalingam : CASSCF convergence, NEVPT2, FIC-MRCI
   Bernardo de Souza      : ESD, SOC TD-DFT
   Georgi Stoychev        : AutoAux, RI-MP2 NMR, DLPNO-MP2 response
   Willem Van den Heuvel  : Paramagnetic NMR
   Boris Wezisla          : Elementary symmetry handling
   Frank Wennmohs         : Technical directorship


 We gratefully acknowledge several colleagues who have allowed us to
 interface, adapt or use parts of their codes:
   Stefan Grimme, W. Hujo, H. Kruse, P. Pracht,  : VdW corrections, initial TS optimization,
                  C. Bannwarth, S. Ehlert          DFT functionals, gCP, sTDA/sTD-DF
   Ed Valeev, F. Pavosevic, A. Kumar             : LibInt (2-el integral package), F12 methods
   Garnet Chan, S. Sharma, J. Yang, R. Olivares  : DMRG
   Ulf Ekstrom                                   : XCFun DFT Library
   Mihaly Kallay                                 : mrcc  (arbitrary order and MRCC methods)
   Jiri Pittner, Ondrej Demel                    : Mk-CCSD
   Frank Weinhold                                : gennbo (NPA and NBO analysis)
   Christopher J. Cramer and Donald G. Truhlar   : smd solvation model
   Lars Goerigk                                  : TD-DFT with DH, B97 family of functionals
   V. Asgeirsson, H. Jonsson                     : NEB implementation
   FAccTs GmbH                                   : IRC, NEB, NEB-TS, DLPNO-Multilevel, CI-OPT
                                                   MM, QMMM, 2- and 3-layer-ONIOM, Crystal-QMMM,
                                                   LR-CPCM, SF, NACMEs, symmetry and pop. for TD-DFT,
                                                   nearIR, NL-DFT gradient (VV10), updates on ESD,
                                                   ML-optimized integration grids
   S Lehtola, MJT Oliveira, MAL Marques          : LibXC Library
   Liviu Ungur et al                             : ANISO software


 Your calculation uses the libint2 library for the computation of 2-el integrals
 For citations please refer to: http://libint.valeyev.net

 Your ORCA version has been built with support for libXC version: 5.1.0
 For citations please refer to: https://tddft.org/programs/libxc/

 This ORCA versions uses:
   CBLAS   interface :  Fast vector & matrix operations
   LAPACKE interface :  Fast linear algebra routines
   SCALAPACK package :  Parallel linear algebra routines
   Shared memory     :  Shared parallel matrices
   BLAS/LAPACK       :  OpenBLAS 0.3.15  USE64BITINT DYNAMIC_ARCH NO_AFFINITY Sandybridge SINGLE_THREADED
        Core in use  :  Sandybridge
   Copyright (c) 2011-2014, The OpenBLAS Project


================================================================================

----- Orbital basis set information -----
Your calculation utilizes the basis: cc-pVDZ 
       H, B-Ne : Obtained from the ccRepo (grant-hill.group.shef.ac.uk/ccrepo) Feb. 2017
                 T. H. Dunning, Jr., J. Chem. Phys. 90, 1007 (1989)
            He : Obtained from the ccRepo (grant-hill.group.shef.ac.uk/ccrepo) Feb. 2017
                 D. E. Woon, T. H. Dunning, Jr., J. Chem. Phys. 100, 2975 (1994)
  Li-Be, Na-Mg : Obtained from the ccRepo (grant-hill.group.shef.ac.uk/ccrepo) Feb. 2017
                 B. P. Prascher, D. E. Woon, K. A. Peterson, T. H. Dunning, Jr., A. K. Wilson, Theor. Chem. Acc. 128, 69 (2011)
         Al-Ar : Obtained from the ccRepo (grant-hill.group.shef.ac.uk/ccrepo) Feb. 2017
                 D. E. Woon, T. H. Dunning, Jr., J. Chem. Phys. 98, 1358 (1993)
            Ca : Obtained from the Peterson Research Group Website (tyr0.chem.wsu.edu/~kipeters) Feb. 2017
                 J. Koput, K. A. Peterson, J. Phys. Chem. 106, 9595 (2002)
         Sc-Zn : Obtained from the ccRepo (grant-hill.group.shef.ac.uk/ccrepo) Feb. 2017
                 N. B. Balabanov, K. A. Peterson, J. Chem. Phys. 123, 064107 (2005)
                 N. B. Balabanov, K. A. Peterson, J. Chem. Phys. 125, 074110 (2006)
         Ga-Kr : Obtained from the ccRepo (grant-hill.group.shef.ac.uk/ccrepo) Feb. 2017
                 A. K. Wilson, D. E. Woon, K. A. Peterson, T. H. Dunning, Jr., J. Chem. Phys. 110, 7667 (1999)

================================================================================
                                        WARNINGS
                       Please study these warnings very carefully!
================================================================================


WARNING: No MP2 level density has been requested!
         To caclulate MP2 level properties use
         %mp2 Density relaxed end
         or
         %mp2 Density unrelaxed end

WARNING: Post HF methods need fully converged wavefunctions
  ===> : Setting SCFConvForced true
         You can overwrite this default with %scf ConvForced false 


INFO   : the flag for use of the SHARK integral package has been found!

================================================================================
                                       INPUT FILE
================================================================================
NAME = /scratch/allen/tmpyp4_amber_gaff2/2.Mdgx/conf11/conf11/Conf193.orca
|  1> ! PAL2
|  2> ! mp2 cc-pvdz TightSCF  NoKeepInts
|  3> 
|  4> %scf
|  5>   MaxCore 2000
|  6> end
|  7> %mp2
|  8>   MaxCore 2000
|  9> end
| 10> * xyz 0 1
| 11>    C       -4.93700         5.19000         0.30000
| 12>    C        1.47400         4.04100         0.05700
| 13>    C       -2.80200         4.09300         0.04900
| 14>    C       -2.23700         5.35700        -0.17800
| 15>    C       -3.03100         6.48600        -0.15600
| 16>    C       -5.17900         7.62500         0.13100
| 17>    C        0.13200         4.30700         0.06100
| 18>    C       -0.56900         3.05600         0.04700
| 19>    C        1.64900         2.61800         0.02300
| 20>    C       -4.18300         4.03300         0.29400
| 21>    N       -4.36100         6.39300         0.07600
| 22>    N        0.38800         2.06700         0.02500
| 23>    N       -2.01000         0.39500        -0.07500
| 24>    N       -0.38800        -2.07400        -0.02700
| 25>    N        2.01000        -0.40100         0.06500
| 26>    C       -1.96000         2.86100         0.02400
| 27>    C       -2.62300         1.61500        -0.01800
| 28>    C       -5.57300        -4.32900         1.06600
| 29>    C       -4.07300         1.47100         0.05600
| 30>    C       -4.10600        -2.75600        -0.02600
| 31>    C       -4.99500        -2.75700        -1.11100
| 32>    C       -6.13200        -3.54200        -1.07600
| 33>    C       -7.65100        -5.11300         0.04000
| 34>    C       -4.32400         0.14100         0.03700
| 35>    C       -3.02500        -0.52000        -0.04800
| 36>    C       -4.42200        -3.56600         1.07500
| 37>    N       -6.40700        -4.31300         0.00100
| 38>    C       -2.86700        -1.92200        -0.04000
| 39>    C       -1.65000        -2.62400        -0.02700
| 40>    C        3.56800        -6.14200        -1.04000
| 41>    C       -1.47600        -4.04900        -0.03400
| 42>    C        2.80300        -4.09900        -0.00800
| 43>    C        3.65700        -4.38400         1.06900
| 44>    C        4.42700        -5.53000         1.05900
| 45>    C        5.24500        -7.58800         0.01400
| 46>    C       -0.13400        -4.31500        -0.02200
| 47>    C        0.56800        -3.06400        -0.02700
| 48>    C        2.77500        -5.01200        -1.07400
| 49>    N        4.37600        -6.39100         0.01700
| 50>    C        1.95900        -2.86900        -0.00900
| 51>    C        2.62100        -1.62200         0.00900
| 52>    C        5.54300         4.33900        -1.13000
| 53>    C        4.07000        -1.47900        -0.09400
| 54>    C        4.10400         2.75100        -0.02100
| 55>    C        5.02700         2.72900         1.03600
| 56>    C        6.16600         3.50900         0.97800
| 57>    C        7.61900         5.15300        -0.11500
| 58>    C        4.32100        -0.14800        -0.09200
| 59>    C        3.02500         0.51400         0.01500
| 60>    C        4.38700         3.58200        -1.11500
| 61>    C        2.86600         1.91600         0.01300
| 62>    N        6.41300         4.29600        -0.09500
| 63>    H       -6.00600         5.18900         0.47200
| 64>    H        2.27400         4.76600         0.08100
| 65>    H       -1.17500         5.47000        -0.36300
| 66>    H       -2.64000         7.48200        -0.31700
| 67>    H       -5.13600         8.03600         1.14200
| 68>    H       -4.77800         8.34400        -0.58300
| 69>    H       -6.20700         7.37500        -0.12900
| 70>    H       -0.33200         5.28200         0.06900
| 71>    H       -4.68000         3.08400         0.46200
| 72>    H        0.18200         1.07200         0.00500
| 73>    H       -0.18300        -1.08000        -0.02100
| 74>    H       -5.86400        -4.96200         1.89500
| 75>    H       -4.79400         2.27200         0.13900
| 76>    H       -4.80000        -2.16000        -1.99400
| 77>    H       -6.84100        -3.58200        -1.89300
| 78>    H       -8.42800        -4.53600         0.54600
| 79>    H       -7.95600        -5.33700        -0.98100
| 80>    H       -7.45600        -6.03700         0.58400
| 81>    H       -5.28700        -0.34400         0.10000
| 82>    H       -3.78000        -3.60100         1.94700
| 83>    H        3.58700        -6.86800        -1.84300
| 84>    H       -2.27600        -4.77400        -0.05000
| 85>    H        3.71400        -3.72400         1.92600
| 86>    H        5.09200        -5.79500         1.87100
| 87>    H        6.20500        -7.32900        -0.43900
| 88>    H        5.39300        -7.91700         1.04200
| 89>    H        4.75900        -8.37300        -0.56400
| 90>    H        0.32900        -5.29000        -0.00800
| 91>    H        2.14600        -4.84200        -1.94000
| 92>    H        5.80800         4.98600        -1.95600
| 93>    H        4.78800        -2.28100        -0.18500
| 94>    H        4.86000         2.11400         1.91200
| 95>    H        6.90100         3.53100         1.77200
| 96>    H        7.38300         6.10900         0.35600
| 97>    H        8.41400         4.65200         0.43500
| 98>    H        7.92100         5.31000        -1.15000
| 99>    H        5.28300         0.33600        -0.17900
|100>    H        3.72000         3.63200        -1.96700
|101> *
|102> 
|103>                          ****END OF INPUT****
================================================================================

                       ****************************
                       * Single Point Calculation *
                       ****************************

---------------------------------
CARTESIAN COORDINATES (ANGSTROEM)
---------------------------------
  C     -4.937000    5.190000    0.300000
  C      1.474000    4.041000    0.057000
  C     -2.802000    4.093000    0.049000
  C     -2.237000    5.357000   -0.178000
  C     -3.031000    6.486000   -0.156000
  C     -5.179000    7.625000    0.131000
  C      0.132000    4.307000    0.061000
  C     -0.569000    3.056000    0.047000
  C      1.649000    2.618000    0.023000
  C     -4.183000    4.033000    0.294000
  N     -4.361000    6.393000    0.076000
  N      0.388000    2.067000    0.025000
  N     -2.010000    0.395000   -0.075000
  N     -0.388000   -2.074000   -0.027000
  N      2.010000   -0.401000    0.065000
  C     -1.960000    2.861000    0.024000
  C     -2.623000    1.615000   -0.018000
  C     -5.573000   -4.329000    1.066000
  C     -4.073000    1.471000    0.056000
  C     -4.106000   -2.756000   -0.026000
  C     -4.995000   -2.757000   -1.111000
  C     -6.132000   -3.542000   -1.076000
  C     -7.651000   -5.113000    0.040000
  C     -4.324000    0.141000    0.037000
  C     -3.025000   -0.520000   -0.048000
  C     -4.422000   -3.566000    1.075000
  N     -6.407000   -4.313000    0.001000
  C     -2.867000   -1.922000   -0.040000
  C     -1.650000   -2.624000   -0.027000
  C      3.568000   -6.142000   -1.040000
  C     -1.476000   -4.049000   -0.034000
  C      2.803000   -4.099000   -0.008000
  C      3.657000   -4.384000    1.069000
  C      4.427000   -5.530000    1.059000
  C      5.245000   -7.588000    0.014000
  C     -0.134000   -4.315000   -0.022000
  C      0.568000   -3.064000   -0.027000
  C      2.775000   -5.012000   -1.074000
  N      4.376000   -6.391000    0.017000
  C      1.959000   -2.869000   -0.009000
  C      2.621000   -1.622000    0.009000
  C      5.543000    4.339000   -1.130000
  C      4.070000   -1.479000   -0.094000
  C      4.104000    2.751000   -0.021000
  C      5.027000    2.729000    1.036000
  C      6.166000    3.509000    0.978000
  C      7.619000    5.153000   -0.115000
  C      4.321000   -0.148000   -0.092000
  C      3.025000    0.514000    0.015000
  C      4.387000    3.582000   -1.115000
  C      2.866000    1.916000    0.013000
  N      6.413000    4.296000   -0.095000
  H     -6.006000    5.189000    0.472000
  H      2.274000    4.766000    0.081000
  H     -1.175000    5.470000   -0.363000
  H     -2.640000    7.482000   -0.317000
  H     -5.136000    8.036000    1.142000
  H     -4.778000    8.344000   -0.583000
  H     -6.207000    7.375000   -0.129000
  H     -0.332000    5.282000    0.069000
  H     -4.680000    3.084000    0.462000
  H      0.182000    1.072000    0.005000
  H     -0.183000   -1.080000   -0.021000
  H     -5.864000   -4.962000    1.895000
  H     -4.794000    2.272000    0.139000
  H     -4.800000   -2.160000   -1.994000
  H     -6.841000   -3.582000   -1.893000
  H     -8.428000   -4.536000    0.546000
  H     -7.956000   -5.337000   -0.981000
  H     -7.456000   -6.037000    0.584000
  H     -5.287000   -0.344000    0.100000
  H     -3.780000   -3.601000    1.947000
  H      3.587000   -6.868000   -1.843000
  H     -2.276000   -4.774000   -0.050000
  H      3.714000   -3.724000    1.926000
  H      5.092000   -5.795000    1.871000
  H      6.205000   -7.329000   -0.439000
  H      5.393000   -7.917000    1.042000
  H      4.759000   -8.373000   -0.564000
  H      0.329000   -5.290000   -0.008000
  H      2.146000   -4.842000   -1.940000
  H      5.808000    4.986000   -1.956000
  H      4.788000   -2.281000   -0.185000
  H      4.860000    2.114000    1.912000
  H      6.901000    3.531000    1.772000
  H      7.383000    6.109000    0.356000
  H      8.414000    4.652000    0.435000
  H      7.921000    5.310000   -1.150000
  H      5.283000    0.336000   -0.179000
  H      3.720000    3.632000   -1.967000

----------------------------
CARTESIAN COORDINATES (A.U.)
----------------------------
  NO LB      ZA    FRAG     MASS         X           Y           Z
   0 C     6.0000    0    12.011   -9.329578    9.807679    0.566918
   1 C     6.0000    0    12.011    2.785456    7.636383    0.107714
   2 C     6.0000    0    12.011   -5.295013    7.734649    0.092597
   3 C     6.0000    0    12.011   -4.227317   10.123263   -0.336371
   4 C     6.0000    0    12.011   -5.727760   12.256764   -0.294797
   5 C     6.0000    0    12.011   -9.786892   14.409162    0.247554
   6 C     6.0000    0    12.011    0.249444    8.139050    0.115273
   7 C     6.0000    0    12.011   -1.075254    5.775003    0.088817
   8 C     6.0000    0    12.011    3.116158    4.947303    0.043464
   9 C     6.0000    0    12.011   -7.904724    7.621265    0.555579
  10 N     7.0000    0    14.007   -8.241096   12.081019    0.143619
  11 N     7.0000    0    14.007    0.733214    3.906064    0.047243
  12 N     7.0000    0    14.007   -3.798350    0.746442   -0.141729
  13 N     7.0000    0    14.007   -0.733214   -3.919292   -0.051023
  14 N     7.0000    0    14.007    3.798350   -0.757780    0.122832
  15 C     6.0000    0    12.011   -3.703863    5.406506    0.045353
  16 C     6.0000    0    12.011   -4.956752    3.051908   -0.034015
  17 C     6.0000    0    12.011  -10.531444   -8.180624    2.014448
  18 C     6.0000    0    12.011   -7.696855    2.779787    0.105825
  19 C     6.0000    0    12.011   -7.759216   -5.208085   -0.049133
  20 C     6.0000    0    12.011   -9.439182   -5.209975   -2.099486
  21 C     6.0000    0    12.011  -11.587801   -6.693410   -2.033345
  22 C     6.0000    0    12.011  -14.458295   -9.662170    0.075589
  23 C     6.0000    0    12.011   -8.171176    0.266451    0.069920
  24 C     6.0000    0    12.011   -5.716422   -0.982658   -0.090707
  25 C     6.0000    0    12.011   -8.356369   -6.738763    2.031456
  26 N     7.0000    0    14.007  -12.107475   -8.150389    0.001890
  27 C     6.0000    0    12.011   -5.417845   -3.632054   -0.075589
  28 C     6.0000    0    12.011   -3.118048   -4.958641   -0.051023
  29 C     6.0000    0    12.011    6.742543  -11.606698   -1.965315
  30 C     6.0000    0    12.011   -2.789236   -7.651501   -0.064251
  31 C     6.0000    0    12.011    5.296902   -7.745987   -0.015118
  32 C     6.0000    0    12.011    6.910728   -8.284559    2.020117
  33 C     6.0000    0    12.011    8.365818  -10.450186    2.001220
  34 C     6.0000    0    12.011    9.911614  -14.339242    0.026456
  35 C     6.0000    0    12.011   -0.253223   -8.154168   -0.041574
  36 C     6.0000    0    12.011    1.073364   -5.790121   -0.051023
  37 C     6.0000    0    12.011    5.243990   -9.471307   -2.029566
  38 N     7.0000    0    14.007    8.269442  -12.077240    0.032125
  39 C     6.0000    0    12.011    3.701973   -5.421624   -0.017008
  40 C     6.0000    0    12.011    4.952972   -3.065136    0.017008
  41 C     6.0000    0    12.011   10.474752    8.199522   -2.135391
  42 C     6.0000    0    12.011    7.691185   -2.794905   -0.177634
  43 C     6.0000    0    12.011    7.755436    5.198637   -0.039684
  44 C     6.0000    0    12.011    9.499653    5.157063    1.957756
  45 C     6.0000    0    12.011   11.652051    6.631049    1.848152
  46 C     6.0000    0    12.011   14.397823    9.737759   -0.217319
  47 C     6.0000    0    12.011    8.165507   -0.279679   -0.173855
  48 C     6.0000    0    12.011    5.716422    0.971319    0.028346
  49 C     6.0000    0    12.011    8.290229    6.768999   -2.107045
  50 C     6.0000    0    12.011    5.415955    3.620715    0.024566
  51 N     7.0000    0    14.007   12.118814    8.118263   -0.179524
  52 H     1.0000    0     1.008  -11.349695    9.805789    0.891951
  53 H     1.0000    0     1.008    4.297237    9.006435    0.153068
  54 H     1.0000    0     1.008   -2.220428   10.336802   -0.685971
  55 H     1.0000    0     1.008   -4.988877   14.138931   -0.599043
  56 H     1.0000    0     1.008   -9.705633   15.185839    2.158067
  57 H     1.0000    0     1.008   -9.029111   15.767875   -1.101710
  58 H     1.0000    0     1.008  -11.729530   13.936730   -0.243775
  59 H     1.0000    0     1.008   -0.627389    9.981533    0.130391
  60 H     1.0000    0     1.008   -8.843918    5.827915    0.873053
  61 H     1.0000    0     1.008    0.343930    2.025786    0.009449
  62 H     1.0000    0     1.008   -0.345820   -2.040904   -0.039684
  63 H     1.0000    0     1.008  -11.081354   -9.376821    3.581031
  64 H     1.0000    0     1.008   -9.059347    4.293458    0.262672
  65 H     1.0000    0     1.008   -9.070685   -4.081808   -3.768114
  66 H     1.0000    0     1.008  -12.927616   -6.768999   -3.577252
  67 H     1.0000    0     1.008  -15.926612   -8.571798    1.031790
  68 H     1.0000    0     1.008  -15.034661  -10.085468   -1.853821
  69 H     1.0000    0     1.008  -14.089798  -11.408277    1.103600
  70 H     1.0000    0     1.008   -9.990982   -0.650066    0.188973
  71 H     1.0000    0     1.008   -7.143165   -6.804904    3.679297
  72 H     1.0000    0     1.008    6.778448  -12.978639   -3.482765
  73 H     1.0000    0     1.008   -4.301017   -9.021553   -0.094486
  74 H     1.0000    0     1.008    7.018443   -7.037340    3.639613
  75 H     1.0000    0     1.008    9.622485  -10.950963    3.535678
  76 H     1.0000    0     1.008   11.725751  -13.849803   -0.829590
  77 H     1.0000    0     1.008   10.191293  -14.960962    1.969095
  78 H     1.0000    0     1.008    8.993207  -15.822677   -1.065806
  79 H     1.0000    0     1.008    0.621720   -9.996651   -0.015118
  80 H     1.0000    0     1.008    4.055352   -9.150054   -3.666069
  81 H     1.0000    0     1.008   10.975529    9.422175   -3.696304
  82 H     1.0000    0     1.008    9.048009   -4.310465   -0.349599
  83 H     1.0000    0     1.008    9.184069    3.994881    3.613156
  84 H     1.0000    0     1.008   13.041000    6.672623    3.348595
  85 H     1.0000    0     1.008   13.951848   11.544337    0.672743
  86 H     1.0000    0     1.008   15.900156    8.791006    0.822031
  87 H     1.0000    0     1.008   14.968521   10.034446   -2.173185
  88 H     1.0000    0     1.008    9.983423    0.634948   -0.338261
  89 H     1.0000    0     1.008    7.029781    6.863485   -3.717091

--------------------------------
INTERNAL COORDINATES (ANGSTROEM)
--------------------------------
 C      0   0   0     0.000000000000     0.00000000     0.00000000
 C      1   0   0     6.517681412895     0.00000000     0.00000000
 C      1   2   0     2.413428059835    17.41493467     0.00000000
 C      3   1   2     1.403014611471    87.91223088   338.39765582
 C      4   3   1     1.380420588082   120.17357824     0.14801623
 C      5   4   3     2.448181774297   152.50314618     1.57497668
 C      2   1   3     1.368114030335     2.23171877   104.86103446
 C      7   2   4     1.434084376876   108.05010202   155.95659484
 C      2   1   3     1.434123425651   107.20759539   347.53507776
 C      1   2   7     1.381014482183    46.77267967   119.75462885
 N      1   2   7     1.352464786972    74.43771788   307.38996302
 N      9   2   1     1.376127174356   106.58526707     1.32480702
 N     12   9   2     2.925062050624   168.53581413   171.12065651
 N     13  12   9     2.954513327098    91.55032014    11.12112580
 N     14  13  12     2.925371258490    88.43092389   359.84326247
 C      8   7   2     1.404790019896   127.24786865   181.11170171
 C     13  12   9     1.366535034311    81.72106996   188.00453233
 C     14  13  12     5.758810554272    80.56209567   166.76250791
 C     17  13  12     1.459010623676   111.08861209   183.82872609
 C     18  14  13     2.412235892279    27.27532823    36.33507194
 C     20  18  14     1.402692767501    87.95206320   148.94598259
 C     21  20  18     1.382106725257   120.14573887   359.70382047
 C     18  14  13     2.446510985056   144.15733107    82.80075377
 C     19  17  13     1.353610726908   106.29293361   359.75308708
 C     13  12   9     1.366813447402   172.21332906    33.46711076
 C     18  14  13     1.380960173213    15.08449437   309.23336894
 N     22  21  20     1.352773077792   120.73759875     0.27865223
 C     25  13  17     1.410897586645   125.60330303   182.37774668
 C     14  13  12     1.376642291955    80.24689249   177.85461986
 C     14  13  12     5.764089607215   164.51507311   312.20821879
 C     29  14  13     1.435600919476   106.58649366   178.76395472
 C     30  14  13     2.413316804732    27.10625047    82.12560436
 C     32  30  14     1.403734305344    87.90059683   149.76154742
 C     33  32  30     1.380694028378   120.14881443   359.74174632
 C     34  33  32     2.448777858443   152.49203239     2.45173620
 C     31  29  14     1.368160809262   108.16950133     0.70383075
 C     14  13  12     1.376239804685   169.26375223   353.09862627
 C     30  14  13     1.380907310430    14.68948582   353.70041132
 N     34  33  32     1.352658863128   120.85575621     0.19603406
 C     37  14  29     1.404717053360   126.01551127   180.90772073
 C     15  14  13     1.366491126938    81.61824056   183.09049352
 C      2   1   3     4.249062720177   160.05157529   121.00102012
 C     41  15  14     1.459677704153   111.05201287   175.08990246
 C     42   2   1     2.412953791518    41.78584867   200.32761990
 C     44  42   2     1.403446472082    87.95153797   233.97558675
 C     45  44  42     1.381696421071   120.11137308     0.19721020
 C     42   2   1     2.450019795838   135.97209175   110.64246900
 C     43  41  15     1.354461516618   106.26758155     0.30894352
 C     15  14  13     1.367461151185   171.87382904   332.35056460
 C     42   2   1     1.381886391857    32.59078432   249.18289909
 C      9   2   1     1.404988612053   126.98745415   182.32914455
 N     42   2   1     1.352765315936   113.57249190   138.37905819
 H      1   2   7     1.082749278457   167.66121945   153.07044625
 H      2   1   3     1.079907866440   127.55315350   170.02654329
 H      4   3   1     1.083899441830   121.07144535   179.52178451
 H      5   4   3     1.082043437206   122.86171799   179.47535083
 H      6   5   4     1.092195495321   104.42105811   100.17121570
 H      6   5   4     1.089751347785    84.68083335   209.59148478
 H      6   5   4     1.089442059038   133.88109520   322.38198550
 H     55   4   3     0.965720974195   139.34443354   301.04322730
 H     10   1   2     1.084358796709   118.83552657   172.37249241
 H     12   9   2     1.016297692608   125.29023241   180.00180175
 H     14  13  12     1.014936943854    44.97226959   359.42596618
 H     18  14  13     1.082871645210   128.03556573   234.20482432
 H     61  10   1     0.881288261581   143.98561215   127.38947414
 H     21  20  18     1.083569563987   121.05669627   180.67006309
 H     22  21  20     1.082483256222   122.73097286   180.59748951
 H     23  18  14     1.092105306278   103.92715769   234.93429879
 H     23  18  14     1.088871893291   134.19244188    12.25587044
 H     23  18  14     1.089833473518    84.85857450   125.45241208
 H     24  19  17     1.080075460327   127.28078426   178.44613241
 H     26  18  14     1.083408048706   118.76995697   244.94906660
 H     30  14  13     1.082703098730   127.99711412   279.66882698
 H     31  29  14     1.079759695488   125.22293469   180.92530585
 H     33  32  30     1.083188810873   121.01964473   180.74284758
 H     34  33  32     1.082494341787   122.70821597   180.59516895
 H     35  34  33     1.092652735319   105.73575241    97.19771933
 H     35  34  33     1.089462711615    84.05943581   206.43036958
 H     35  34  33     1.089268102902   133.08365142   318.50306270
 H     36  31  29     1.079439669458   126.61599965   178.98859863
 H     38  30  73     1.083742127999   118.77264435   359.90091293
 H     42   2   1     1.082178358682   119.31790784   355.01058865
 H     43  41  15     1.080281907652   126.36969097   182.06329380
 H     45  44  42     1.083277434455   121.10105945   179.58025624
 H     46  45  44     1.082194529648   122.72144639   179.46906377
 H     47  42   2     1.091546151109   106.65128841   315.16475048
 H     47  42   2     1.088818625851   132.46019523    94.52397119
 H     47  42   2     1.089531091801    83.63838232   206.04504406
 H     48  43  41     1.080402239909   127.23657387   181.62955349
 H     50  42   2     1.083186502870   118.77001737    94.71359229

---------------------------
INTERNAL COORDINATES (A.U.)
---------------------------
 C      0   0   0     0.000000000000     0.00000000     0.00000000
 C      1   0   0    12.316632898521     0.00000000     0.00000000
 C      1   2   0     4.560718077009    17.41493467     0.00000000
 C      3   1   2     2.651313377569    87.91223088   338.39765582
 C      4   3   1     2.608616861101   120.17357824     0.14801623
 C      5   4   3     4.626393079479   152.50314618     1.57497668
 C      2   1   3     2.585360837309     2.23171877   104.86103446
 C      7   2   4     2.710026725231   108.05010202   155.95659484
 C      2   1   3     2.710100516721   107.20759539   347.53507776
 C      1   2   7     2.609739158306    46.77267967   119.75462885
 N      1   2   7     2.555788053150    74.43771788   307.38996302
 N      9   2   1     2.600503484979   106.58526707     1.32480702
 N     12   9   2     5.527566200405   168.53581413   171.12065651
 N     13  12   9     5.583221047236    91.55032014    11.12112580
 N     14  13  12     5.528150518591    88.43092389   359.84326247
 C      8   7   2     2.654668413270   127.24786865   181.11170171
 C     13  12   9     2.582376967257    81.72106996   188.00453233
 C     14  13  12    10.882574804710    80.56209567   166.76250791
 C     17  13  12     2.757130505230   111.08861209   183.82872609
 C     18  14  13     4.558465206823    27.27532823    36.33507194
 C     20  18  14     2.650705180609    87.95206320   148.94598259
 C     21  20  18     2.611803198586   120.14573887   359.70382047
 C     18  14  13     4.623235745386   144.15733107    82.80075377
 C     19  17  13     2.557953565794   106.29293361   359.75308708
 C     13  12   9     2.582903091751   172.21332906    33.46711076
 C     18  14  13     2.609636529225    15.08449437   309.23336894
 N     22  21  20     2.556370638369   120.73759875     0.27865223
 C     25  13  17     2.666210041769   125.60330303   182.37774668
 C     14  13  12     2.601476916169    80.24689249   177.85461986
 C     14  13  12    10.892550769017   164.51507311   312.20821879
 C     29  14  13     2.712892575415   106.58649366   178.76395472
 C     30  14  13     4.560507835333    27.10625047    82.12560436
 C     32  30  14     2.652673401891    87.90059683   149.76154742
 C     33  32  30     2.609133588376   120.14881443   359.74174632
 C     34  33  32     4.627519515267   152.49203239     2.45173620
 C     31  29  14     2.585449236669   108.16950133     0.70383075
 C     14  13  12     2.600716325456   169.26375223   353.09862627
 C     30  14  13     2.609536633043    14.68948582   353.70041132
 N     34  33  32     2.556154803934   120.85575621     0.19603406
 C     37  14  29     2.654530526499   126.01551127   180.90772073
 C     15  14  13     2.582293994346    81.61824056   183.09049352
 C      2   1   3     8.029564866989   160.05157529   121.00102012
 C     41  15  14     2.758391104639   111.05201287   175.08990246
 C     42   2   1     4.559821839776    41.78584867   200.32761990
 C     44  42   2     2.652129475853    87.95153797   233.97558675
 C     45  44  42     2.611027836043   120.11137308     0.19721020
 C     42   2   1     4.629866436820   135.97209175   110.64246900
 C     43  41  15     2.559561325344   106.26758155     0.30894352
 C     15  14  13     2.584127074516   171.87382904   332.35056460
 C     42   2   1     2.611386828803    32.59078432   249.18289909
 C      9   2   1     2.655043698059   126.98745415   182.32914455
 N     42   2   1     2.556355970587   113.57249190   138.37905819
 H      1   2   7     2.046099607985   167.66121945   153.07044625
 H      2   1   3     2.040730117440   127.55315350   170.02654329
 H      4   3   1     2.048273101769   121.07144535   179.52178451
 H      5   4   3     2.044765761326   122.86171799   179.47535083
 H      6   5   4     2.063950370860   104.42105811   100.17121570
 H      6   5   4     2.059331601386    84.68083335   209.59148478
 H      6   5   4     2.058747130356   133.88109520   322.38198550
 H     55   4   3     1.824948163012   139.34443354   301.04322730
 H     10   1   2     2.049141156688   118.83552657   172.37249241
 H     12   9   2     1.920524309565   125.29023241   180.00180175
 H     14  13  12     1.917952867083    44.97226959   359.42596618
 H     18  14  13     2.046330847636   128.03556573   234.20482432
 H     61  10   1     1.665393459427   143.98561215   127.38947414
 H     21  20  18     2.047649722989   121.05669627   180.67006309
 H     22  21  20     2.045596898814   122.73097286   180.59748951
 H     23  18  14     2.063779938267   103.92715769   234.93429879
 H     23  18  14     2.057669673245   134.19244188    12.25587044
 H     23  18  14     2.059486796529    84.85857450   125.45241208
 H     24  19  17     2.041046823986   127.28078426   178.44613241
 H     26  18  14     2.047344503340   118.76995697   244.94906660
 H     30  14  13     2.046012340948   127.99711412   279.66882698
 H     31  29  14     2.040450114918   125.22293469   180.92530585
 H     33  32  30     2.046930203877   121.01964473   180.74284758
 H     34  33  32     2.045617847496   122.70821597   180.59516895
 H     35  34  33     2.064814429233   105.73575241    97.19771933
 H     35  34  33     2.058786158072    84.05943581   206.43036958
 H     35  34  33     2.058418400901   133.08365142   318.50306270
 H     36  31  29     2.039845353366   126.61599965   178.98859863
 H     38  30  73     2.047975821711   118.77264435   359.90091293
 H     42   2   1     2.045020725966   119.31790784   355.01058865
 H     43  41  15     2.041436952892   126.36969097   182.06329380
 H     45  44  42     2.047097678177   121.10105945   179.58025624
 H     46  45  44     2.045051284662   122.72144639   179.46906377
 H     47  42   2     2.062723288131   106.65128841   315.16475048
 H     47  42   2     2.057569012371   132.46019523    94.52397119
 H     47  42   2     2.058915377895    83.63838232   206.04504406
 H     48  43  41     2.041664347903   127.23657387   181.62955349
 H     50  42   2     2.046925842384   118.77001737    94.71359229

---------------------
BASIS SET INFORMATION
---------------------
There are 3 groups of distinct atoms

 Group   1 Type C   : 17s4p1d contracted to 3s2p1d pattern {881/31/1}
 Group   2 Type N   : 17s4p1d contracted to 3s2p1d pattern {881/31/1}
 Group   3 Type H   : 4s1p contracted to 2s1p pattern {31/1}

Atom   0C    basis set group =>   1
Atom   1N    basis set group =>   2
Atom   2C    basis set group =>   1
Atom   3N    basis set group =>   2
Atom   4C    basis set group =>   1
Atom   5N    basis set group =>   2
Atom   6C    basis set group =>   1
Atom   7N    basis set group =>   2
Atom   8C    basis set group =>   1
Atom   9N    basis set group =>   2
Atom  10C    basis set group =>   1
Atom  11N    basis set group =>   2
Atom  12C    basis set group =>   1
Atom  13N    basis set group =>   2
Atom  14C    basis set group =>   1
Atom  15N    basis set group =>   2
Atom  16C    basis set group =>   1
Atom  17C    basis set group =>   1
Atom  18C    basis set group =>   1
Atom  19C    basis set group =>   1
Atom  20C    basis set group =>   1
Atom  21C    basis set group =>   1
Atom  22C    basis set group =>   1
Atom  23C    basis set group =>   1
Atom  24C    basis set group =>   1
Atom  25C    basis set group =>   1
Atom  26C    basis set group =>   1
Atom  27C    basis set group =>   1
Atom  28C    basis set group =>   1
Atom  29C    basis set group =>   1
Atom  30C    basis set group =>   1
Atom  31C    basis set group =>   1
Atom  32C    basis set group =>   1
Atom  33C    basis set group =>   1
Atom  34C    basis set group =>   1
Atom  35C    basis set group =>   1
Atom  36C    basis set group =>   1
Atom  37C    basis set group =>   1
Atom  38C    basis set group =>   1
Atom  39C    basis set group =>   1
Atom  40C    basis set group =>   1
Atom  41C    basis set group =>   1
Atom  42C    basis set group =>   1
Atom  43C    basis set group =>   1
Atom  44C    basis set group =>   1
Atom  45C    basis set group =>   1
Atom  46C    basis set group =>   1
Atom  47C    basis set group =>   1
Atom  48C    basis set group =>   1
Atom  49C    basis set group =>   1
Atom  50C    basis set group =>   1
Atom  51C    basis set group =>   1
Atom  52H    basis set group =>   3
Atom  53H    basis set group =>   3
Atom  54H    basis set group =>   3
Atom  55H    basis set group =>   3
Atom  56H    basis set group =>   3
Atom  57H    basis set group =>   3
Atom  58H    basis set group =>   3
Atom  59H    basis set group =>   3
Atom  60H    basis set group =>   3
Atom  61H    basis set group =>   3
Atom  62H    basis set group =>   3
Atom  63H    basis set group =>   3
Atom  64H    basis set group =>   3
Atom  65H    basis set group =>   3
Atom  66H    basis set group =>   3
Atom  67H    basis set group =>   3
Atom  68H    basis set group =>   3
Atom  69H    basis set group =>   3
Atom  70H    basis set group =>   3
Atom  71H    basis set group =>   3
Atom  72H    basis set group =>   3
Atom  73H    basis set group =>   3
Atom  74H    basis set group =>   3
Atom  75H    basis set group =>   3
Atom  76H    basis set group =>   3
Atom  77H    basis set group =>   3
Atom  78H    basis set group =>   3
Atom  79H    basis set group =>   3
Atom  80H    basis set group =>   3
Atom  81H    basis set group =>   3
Atom  82H    basis set group =>   3
Atom  83H    basis set group =>   3
Atom  84H    basis set group =>   3
Atom  85H    basis set group =>   3
Atom  86H    basis set group =>   3
Atom  87H    basis set group =>   3
Atom  88H    basis set group =>   3
Atom  89H    basis set group =>   3


           ************************************************************
           *        Program running with 16 parallel MPI-processes    *
           *              working on a common directory               *
           ************************************************************
------------------------------------------------------------------------------
                           ORCA GTO INTEGRAL CALCULATION
------------------------------------------------------------------------------
------------------------------------------------------------------------------
                   ___                                                        
                  /   \      - P O W E R E D   B Y -                         
                 /     \                                                     
                 |  |  |   _    _      __       _____    __    __             
                 |  |  |  | |  | |    /  \     |  _  \  |  |  /  |          
                  \  \/   | |  | |   /    \    | | | |  |  | /  /          
                 / \  \   | |__| |  /  /\  \   | |_| |  |  |/  /          
                |  |  |   |  __  | /  /__\  \  |    /   |      \           
                |  |  |   | |  | | |   __   |  |    \   |  |\   \          
                \     /   | |  | | |  |  |  |  | |\  \  |  | \   \       
                 \___/    |_|  |_| |__|  |__|  |_| \__\ |__|  \__/        
                                                                              
                      - O R C A' S   B I G   F R I E N D -                    
                                      &                                       
                       - I N T E G R A L  F E E D E R -                       
                                                                              
 v1 FN, 2020, v2 2021                                                         
------------------------------------------------------------------------------


Reading SHARK input file /scratch/allen/tmpyp4_amber_gaff2/conf1/conf1/Conf193.orca.SHARKINP.tmp ... ok
----------------------
SHARK INTEGRAL PACKAGE
----------------------

Number of atoms                             ...     90
Number of basis functions                   ...   1230
Number of shells                            ...    738
Maximum angular momentum                    ...      2
Integral batch strategy                     ... SHARK/LIBINT Hybrid
RI-J (if used) integral strategy            ... SPLIT-RIJ (Revised 2003 algorithm where possible)
Printlevel                                  ...      1
Contraction scheme used                     ... PARTIAL GENERAL contraction
Coulomb Range Separation                    ... NOT USED
Exchange Range Separation                   ... NOT USED
Finite Nucleus Model                        ... NOT USED
Auxiliary Coulomb fitting basis             ... NOT available
Auxiliary J/K fitting basis                 ... NOT available
Auxiliary Correlation fitting basis         ... NOT available
Auxiliary 'external' fitting basis          ... NOT available
Integral threshold                          ...     2.500000e-11
Primitive cut-off                           ...     2.500000e-12
Primitive pair pre-selection threshold      ...     2.500000e-12

Calculating pre-screening integrals         ... done (  0.1 sec) Dimension = 738
Calculating pre-screening integrals (ORCA)  ... done (  0.3 sec) Dimension = 426
Organizing shell pair data                  ... done (  0.7 sec)
Shell pair information
Total number of shell pairs                 ...    272691
Shell pairs after pre-screening             ...     71724
Total number of primitive shell pairs       ...    422091
Primitive shell pairs kept                  ...     92629
          la=0 lb=0:  29440 shell pairs
          la=1 lb=0:  26032 shell pairs
          la=1 lb=1:   4700 shell pairs
          la=2 lb=0:   7894 shell pairs
          la=2 lb=1:   3129 shell pairs
          la=2 lb=2:    529 shell pairs

Calculating one electron integrals          ... done (  0.2 sec)
Calculating Nuclear repulsion               ... done (  0.0 sec) ENN=   6235.122792029619 Eh

SHARK setup successfully completed in   2.5 seconds

Maximum memory used throughout the entire GTOINT-calculation: 99.1 MB


           ************************************************************
           *        Program running with 16 parallel MPI-processes    *
           *              working on a common directory               *
           ************************************************************
-------------------------------------------------------------------------------
                                 ORCA SCF
-------------------------------------------------------------------------------

------------
SCF SETTINGS
------------
Hamiltonian:
 Ab initio Hamiltonian  Method          .... Hartree-Fock(GTOs)


General Settings:
 Integral files         IntName         .... /scratch/allen/tmpyp4_amber_gaff2/conf1/conf1/Conf193.orca
 Hartree-Fock type      HFTyp           .... RHF
 Total Charge           Charge          ....    0
 Multiplicity           Mult            ....    1
 Number of Electrons    NEL             ....  358
 Basis Dimension        Dim             ....  918
 Nuclear Repulsion      ENuc            ....   6235.1227920296 Eh

Convergence Acceleration:
 DIIS                   CNVDIIS         .... on
   Start iteration      DIISMaxIt       ....    12
   Startup error        DIISStart       ....  0.200000
   # of expansion vecs  DIISMaxEq       ....     5
   Bias factor          DIISBfac        ....   1.050
   Max. coefficient     DIISMaxC        ....  10.000
 Trust-Rad. Augm. Hess. CNVTRAH         .... auto
   Auto Start mean grad. ratio tolernc. ....  1.125000
   Auto Start start iteration           ....    20
   Auto Start num. interpolation iter.  ....    10
   Max. Number of Micro iterations      ....    16
   Max. Number of Macro iterations      .... Maxiter - #DIIS iter
   Number of Davidson start vectors     ....     2
   Converg. threshold I  (grad. norm)   ....   1.000e-05
   Converg. threshold II (energy diff.) ....   1.000e-08
   Grad. Scal. Fac. for Micro threshold ....   0.100
   Minimum threshold for Micro iter.    ....   0.010
   NR start threshold (gradient norm)   ....   0.001
   Initial trust radius                 ....   0.400
   Minimum AH scaling param. (alpha)    ....   1.000
   Maximum AH scaling param. (alpha)    .... 1000.000
   Orbital update algorithm             .... Taylor
   White noise on init. David. guess    .... on
   Maximum white noise                  ....   0.010
   Quad. conv. algorithm                .... NR
 SOSCF                  CNVSOSCF        .... on
   Start iteration      SOSCFMaxIt      ....   150
   Startup grad/error   SOSCFStart      ....  0.003300
 Level Shifting         CNVShift        .... on
   Level shift para.    LevelShift      ....    0.2500
   Turn off err/grad.   ShiftErr        ....    0.0010
 Zerner damping         CNVZerner       .... off
 Static damping         CNVDamp         .... on
   Fraction old density DampFac         ....    0.7000
   Max. Damping (<1)    DampMax         ....    0.9800
   Min. Damping (>=0)   DampMin         ....    0.0000
   Turn off err/grad.   DampErr         ....    0.1000
 Fernandez-Rico         CNVRico         .... off

SCF Procedure:
 Maximum # iterations   MaxIter         ....   125
 SCF integral mode      SCFMode         .... Direct
   Integral package                     .... SHARK and LIBINT hybrid scheme
 Reset frequency        DirectResetFreq ....    20
 Integral Threshold     Thresh          ....  2.500e-11 Eh
 Primitive CutOff       TCut            ....  2.500e-12 Eh

Convergence Tolerance:
 Convergence Check Mode ConvCheckMode   .... Total+1el-Energy
 Convergence forced     ConvForced      .... 1
 Energy Change          TolE            ....  1.000e-08 Eh
 1-El. energy change                    ....  1.000e-05 Eh
 Orbital Gradient       TolG            ....  1.000e-05
 Orbital Rotation angle TolX            ....  1.000e-05
 DIIS Error             TolErr          ....  5.000e-07


Diagonalization of the overlap matrix:
Smallest eigenvalue                        ... 1.805e-04
Time for diagonalization                   ...    0.482 sec
Threshold for overlap eigenvalues          ... 1.000e-08
Number of eigenvalues below threshold      ... 0
Time for construction of square roots      ...    0.266 sec
Total time needed                          ...    0.755 sec

Time for model grid setup =    1.291 sec

------------------------------
INITIAL GUESS: MODEL POTENTIAL
------------------------------
Loading Hartree-Fock densities                     ... done
Calculating cut-offs                               ... done
Initializing the effective Hamiltonian             ... done
Setting up the integral package (SHARK)            ... done
Starting the Coulomb interaction                   ... done (   1.5 sec)
Reading the grid                                   ... done
Mapping shells                                     ... done
Starting the XC term evaluation                    ... done (   0.2 sec)
Transforming the Hamiltonian                       ... done (   0.3 sec)
Diagonalizing the Hamiltonian                      ... done (   0.4 sec)
Back transforming the eigenvectors                 ... done (   0.1 sec)
Now organizing SCF variables                       ... done
                      ------------------
                      INITIAL GUESS DONE (   3.8 sec)
                      ------------------
--------------
SCF ITERATIONS
--------------
ITER       Energy         Delta-E        Max-DP      RMS-DP      [F,P]     Damp
               ***  Starting incremental Fock matrix formation  ***
  0  -2121.5931423650   0.000000000000 0.07447344  0.00128818  0.2312057 0.7000
  1  -2122.2344603276  -0.641317962636 0.07268041  0.00105429  0.1434802 0.7000
                               ***Turning on DIIS***
  2  -2122.6347386483  -0.400278320703 0.13243439  0.00238005  0.0803088 0.0000
  3  -2118.0316622543   4.603076394022 0.09989013  0.00073933  0.0434410 0.0000
  4  -2123.3336379336  -5.301975679275 0.02870442  0.00023991  0.0092830 0.0000
  5  -2123.4627039886  -0.129066055069 0.01324361  0.00013697  0.0048341 0.0000
  6  -2123.4467132738   0.015990714865 0.00803576  0.00008737  0.0022474 0.0000
  7  -2123.5387229123  -0.092009638582 0.00483852  0.00006822  0.0016255 0.0000
  8  -2123.5450556668  -0.006332754445 0.00375294  0.00006496  0.0015241 0.0000
  9  -2123.5186525216   0.026403145184 0.00266644  0.00004625  0.0012272 0.0000
 10  -2123.5261198734  -0.007467351819 0.00536931  0.00009663  0.0009624 0.0000
                      *** Initiating the SOSCF procedure ***
                           *** Shutting down DIIS ***
                      *** Re-Reading the Fockian *** 
                      *** Removing any level shift *** 
ITER      Energy       Delta-E        Grad      Rot      Max-DP    RMS-DP
 11  -2123.42088291   0.1052369593  0.000184  0.000184  0.000247  0.000005
               *** Restarting incremental Fock matrix formation ***
 12  -2123.48638388  -0.0655009654  0.000927  0.006205  0.001487  0.000035
 13  -2123.48649561  -0.0001117259  0.001135  0.030808  0.006779  0.000138
 14  -2123.48668026  -0.0001846509  0.000396  0.001948  0.000612  0.000013
 15  -2123.48669548  -0.0000152194  0.000178  0.002153  0.000500  0.000013
 16  -2123.48670218  -0.0000067009  0.000137  0.002143  0.000491  0.000009
 17  -2123.48670479  -0.0000026097  0.000124  0.001860  0.000294  0.000007
 18  -2123.48670597  -0.0000011859  0.000059  0.000971  0.000215  0.000004
 19  -2123.48670666  -0.0000006921  0.000044  0.001450  0.000236  0.000005
 20  -2123.48670710  -0.0000004308  0.000025  0.000860  0.000139  0.000003
 21  -2123.48670729  -0.0000001949  0.000027  0.001096  0.000172  0.000003
 22  -2123.48670749  -0.0000001950  0.000022  0.001006  0.000155  0.000003
 23  -2123.48670761  -0.0000001235  0.000015  0.000424  0.000070  0.000001
 24  -2123.48670766  -0.0000000488  0.000008  0.000304  0.000053  0.000001
 25  -2123.48670769  -0.0000000298  0.000008  0.000134  0.000040  0.000001
 26  -2123.48670770  -0.0000000101  0.000006  0.000084  0.000030  0.000000
 27  -2123.48670769   0.0000000025  0.000003  0.000061  0.000021  0.000000
                  ***Gradient check signals convergence***
              ***Rediagonalizing the Fockian in SOSCF/NRSCF***

               *****************************************************
               *                     SUCCESS                       *
               *           SCF CONVERGED AFTER  28 CYCLES          *
               *****************************************************


----------------
TOTAL SCF ENERGY
----------------

Total Energy       :        -2123.48670769 Eh          -57783.01095 eV

Components:
Nuclear Repulsion  :         6235.12279203 Eh          169666.31684 eV
Electronic Energy  :        -8358.60949972 Eh         -227449.32779 eV
One Electron Energy:       -15310.71669773 Eh         -416625.78219 eV
Two Electron Energy:         6952.10719800 Eh          189176.45440 eV

Virial components:
Potential Energy   :        -4246.04407924 Eh         -115540.73337 eV
Kinetic Energy     :         2122.55737155 Eh           57757.72243 eV
Virial Ratio       :            2.00043784


---------------
SCF CONVERGENCE
---------------

  Last Energy change         ...    9.1859e-10  Tolerance :   1.0000e-08
  Last MAX-Density change    ...    9.4405e-06  Tolerance :   1.0000e-07
  Last RMS-Density change    ...    1.8586e-07  Tolerance :   5.0000e-09
  Last Orbital Gradient      ...    1.8178e-06  Tolerance :   1.0000e-05
  Last Orbital Rotation      ...    4.2085e-05  Tolerance :   1.0000e-05

             **** THE GBW FILE WAS UPDATED (/scratch/allen/tmpyp4_amber_gaff2/conf1/conf1/Conf193.orca.gbw) ****
             **** DENSITY /scratch/allen/tmpyp4_amber_gaff2/conf1/conf1/Conf193.orca.scfp WAS UPDATED ****
             **** ENERGY FILE WAS UPDATED (/scratch/allen/tmpyp4_amber_gaff2/conf1/conf1/Conf193.orca.en.tmp) ****
             **** THE GBW FILE WAS UPDATED (/scratch/allen/tmpyp4_amber_gaff2/conf1/conf1/Conf193.orca.gbw) ****
             **** DENSITY /scratch/allen/tmpyp4_amber_gaff2/conf1/conf1/Conf193.orca.scfp WAS UPDATED ****
----------------
ORBITAL ENERGIES
----------------

  NO   OCC          E(Eh)            E(eV) 
   0   2.0000     -15.679724      -426.6670 
   1   2.0000     -15.633576      -425.4112 
   2   2.0000     -15.632232      -425.3746 
   3   2.0000     -15.588311      -424.1795 
   4   2.0000     -15.525017      -422.4572 
   5   2.0000     -15.515609      -422.2012 
   6   2.0000     -15.453855      -420.5208 
   7   2.0000     -15.439527      -420.1309 
   8   2.0000     -11.329321      -308.2865 
   9   2.0000     -11.328341      -308.2598 
  10   2.0000     -11.327884      -308.2474 
  11   2.0000     -11.299076      -307.4635 
  12   2.0000     -11.298617      -307.4510 
  13   2.0000     -11.292688      -307.2897 
  14   2.0000     -11.291537      -307.2583 
  15   2.0000     -11.286901      -307.1322 
  16   2.0000     -11.286167      -307.1122 
  17   2.0000     -11.281971      -306.9980 
  18   2.0000     -11.269880      -306.6690 
  19   2.0000     -11.263300      -306.4900 
  20   2.0000     -11.262304      -306.4629 
  21   2.0000     -11.251012      -306.1556 
  22   2.0000     -11.249417      -306.1122 
  23   2.0000     -11.237350      -305.7838 
  24   2.0000     -11.236991      -305.7741 
  25   2.0000     -11.230833      -305.6065 
  26   2.0000     -11.230077      -305.5859 
  27   2.0000     -11.230031      -305.5847 
  28   2.0000     -11.229872      -305.5804 
  29   2.0000     -11.210916      -305.0645 
  30   2.0000     -11.209515      -305.0264 
  31   2.0000     -11.194311      -304.6127 
  32   2.0000     -11.191737      -304.5427 
  33   2.0000     -11.191390      -304.5332 
  34   2.0000     -11.188508      -304.4548 
  35   2.0000     -11.188281      -304.4486 
  36   2.0000     -11.187099      -304.4164 
  37   2.0000     -11.175364      -304.0971 
  38   2.0000     -11.174573      -304.0756 
  39   2.0000     -11.171976      -304.0049 
  40   2.0000     -11.170915      -303.9761 
  41   2.0000     -11.170882      -303.9751 
  42   2.0000     -11.168218      -303.9027 
  43   2.0000     -11.161961      -303.7324 
  44   2.0000     -11.160632      -303.6962 
  45   2.0000     -11.156783      -303.5915 
  46   2.0000     -11.156512      -303.5841 
  47   2.0000     -11.152028      -303.4621 
  48   2.0000     -11.146982      -303.3248 
  49   2.0000     -11.135274      -303.0062 
  50   2.0000     -11.129512      -302.8494 
  51   2.0000     -11.117392      -302.5196 
  52   2.0000      -1.360318       -37.0161 
  53   2.0000      -1.320874       -35.9428 
  54   2.0000      -1.319962       -35.9180 
  55   2.0000      -1.280666       -34.8487 
  56   2.0000      -1.226084       -33.3634 
  57   2.0000      -1.210417       -32.9371 
  58   2.0000      -1.173526       -31.9333 
  59   2.0000      -1.150632       -31.3103 
  60   2.0000      -1.143595       -31.1188 
  61   2.0000      -1.110230       -30.2109 
  62   2.0000      -1.108979       -30.1768 
  63   2.0000      -1.082009       -29.4430 
  64   2.0000      -1.077527       -29.3210 
  65   2.0000      -1.045067       -28.4377 
  66   2.0000      -1.044598       -28.4250 
  67   2.0000      -1.041082       -28.3293 
  68   2.0000      -1.014917       -27.6173 
  69   2.0000      -1.013970       -27.5915 
  70   2.0000      -1.009124       -27.4597 
  71   2.0000      -0.993474       -27.0338 
  72   2.0000      -0.985689       -26.8220 
  73   2.0000      -0.981726       -26.7141 
  74   2.0000      -0.973473       -26.4896 
  75   2.0000      -0.962209       -26.1830 
  76   2.0000      -0.954741       -25.9798 
  77   2.0000      -0.946190       -25.7471 
  78   2.0000      -0.938235       -25.5307 
  79   2.0000      -0.917013       -24.9532 
  80   2.0000      -0.910496       -24.7759 
  81   2.0000      -0.897408       -24.4197 
  82   2.0000      -0.876841       -23.8601 
  83   2.0000      -0.872025       -23.7290 
  84   2.0000      -0.870862       -23.6974 
  85   2.0000      -0.860470       -23.4146 
  86   2.0000      -0.844123       -22.9698 
  87   2.0000      -0.836801       -22.7705 
  88   2.0000      -0.828273       -22.5385 
  89   2.0000      -0.796558       -21.6754 
  90   2.0000      -0.789187       -21.4749 
  91   2.0000      -0.767997       -20.8983 
  92   2.0000      -0.752924       -20.4881 
  93   2.0000      -0.733749       -19.9663 
  94   2.0000      -0.727368       -19.7927 
  95   2.0000      -0.724890       -19.7253 
  96   2.0000      -0.719676       -19.5834 
  97   2.0000      -0.717366       -19.5205 
  98   2.0000      -0.713404       -19.4127 
  99   2.0000      -0.698500       -19.0072 
 100   2.0000      -0.698208       -18.9992 
 101   2.0000      -0.693844       -18.8804 
 102   2.0000      -0.685320       -18.6485 
 103   2.0000      -0.684270       -18.6199 
 104   2.0000      -0.678812       -18.4714 
 105   2.0000      -0.674486       -18.3537 
 106   2.0000      -0.672668       -18.3042 
 107   2.0000      -0.660774       -17.9806 
 108   2.0000      -0.658162       -17.9095 
 109   2.0000      -0.652750       -17.7622 
 110   2.0000      -0.652157       -17.7461 
 111   2.0000      -0.646125       -17.5820 
 112   2.0000      -0.645563       -17.5667 
 113   2.0000      -0.637814       -17.3558 
 114   2.0000      -0.636118       -17.3096 
 115   2.0000      -0.628451       -17.1010 
 116   2.0000      -0.622993       -16.9525 
 117   2.0000      -0.621084       -16.9005 
 118   2.0000      -0.613037       -16.6816 
 119   2.0000      -0.612043       -16.6545 
 120   2.0000      -0.611837       -16.6489 
 121   2.0000      -0.611317       -16.6348 
 122   2.0000      -0.601406       -16.3651 
 123   2.0000      -0.588614       -16.0170 
 124   2.0000      -0.581425       -15.8214 
 125   2.0000      -0.580950       -15.8085 
 126   2.0000      -0.580242       -15.7892 
 127   2.0000      -0.571146       -15.5417 
 128   2.0000      -0.567379       -15.4392 
 129   2.0000      -0.559896       -15.2356 
 130   2.0000      -0.554927       -15.1003 
 131   2.0000      -0.547893       -14.9089 
 132   2.0000      -0.542714       -14.7680 
 133   2.0000      -0.540765       -14.7150 
 134   2.0000      -0.538627       -14.6568 
 135   2.0000      -0.536227       -14.5915 
 136   2.0000      -0.531642       -14.4667 
 137   2.0000      -0.518890       -14.1197 
 138   2.0000      -0.516731       -14.0610 
 139   2.0000      -0.514755       -14.0072 
 140   2.0000      -0.512056       -13.9337 
 141   2.0000      -0.510182       -13.8828 
 142   2.0000      -0.508179       -13.8282 
 143   2.0000      -0.504964       -13.7408 
 144   2.0000      -0.502577       -13.6758 
 145   2.0000      -0.495947       -13.4954 
 146   2.0000      -0.488646       -13.2967 
 147   2.0000      -0.481576       -13.1043 
 148   2.0000      -0.477225       -12.9860 
 149   2.0000      -0.467674       -12.7261 
 150   2.0000      -0.466349       -12.6900 
 151   2.0000      -0.456596       -12.4246 
 152   2.0000      -0.451574       -12.2879 
 153   2.0000      -0.444899       -12.1063 
 154   2.0000      -0.438450       -11.9308 
 155   2.0000      -0.427598       -11.6355 
 156   2.0000      -0.409530       -11.1439 
 157   2.0000      -0.396123       -10.7791 
 158   2.0000      -0.390417       -10.6238 
 159   2.0000      -0.387592       -10.5469 
 160   2.0000      -0.378502       -10.2996 
 161   2.0000      -0.374990       -10.2040 
 162   2.0000      -0.366892        -9.9836 
 163   2.0000      -0.356498        -9.7008 
 164   2.0000      -0.356018        -9.6877 
 165   2.0000      -0.341909        -9.3038 
 166   2.0000      -0.337655        -9.1881 
 167   2.0000      -0.324580        -8.8323 
 168   2.0000      -0.321514        -8.7489 
 169   2.0000      -0.305267        -8.3068 
 170   2.0000      -0.299400        -8.1471 
 171   2.0000      -0.285694        -7.7741 
 172   2.0000      -0.278702        -7.5839 
 173   2.0000      -0.263651        -7.1743 
 174   2.0000      -0.241775        -6.5790 
 175   2.0000      -0.190002        -5.1702 
 176   2.0000      -0.181144        -4.9292 
 177   2.0000      -0.079641        -2.1671 
 178   2.0000      -0.059659        -1.6234 
 179   0.0000       0.028357         0.7716 
 180   0.0000       0.065346         1.7782 
 181   0.0000       0.090230         2.4553 
 182   0.0000       0.106301         2.8926 
 183   0.0000       0.115657         3.1472 
 184   0.0000       0.137093         3.7305 
 185   0.0000       0.139334         3.7915 
 186   0.0000       0.140986         3.8364 
 187   0.0000       0.164108         4.4656 
 188   0.0000       0.165287         4.4977 
 189   0.0000       0.165477         4.5029 
 190   0.0000       0.173573         4.7232 
 191   0.0000       0.180407         4.9091 
 192   0.0000       0.183821         5.0020 
 193   0.0000       0.189130         5.1465 
 194   0.0000       0.204975         5.5777 
 195   0.0000       0.205443         5.5904 
 196   0.0000       0.208406         5.6710 
 197   0.0000       0.208484         5.6731 
 198   0.0000       0.216582         5.8935 
 199   0.0000       0.228685         6.2228 
 200   0.0000       0.233143         6.3441 
 201   0.0000       0.233884         6.3643 
 202   0.0000       0.239003         6.5036 
 203   0.0000       0.239696         6.5225 
 204   0.0000       0.246230         6.7002 
 205   0.0000       0.255067         6.9407 
 206   0.0000       0.256322         6.9749 
 207   0.0000       0.257452         7.0056 
 208   0.0000       0.259256         7.0547 
 209   0.0000       0.260848         7.0980 
 210   0.0000       0.264208         7.1895 
 211   0.0000       0.267101         7.2682 
 212   0.0000       0.268400         7.3035 
 213   0.0000       0.269735         7.3399 
 214   0.0000       0.273265         7.4359 
 215   0.0000       0.276383         7.5208 
 216   0.0000       0.279070         7.5939 
 217   0.0000       0.281876         7.6702 
 218   0.0000       0.285487         7.7685 
 219   0.0000       0.287600         7.8260 
 220   0.0000       0.288710         7.8562 
 221   0.0000       0.292358         7.9555 
 222   0.0000       0.294429         8.0118 
 223   0.0000       0.296855         8.0778 
 224   0.0000       0.297197         8.0871 
 225   0.0000       0.301537         8.2052 
 226   0.0000       0.305064         8.3012 
 227   0.0000       0.308158         8.3854 
 228   0.0000       0.315028         8.5724 
 229   0.0000       0.324652         8.8342 
 230   0.0000       0.327568         8.9136 
 231   0.0000       0.334530         9.1030 
 232   0.0000       0.344295         9.3688 
 233   0.0000       0.356603         9.7037 
 234   0.0000       0.366867         9.9830 
 235   0.0000       0.368954        10.0397 
 236   0.0000       0.377364        10.2686 
 237   0.0000       0.390300        10.6206 
 238   0.0000       0.396180        10.7806 
 239   0.0000       0.400232        10.8909 
 240   0.0000       0.407203        11.0805 
 241   0.0000       0.411240        11.1904 
 242   0.0000       0.415152        11.2969 
 243   0.0000       0.418134        11.3780 
 244   0.0000       0.429498        11.6872 
 245   0.0000       0.434692        11.8286 
 246   0.0000       0.439008        11.9460 
 247   0.0000       0.441105        12.0031 
 248   0.0000       0.441925        12.0254 
 249   0.0000       0.449433        12.2297 
 250   0.0000       0.454206        12.3596 
 251   0.0000       0.462967        12.5980 
 252   0.0000       0.466772        12.7015 
 253   0.0000       0.468306        12.7432 
 254   0.0000       0.471690        12.8353 
 255   0.0000       0.474818        12.9204 
 256   0.0000       0.475382        12.9358 
 257   0.0000       0.480847        13.0845 
 258   0.0000       0.489602        13.3227 
 259   0.0000       0.495053        13.4711 
 260   0.0000       0.503682        13.7059 
 261   0.0000       0.505416        13.7531 
 262   0.0000       0.506059        13.7706 
 263   0.0000       0.513353        13.9691 
 264   0.0000       0.516390        14.0517 
 265   0.0000       0.520443        14.1620 
 266   0.0000       0.522354        14.2140 
 267   0.0000       0.528839        14.3904 
 268   0.0000       0.534426        14.5425 
 269   0.0000       0.538903        14.6643 
 270   0.0000       0.544686        14.8217 
 271   0.0000       0.550653        14.9840 
 272   0.0000       0.558139        15.1877 
 273   0.0000       0.560621        15.2553 
 274   0.0000       0.561859        15.2890 
 275   0.0000       0.566771        15.4226 
 276   0.0000       0.572713        15.5843 
 277   0.0000       0.574071        15.6213 
 278   0.0000       0.580177        15.7874 
 279   0.0000       0.586178        15.9507 
 280   0.0000       0.590811        16.0768 
 281   0.0000       0.593321        16.1451 
 282   0.0000       0.594583        16.1794 
 283   0.0000       0.595396        16.2016 
 284   0.0000       0.597969        16.2716 
 285   0.0000       0.602650        16.3989 
 286   0.0000       0.605588        16.4789 
 287   0.0000       0.610399        16.6098 
 288   0.0000       0.615972        16.7614 
 289   0.0000       0.624045        16.9811 
 290   0.0000       0.625122        17.0104 
 291   0.0000       0.629522        17.1302 
 292   0.0000       0.631747        17.1907 
 293   0.0000       0.636089        17.3089 
 294   0.0000       0.647036        17.6067 
 295   0.0000       0.647541        17.6205 
 296   0.0000       0.653501        17.7827 
 297   0.0000       0.655519        17.8376 
 298   0.0000       0.661393        17.9974 
 299   0.0000       0.665519        18.1097 
 300   0.0000       0.670832        18.2543 
 301   0.0000       0.675593        18.3838 
 302   0.0000       0.676803        18.4167 
 303   0.0000       0.679836        18.4993 
 304   0.0000       0.681304        18.5392 
 305   0.0000       0.684400        18.6235 
 306   0.0000       0.689391        18.7593 
 307   0.0000       0.693669        18.8757 
 308   0.0000       0.695391        18.9226 
 309   0.0000       0.700413        19.0592 
 310   0.0000       0.702796        19.1241 
 311   0.0000       0.704503        19.1705 
 312   0.0000       0.706349        19.2207 
 313   0.0000       0.711219        19.3533 
 314   0.0000       0.711776        19.3684 
 315   0.0000       0.716073        19.4853 
 316   0.0000       0.716986        19.5102 
 317   0.0000       0.718203        19.5433 
 318   0.0000       0.724363        19.7109 
 319   0.0000       0.726988        19.7824 
 320   0.0000       0.728222        19.8159 
 321   0.0000       0.728760        19.8306 
 322   0.0000       0.731007        19.8917 
 323   0.0000       0.732799        19.9405 
 324   0.0000       0.736182        20.0325 
 325   0.0000       0.742507        20.2047 
 326   0.0000       0.744596        20.2615 
 327   0.0000       0.747007        20.3271 
 328   0.0000       0.752784        20.4843 
 329   0.0000       0.754292        20.5253 
 330   0.0000       0.758118        20.6294 
 331   0.0000       0.761211        20.7136 
 332   0.0000       0.765707        20.8359 
 333   0.0000       0.768036        20.8993 
 334   0.0000       0.770269        20.9601 
 335   0.0000       0.776733        21.1360 
 336   0.0000       0.780618        21.2417 
 337   0.0000       0.782373        21.2894 
 338   0.0000       0.785851        21.3841 
 339   0.0000       0.789895        21.4941 
 340   0.0000       0.792075        21.5534 
 341   0.0000       0.796187        21.6653 
 342   0.0000       0.799461        21.7544 
 343   0.0000       0.804416        21.8893 
 344   0.0000       0.807279        21.9672 
 345   0.0000       0.808392        21.9975 
 346   0.0000       0.810089        22.0437 
 347   0.0000       0.811993        22.0955 
 348   0.0000       0.815965        22.2035 
 349   0.0000       0.818226        22.2651 
 350   0.0000       0.818444        22.2710 
 351   0.0000       0.823335        22.4041 
 352   0.0000       0.824062        22.4239 
 353   0.0000       0.827547        22.5187 
 354   0.0000       0.830656        22.6033 
 355   0.0000       0.832840        22.6627 
 356   0.0000       0.835842        22.7444 
 357   0.0000       0.836599        22.7650 
 358   0.0000       0.838816        22.8254 
 359   0.0000       0.840134        22.8612 
 360   0.0000       0.841517        22.8989 
 361   0.0000       0.842046        22.9132 
 362   0.0000       0.845195        22.9989 
 363   0.0000       0.849392        23.1131 
 364   0.0000       0.853390        23.2219 
 365   0.0000       0.856652        23.3107 
 366   0.0000       0.859720        23.3942 
 367   0.0000       0.863364        23.4933 
 368   0.0000       0.866764        23.5858 
 369   0.0000       0.868057        23.6210 
 370   0.0000       0.871863        23.7246 
 371   0.0000       0.874357        23.7925 
 372   0.0000       0.875720        23.8296 
 373   0.0000       0.877500        23.8780 
 374   0.0000       0.880515        23.9600 
 375   0.0000       0.883715        24.0471 
 376   0.0000       0.889249        24.1977 
 377   0.0000       0.890976        24.2447 
 378   0.0000       0.891908        24.2701 
 379   0.0000       0.892331        24.2816 
 380   0.0000       0.897300        24.4168 
 381   0.0000       0.898117        24.4390 
 382   0.0000       0.900750        24.5106 
 383   0.0000       0.902170        24.5493 
 384   0.0000       0.906096        24.6561 
 385   0.0000       0.907410        24.6919 
 386   0.0000       0.907976        24.7073 
 387   0.0000       0.910966        24.7886 
 388   0.0000       0.916256        24.9326 
 389   0.0000       0.919279        25.0149 
 390   0.0000       0.921150        25.0658 
 391   0.0000       0.925914        25.1954 
 392   0.0000       0.927910        25.2497 
 393   0.0000       0.928953        25.2781 
 394   0.0000       0.929802        25.3012 
 395   0.0000       0.934165        25.4199 
 396   0.0000       0.935001        25.4427 
 397   0.0000       0.938657        25.5421 
 398   0.0000       0.943804        25.6822 
 399   0.0000       0.947361        25.7790 
 400   0.0000       0.948507        25.8102 
 401   0.0000       0.953368        25.9425 
 402   0.0000       0.955543        26.0017 
 403   0.0000       0.957381        26.0517 
 404   0.0000       0.960924        26.1481 
 405   0.0000       0.962653        26.1951 
 406   0.0000       0.970916        26.4200 
 407   0.0000       0.978827        26.6352 
 408   0.0000       0.982475        26.7345 
 409   0.0000       0.986938        26.8559 
 410   0.0000       0.987756        26.8782 
 411   0.0000       0.994459        27.0606 
 412   0.0000       0.998964        27.1832 
 413   0.0000       1.003580        27.3088 
 414   0.0000       1.009718        27.4758 
 415   0.0000       1.011028        27.5115 
 416   0.0000       1.017533        27.6885 
 417   0.0000       1.020801        27.7774 
 418   0.0000       1.027818        27.9684 
 419   0.0000       1.033033        28.1103 
 420   0.0000       1.034981        28.1633 
 421   0.0000       1.037807        28.2402 
 422   0.0000       1.043720        28.4011 
 423   0.0000       1.053196        28.6589 
 424   0.0000       1.062853        28.9217 
 425   0.0000       1.068767        29.0826 
 426   0.0000       1.071741        29.1636 
 427   0.0000       1.076222        29.2855 
 428   0.0000       1.078642        29.3513 
 429   0.0000       1.086971        29.5780 
 430   0.0000       1.089417        29.6446 
 431   0.0000       1.092836        29.7376 
 432   0.0000       1.099456        29.9177 
 433   0.0000       1.104302        30.0496 
 434   0.0000       1.105058        30.0702 
 435   0.0000       1.111545        30.2467 
 436   0.0000       1.114767        30.3343 
 437   0.0000       1.115844        30.3637 
 438   0.0000       1.121112        30.5070 
 439   0.0000       1.122237        30.5376 
 440   0.0000       1.126804        30.6619 
 441   0.0000       1.128466        30.7071 
 442   0.0000       1.133060        30.8321 
 443   0.0000       1.135935        30.9104 
 444   0.0000       1.138327        30.9755 
 445   0.0000       1.141044        31.0494 
 446   0.0000       1.145214        31.1628 
 447   0.0000       1.149756        31.2865 
 448   0.0000       1.154263        31.4091 
 449   0.0000       1.158308        31.5192 
 450   0.0000       1.158470        31.5236 
 451   0.0000       1.163280        31.6544 
 452   0.0000       1.166617        31.7453 
 453   0.0000       1.169208        31.8158 
 454   0.0000       1.169628        31.8272 
 455   0.0000       1.173057        31.9205 
 456   0.0000       1.183509        32.2049 
 457   0.0000       1.185022        32.2461 
 458   0.0000       1.193966        32.4895 
 459   0.0000       1.197350        32.5815 
 460   0.0000       1.203036        32.7363 
 461   0.0000       1.204280        32.7701 
 462   0.0000       1.207324        32.8529 
 463   0.0000       1.209633        32.9158 
 464   0.0000       1.211017        32.9534 
 465   0.0000       1.216614        33.1058 
 466   0.0000       1.219429        33.1823 
 467   0.0000       1.225182        33.3389 
 468   0.0000       1.228283        33.4233 
 469   0.0000       1.231186        33.5023 
 470   0.0000       1.233843        33.5746 
 471   0.0000       1.236435        33.6451 
 472   0.0000       1.240713        33.7615 
 473   0.0000       1.243033        33.8247 
 474   0.0000       1.245093        33.8807 
 475   0.0000       1.248337        33.9690 
 476   0.0000       1.250868        34.0378 
 477   0.0000       1.251590        34.0575 
 478   0.0000       1.256556        34.1926 
 479   0.0000       1.260788        34.3078 
 480   0.0000       1.262709        34.3601 
 481   0.0000       1.264143        34.3991 
 482   0.0000       1.270459        34.5710 
 483   0.0000       1.271699        34.6047 
 484   0.0000       1.278842        34.7991 
 485   0.0000       1.281480        34.8708 
 486   0.0000       1.284531        34.9539 
 487   0.0000       1.289298        35.0836 
 488   0.0000       1.292245        35.1638 
 489   0.0000       1.293345        35.1937 
 490   0.0000       1.300617        35.3916 
 491   0.0000       1.301983        35.4287 
 492   0.0000       1.306870        35.5617 
 493   0.0000       1.311534        35.6887 
 494   0.0000       1.313149        35.7326 
 495   0.0000       1.319563        35.9071 
 496   0.0000       1.321809        35.9682 
 497   0.0000       1.324465        36.0405 
 498   0.0000       1.328774        36.1578 
 499   0.0000       1.331894        36.2427 
 500   0.0000       1.336825        36.3769 
 501   0.0000       1.340771        36.4842 
 502   0.0000       1.341926        36.5157 
 503   0.0000       1.344192        36.5773 
 504   0.0000       1.348016        36.6814 
 505   0.0000       1.350915        36.7603 
 506   0.0000       1.351723        36.7822 
 507   0.0000       1.359228        36.9865 
 508   0.0000       1.360089        37.0099 
 509   0.0000       1.363602        37.1055 
[...]
      px      :     0.043613
      py      :     0.014047
 77 H s       :     0.884474  s :     0.884474
      pz      :     0.047980  p :     0.079296
      px      :     0.015024
      py      :     0.016292
 78 H s       :     0.884811  s :     0.884811
      pz      :     0.025885  p :     0.079267
      px      :     0.020454
      py      :     0.032928
 79 H s       :     0.910812  s :     0.910812
      pz      :     0.021794  p :     0.086296
      px      :     0.021657
      py      :     0.042844
 80 H s       :     0.864335  s :     0.864335
      pz      :     0.039395  p :     0.084835
      px      :     0.030288
      py      :     0.015152
 81 H s       :     0.886721  s :     0.886721
      pz      :     0.037831  p :     0.084128
      px      :     0.016176
      py      :     0.030122
 82 H s       :     0.916024  s :     0.916024
      pz      :     0.021952  p :     0.086728
      px      :     0.031657
      py      :     0.033119
 83 H s       :     0.873293  s :     0.873293
      pz      :     0.039286  p :     0.084110
      px      :     0.015273
      py      :     0.029551
 84 H s       :     0.886567  s :     0.886567
      pz      :     0.035776  p :     0.083427
      px      :     0.031700
      py      :     0.015951
 85 H s       :     0.892714  s :     0.892714
      pz      :     0.022493  p :     0.079791
      px      :     0.014065
      py      :     0.043233
 86 H s       :     0.890919  s :     0.890919
      pz      :     0.024733  p :     0.078834
      px      :     0.032985
      py      :     0.021116
 87 H s       :     0.889785  s :     0.889785
      pz      :     0.048021  p :     0.078747
      px      :     0.015586
      py      :     0.015139
 88 H s       :     0.910555  s :     0.910555
      pz      :     0.021614  p :     0.087014
      px      :     0.042944
      py      :     0.022456
 89 H s       :     0.871096  s :     0.871096
      pz      :     0.037960  p :     0.083859
      px      :     0.030504
      py      :     0.015394


                      *****************************
                      * MAYER POPULATION ANALYSIS *
                      *****************************

  NA   - Mulliken gross atomic population
  ZA   - Total nuclear charge
  QA   - Mulliken gross atomic charge
  VA   - Mayer's total valence
  BVA  - Mayer's bonded valence
  FA   - Mayer's free valence

  ATOM       NA         ZA         QA         VA         BVA        FA
  0 C      5.7844     6.0000     0.2156     3.8482     3.8482    -0.0000
  1 N      7.4557     7.0000    -0.4557     3.3451     3.3451    -0.0000
  2 C      6.0733     6.0000    -0.0733     3.9228     3.9228     0.0000
  3 N      7.3414     7.0000    -0.3414     3.4546     3.4546    -0.0000
  4 C      6.0742     6.0000    -0.0742     4.1224     4.1224    -0.0000
  5 N      7.5682     7.0000    -0.5682     3.0952     3.0952     0.0000
  6 C      6.1145     6.0000    -0.1145     3.9447     3.9447    -0.0000
  7 N      7.3409     7.0000    -0.3409     3.4324     3.4324    -0.0000
  8 C      5.7820     6.0000     0.2180     3.8508     3.8508     0.0000
  9 N      7.5623     7.0000    -0.5623     3.0769     3.0769    -0.0000
 10 C      5.8805     6.0000     0.1195     3.9091     3.9091    -0.0000
 11 N      7.4385     7.0000    -0.4385     3.3777     3.3777    -0.0000
 12 C      6.0528     6.0000    -0.0528     3.8414     3.8414    -0.0000
 13 N      7.4294     7.0000    -0.4294     3.4284     3.4284     0.0000
 14 C      5.7809     6.0000     0.2191     3.7993     3.7993    -0.0000
 15 N      7.4408     7.0000    -0.4408     3.3730     3.3730    -0.0000
 16 C      5.7681     6.0000     0.2319     3.7759     3.7759    -0.0000
 17 C      6.1056     6.0000    -0.1056     3.9355     3.9355     0.0000
 18 C      6.1808     6.0000    -0.1808     3.7550     3.7550     0.0000
 19 C      5.7851     6.0000     0.2149     3.8754     3.8754    -0.0000
 20 C      5.7864     6.0000     0.2136     3.8292     3.8292    -0.0000
 21 C      6.0587     6.0000    -0.0587     3.8157     3.8157    -0.0000
 22 C      6.0910     6.0000    -0.0910     3.9828     3.9828    -0.0000
 23 C      6.0395     6.0000    -0.0395     3.9926     3.9926    -0.0000
 24 C      5.8066     6.0000     0.1934     3.8211     3.8211    -0.0000
 25 C      5.8853     6.0000     0.1147     3.8917     3.8917     0.0000
 26 C      6.0885     6.0000    -0.0885     3.9091     3.9091    -0.0000
 27 C      5.7831     6.0000     0.2169     3.8622     3.8622    -0.0000
 28 C      6.0618     6.0000    -0.0618     3.9886     3.9886    -0.0000
 29 C      6.1818     6.0000    -0.1818     3.7463     3.7463    -0.0000
 30 C      5.7542     6.0000     0.2458     3.8012     3.8012    -0.0000
 31 C      5.7698     6.0000     0.2302     3.8170     3.8170    -0.0000
 32 C      6.0616     6.0000    -0.0616     3.9231     3.9231    -0.0000
 33 C      6.0601     6.0000    -0.0601     3.9712     3.9712     0.0000
 34 C      6.0513     6.0000    -0.0513     3.9834     3.9834    -0.0000
 35 C      5.7713     6.0000     0.2287     3.8165     3.8165    -0.0000
 36 C      5.8918     6.0000     0.1082     3.8747     3.8747     0.0000
 37 C      6.0644     6.0000    -0.0644     3.9178     3.9178    -0.0000
 38 C      5.7690     6.0000     0.2310     3.8009     3.8009    -0.0000
 39 C      6.0575     6.0000    -0.0575     3.9831     3.9831     0.0000
 40 C      6.1816     6.0000    -0.1816     3.7265     3.7265    -0.0000
 41 C      5.7739     6.0000     0.2261     3.8876     3.8876    -0.0000
 42 C      5.8025     6.0000     0.1975     3.8256     3.8256    -0.0000
 43 C      6.0724     6.0000    -0.0724     3.8999     3.8999    -0.0000
 44 C      6.0892     6.0000    -0.0892     3.9850     3.9850     0.0000
 45 C      6.0616     6.0000    -0.0616     3.9920     3.9920    -0.0000
 46 C      5.7880     6.0000     0.2120     3.8284     3.8284    -0.0000
 47 C      5.8847     6.0000     0.1153     3.8927     3.8927    -0.0000
 48 C      6.0667     6.0000    -0.0667     3.9095     3.9095     0.0000
 49 C      5.7612     6.0000     0.2388     3.8943     3.8943    -0.0000
 50 C      6.0462     6.0000    -0.0462     3.9903     3.9903    -0.0000
 51 C      6.1931     6.0000    -0.1931     3.7367     3.7367    -0.0000
 52 H      0.9650     1.0000     0.0350     0.9856     0.9856     0.0000
 53 H      1.0180     1.0000    -0.0180     0.9989     0.9989    -0.0000
 54 H      0.9574     1.0000     0.0426     1.0130     1.0130    -0.0000
 55 H      0.9662     1.0000     0.0338     0.9863     0.9863     0.0000
 56 H      0.9505     1.0000     0.0495     0.9695     0.9695    -0.0000
 57 H      0.9533     1.0000     0.0467     0.9824     0.9824     0.0000
 58 H      0.9526     1.0000     0.0474     0.9848     0.9848    -0.0000
 59 H      1.0135     1.0000    -0.0135     0.9975     0.9975    -0.0000
 60 H      0.9527     1.0000     0.0473     1.0058     1.0058     0.0000
 61 H      0.8288     1.0000     0.1712     1.0422     1.0422    -0.0000
 62 H      0.8245     1.0000     0.1755     1.0436     1.0436    -0.0000
 63 H      0.9449     1.0000     0.0551     0.9853     0.9853    -0.0000
 64 H      1.0336     1.0000    -0.0336     0.9869     0.9869    -0.0000
 65 H      0.9529     1.0000     0.0471     1.0099     1.0099     0.0000
 66 H      0.9445     1.0000     0.0555     0.9855     0.9855    -0.0000
 67 H      0.9377     1.0000     0.0623     0.9719     0.9719    -0.0000
 68 H      0.9429     1.0000     0.0571     0.9868     0.9868    -0.0000
 69 H      0.9438     1.0000     0.0562     0.9828     0.9828    -0.0000
 70 H      1.0307     1.0000    -0.0307     0.9942     0.9942    -0.0000
 71 H      0.9554     1.0000     0.0446     1.0059     1.0059    -0.0000
 72 H      0.9286     1.0000     0.0714     0.9835     0.9835    -0.0000
 73 H      1.0079     1.0000    -0.0079     1.0010     1.0010     0.0000
 74 H      0.9395     1.0000     0.0605     1.0101     1.0101     0.0000
 75 H      0.9291     1.0000     0.0709     0.9838     0.9838     0.0000
 76 H      0.9249     1.0000     0.0751     0.9721     0.9721    -0.0000
 77 H      0.9319     1.0000     0.0681     0.9855     0.9855     0.0000
 78 H      0.9326     1.0000     0.0674     0.9854     0.9854    -0.0000
 79 H      1.0167     1.0000    -0.0167     0.9974     0.9974     0.0000
 80 H      0.9385     1.0000     0.0615     1.0072     1.0072     0.0000
 81 H      0.9455     1.0000     0.0545     0.9856     0.9856     0.0000
 82 H      1.0249     1.0000    -0.0249     0.9934     0.9934    -0.0000
 83 H      0.9579     1.0000     0.0421     1.0082     1.0082     0.0000
 84 H      0.9456     1.0000     0.0544     0.9852     0.9852    -0.0000
 85 H      0.9389     1.0000     0.0611     0.9716     0.9716     0.0000
 86 H      0.9443     1.0000     0.0557     0.9839     0.9839    -0.0000
 87 H      0.9427     1.0000     0.0573     0.9857     0.9857    -0.0000
 88 H      1.0144     1.0000    -0.0144     0.9968     0.9968    -0.0000
 89 H      0.9531     1.0000     0.0469     1.0076     1.0076     0.0000

  Mayer bond orders larger than 0.100000
B(  0-C ,  1-N ) :   1.0932 B(  0-C , 17-C ) :   1.7231 B(  0-C , 52-H ) :   0.9614 
B(  1-N ,  8-C ) :   1.0978 B(  1-N , 10-C ) :   0.9771 B(  2-C , 12-C ) :   1.4881 
B(  2-C , 16-C ) :   1.3727 B(  2-C , 53-H ) :   0.9721 B(  3-N , 14-C ) :   1.2221 
B(  3-N , 16-C ) :   1.1799 B(  3-N , 61-H ) :   0.8985 B(  4-C ,  6-C ) :   1.2202 
B(  4-C , 17-C ) :   1.2180 B(  4-C , 18-C ) :   1.4745 B(  5-N , 19-C ) :   1.4605 
B(  5-N , 27-C ) :   1.3702 B(  6-C ,  8-C ) :   1.7155 B(  6-C , 54-H ) :   0.8936 
B(  7-N , 30-C ) :   1.1955 B(  7-N , 38-C ) :   1.1894 B(  7-N , 62-H ) :   0.8968 
B(  8-C , 55-H ) :   0.9629 B(  9-N , 41-C ) :   1.3946 B(  9-N , 49-C ) :   1.4248 
B( 10-C , 56-H ) :   0.9776 B( 10-C , 57-H ) :   0.9824 B( 10-C , 58-H ) :   0.9840 
B( 11-N , 20-C ) :   1.1310 B( 11-N , 24-C ) :   1.1064 B( 11-N , 25-C ) :   0.9604 
B( 12-C , 14-C ) :   1.3581 B( 12-C , 59-H ) :   0.9301 B( 13-N , 31-C ) :   1.1615 
B( 13-N , 35-C ) :   1.1607 B( 13-N , 36-C ) :   0.9412 B( 14-C , 18-C ) :   1.1188 
B( 15-N , 42-C ) :   1.1081 B( 15-N , 46-C ) :   1.1250 B( 15-N , 47-C ) :   0.9610 
B( 16-C , 51-C ) :   1.1677 B( 17-C , 60-H ) :   0.8746 B( 18-C , 19-C ) :   1.1174 
B( 19-C , 21-C ) :   1.2535 B( 20-C , 28-C ) :   1.6291 B( 20-C , 63-H ) :   0.9703 
B( 21-C , 26-C ) :   1.5797 B( 21-C , 64-H ) :   0.9091 B( 22-C , 23-C ) :   1.2891 
B( 22-C , 28-C ) :   1.2633 B( 22-C , 29-C ) :   1.2261 B( 23-C , 24-C ) :   1.6206 
B( 23-C , 65-H ) :   0.9703 B( 24-C , 66-H ) :   0.9695 B( 25-C , 67-H ) :   0.9761 
B( 25-C , 68-H ) :   0.9828 B( 25-C , 69-H ) :   0.9823 B( 26-C , 27-C ) :   1.2627 
B( 26-C , 70-H ) :   0.9672 B( 27-C , 29-C ) :   1.2060 B( 28-C , 71-H ) :   0.9720 
B( 29-C , 30-C ) :   1.2470 B( 30-C , 32-C ) :   1.2788 B( 31-C , 39-C ) :   1.5875 
B( 31-C , 72-H ) :   0.9681 B( 32-C , 37-C ) :   1.5799 B( 32-C , 73-H ) :   0.9786 
B( 33-C , 34-C ) :   1.3070 B( 33-C , 39-C ) :   1.3044 B( 33-C , 40-C ) :   1.1759 
B( 34-C , 35-C ) :   1.5852 B( 34-C , 74-H ) :   0.9696 B( 35-C , 75-H ) :   0.9681 
B( 36-C , 76-H ) :   0.9768 B( 36-C , 77-H ) :   0.9816 B( 36-C , 78-H ) :   0.9823 
B( 37-C , 38-C ) :   1.2850 B( 37-C , 79-H ) :   0.9764 B( 38-C , 40-C ) :   1.2340 
B( 39-C , 80-H ) :   0.9705 B( 40-C , 41-C ) :   1.2507 B( 41-C , 43-C ) :   1.1840 
B( 42-C , 50-C ) :   1.6325 B( 42-C , 81-H ) :   0.9696 B( 43-C , 48-C ) :   1.6689 
B( 43-C , 82-H ) :   0.9721 B( 44-C , 45-C ) :   1.2639 B( 44-C , 50-C ) :   1.2730 
B( 44-C , 51-C ) :   1.2600 B( 45-C , 46-C ) :   1.6341 B( 45-C , 83-H ) :   0.9718 
B( 46-C , 84-H ) :   0.9700 B( 47-C , 85-H ) :   0.9762 B( 47-C , 86-H ) :   0.9829 
B( 47-C , 87-H ) :   0.9824 B( 48-C , 49-C ) :   1.1874 B( 48-C , 88-H ) :   0.9748 
B( 49-C , 51-C ) :   1.2453 B( 50-C , 89-H ) :   0.9708 B( 60-H , 64-H ) :   0.1044 


-------
TIMINGS
-------

Total SCF time: 0 days 0 hours 28 min 29 sec 

Total time                  ....    1709.139 sec
Sum of individual times     ....    1704.352 sec  ( 99.7%)

Fock matrix formation       ....    1676.562 sec  ( 98.1%)
Diagonalization             ....       8.772 sec  (  0.5%)
Density matrix formation    ....       0.532 sec  (  0.0%)
Population analysis         ....       0.607 sec  (  0.0%)
Initial guess               ....       2.524 sec  (  0.1%)
Orbital Transformation      ....       0.000 sec  (  0.0%)
Orbital Orthonormalization  ....       0.000 sec  (  0.0%)
DIIS solution               ....       3.977 sec  (  0.2%)
SOSCF solution              ....      10.087 sec  (  0.6%)

Maximum memory used throughout the entire SCF-calculation: 302.7 MB


           ************************************************************
           *        Program running with 16 parallel MPI-processes    *
           *              working on a common directory               *
           ************************************************************

------------------------------------------------------------------------------
                                ORCA  MP2 
------------------------------------------------------------------------------

Freezing NCore=104 chemical core electrons

----------
MP2 ENERGY (disk based algorithm)
----------

Dimension of the basis                    ...  918
Memory devoted to MP2                     ... 2000 MB   
Data format for buffers                   ... DOUBLE
Compression type for matrix containers    ... UNCOMPRESSED

-------------------------------
PARTIAL EXCHANGE TRANSFORMATION
-------------------------------

Transformation type                        ... one-operator
Generation of integrals (i,mue|j,nue)      ... ON
Generation of integrals (mue,kappa|nue,tau)... OFF
Generation of integrals (i,mue|a,nue)      ... OFF
Dimension of the basis                     ...  918
Number of internal MOs                     ...  127 (  52- 178)
Pair cutoff                                ... 2.500e-12 Eh
Number of AO pairs in the trafo            ... 421821
Total Number of distinct AO pairs          ... 421821
Memory devoted for trafo                   ... 2000.0 MB 
Max. Number of MO pairs treated together   ...  311      
Number Format for Storage                  ... Double (8 Byte)
Integral package used                      ... LIBINT

Starting integral evaluation:
    ... done with AO integral generation
Closing buffer AOK     (38.28 GB; CompressionRatio= 1.32)
Collecting buffer AOK 
Number of MO pairs included in the trafo   ... 8128
------------------------
SORTING OF (i,mue|j,nue)
------------------------

IBATCH = 1 of  2
IBATCH = 2 of  2
Closing buffer KAO     (51.03 GB; CompressionRatio= 1.00)
Collecting buffer KAO 
N(AO-Batches) Done                         ...  86010644 
N(AO-Batches) Skipped                      ...  82474156 
N(IJ)-pairs Skipped                        ...         0 
TOTAL TIME for half transformation         ...  2630.598 sec
AO-integral generation                     ...   211.978 sec
Half transformation                        ...   423.524 sec
K-integral sorting                         ...  1767.803 sec
Process 10:   Internal MO 132
Process 13:   Internal MO 156

Finished integral transformation - now doing MP2 part

Process  4:   Internal MO  84
Process  7:   Internal MO 108
Process  1:   Internal MO  60
OPERATOR COMBINATION   0   0: ij=( 52..178, 52..178)
Process  0:   Internal MO  54
Process  2:   Internal MO  69
Process  0:   Internal MO  57
Process  1:   Internal MO  63
Process  5:   Internal MO  93
Process  2:   Internal MO  72
Process  1:   Internal MO  66
Process  8:   Internal MO 117
Process 11:   Internal MO 141
Process  6:   Internal MO 102
Process 14:   Internal MO 165
Process  2:   Internal MO  75
Process  9:   Internal MO 126
Process  7:   Internal MO 111
Process  5:   Internal MO  96
Process 12:   Internal MO 150
Process  3:   Internal MO  78
Process 10:   Internal MO 135
Process 15:   Internal MO 174
Process  4:   Internal MO  87
Process  6:   Internal MO 105
Process  3:   Internal MO  81
Process  8:   Internal MO 120
Process  5:   Internal MO  99
Process  7:   Internal MO 114
Process  9:   Internal MO 129
Process  4:   Internal MO  90
Process 11:   Internal MO 144
Process 13:   Internal MO 159
Process 14:   Internal MO 168
Process 12:   Internal MO 153
Process 10:   Internal MO 138
Process  8:   Internal MO 123
Process 15:   Internal MO 177
Process 11:   Internal MO 147
Process 13:   Internal MO 162
Process 14:   Internal MO 171
-----------------------------------------------
 MP2 CORRELATION ENERGY   :     -7.290878182 Eh
-----------------------------------------------


-------
TIMINGS
-------
Total time                : 2968.770 sec
Integral trafo            : 2633.613 sec ( 88.7%)
K(i,j)                    :    6.355 sec (  0.2%)
T(i,j)                    :    0.068 sec (  0.0%)

---------------------------------------
MP2 TOTAL ENERGY:    -2130.777585876 Eh
---------------------------------------

Maximum memory used throughout the entire MP2-calculation: 2275.3 MB

-------------------------   --------------------
FINAL SINGLE POINT ENERGY     -2130.777585875893
-------------------------   --------------------


                            ***************************************
                            *     ORCA property calculations      *
                            ***************************************


  WARNING: The energy has been calculated at the MP2 level but the densities
           used in the property calculations are still SCF densities
           MP2 response densities have not been calculated 
           use %mp2 Density relaxed end
           or  %mp2 Density unrelaxed end

                                    ---------------------
                                    Active property flags
                                    ---------------------
   (+) Dipole Moment


------------------------------------------------------------------------------
                       ORCA ELECTRIC PROPERTIES CALCULATION
------------------------------------------------------------------------------

Dipole Moment Calculation                       ... on
Quadrupole Moment Calculation                   ... off
Polarizability Calculation                      ... off
GBWName                                         ... /scratch/allen/tmpyp4_amber_gaff2/conf1/conf1/Conf193.orca.gbw
Electron density                                ... /scratch/allen/tmpyp4_amber_gaff2/conf1/conf1/Conf193.orca.scfp
The origin for moment calculation is the CENTER OF MASS  = ( 0.003117, -0.001940 -0.000230)

-------------
DIPOLE MOMENT
-------------
                                X             Y             Z
Electronic contribution:      2.77365      -4.33848      -0.18789
Nuclear contribution   :      0.07257       0.23351       0.18628
                        -----------------------------------------
Total Dipole Moment    :      2.84622      -4.10496      -0.00161
                        -----------------------------------------
Magnitude (a.u.)       :      4.99517
Magnitude (Debye)      :     12.69671



--------------------
Rotational spectrum 
--------------------
 
Rotational constants in cm-1:     0.001501     0.001479     0.000760 
Rotational constants in MHz :    45.008936    44.353193    22.783385 

 Dipole components along the rotational axes: 
x,y,z [a.u.] :     3.531791     3.532445    -0.000576 
x,y,z [Debye]:     8.977099     8.978761    -0.001463 

 

Timings for individual modules:

Sum of individual times         ...     4702.379 sec (=  78.373 min)
GTO integral calculation        ...        3.743 sec (=   0.062 min)   0.1 %
SCF iterations                  ...     1710.381 sec (=  28.506 min)  36.4 %
MP2 module                      ...     2988.255 sec (=  49.804 min)  63.5 %
                             ****ORCA TERMINATED NORMALLY****
TOTAL RUN TIME: 0 days 1 hours 18 minutes 25 seconds 926 msec
# of primitive gaussian functions

