
                                 *****************
                                 * O   R   C   A *
                                 *****************

                                            #,                                       
                                            ###                                      
                                            ####                                     
                                            #####                                    
                                            ######                                   
                                           ########,                                 
                                     ,,################,,,,,                         
                               ,,#################################,,                 
                          ,,##########################################,,             
                       ,#########################################, ''#####,          
                    ,#############################################,,   '####,        
                  ,##################################################,,,,####,       
                ,###########''''           ''''###############################       
              ,#####''   ,,,,##########,,,,          '''####'''          '####       
            ,##' ,,,,###########################,,,                        '##       
           ' ,,###''''                  '''############,,,                           
         ,,##''                                '''############,,,,        ,,,,,,###''
      ,#''                                            '''#######################'''  
     '                                                          ''''####''''         
             ,#######,   #######,   ,#######,      ##                                
            ,#'     '#,  ##    ##  ,#'     '#,    #''#        ######   ,####,        
            ##       ##  ##   ,#'  ##            #'  '#       #        #'  '#        
            ##       ##  #######   ##           ,######,      #####,   #    #        
            '#,     ,#'  ##    ##  '#,     ,#' ,#      #,         ##   #,  ,#        
             '#######'   ##     ##  '#######'  #'      '#     #####' # '####'        



                  #######################################################
                  #                        -***-                        #
                  #          Department of theory and spectroscopy      #
                  #    Directorship and core code : Frank Neese         #
                  #        Max Planck Institute fuer Kohlenforschung    #
                  #                Kaiser Wilhelm Platz 1               #
                  #                 D-45470 Muelheim/Ruhr               #
                  #                      Germany                        #
                  #                                                     #
                  #                  All rights reserved                #
                  #                        -***-                        #
                  #######################################################


                         Program Version 5.0.4 -  RELEASE  -


 With contributions from (in alphabetic order):
   Daniel Aravena         : Magnetic Suceptibility
   Michael Atanasov       : Ab Initio Ligand Field Theory (pilot matlab implementation)
   Alexander A. Auer      : GIAO ZORA, VPT2 properties, NMR spectrum
   Ute Becker             : Parallelization
   Giovanni Bistoni       : ED, misc. LED, open-shell LED, HFLD
   Martin Brehm           : Molecular dynamics
   Dmytro Bykov           : SCF Hessian
   Vijay G. Chilkuri      : MRCI spin determinant printing, contributions to CSF-ICE
   Dipayan Datta          : RHF DLPNO-CCSD density
   Achintya Kumar Dutta   : EOM-CC, STEOM-CC
   Dmitry Ganyushin       : Spin-Orbit,Spin-Spin,Magnetic field MRCI
   Miquel Garcia          : C-PCM and meta-GGA Hessian, CC/C-PCM, Gaussian charge scheme
   Yang Guo               : DLPNO-NEVPT2, F12-NEVPT2, CIM, IAO-localization
   Andreas Hansen         : Spin unrestricted coupled pair/coupled cluster methods
   Benjamin Helmich-Paris : MC-RPA, TRAH-SCF, COSX integrals
   Lee Huntington         : MR-EOM, pCC
   Robert Izsak           : Overlap fitted RIJCOSX, COSX-SCS-MP3, EOM
   Marcus Kettner         : VPT2
   Christian Kollmar      : KDIIS, OOCD, Brueckner-CCSD(T), CCSD density, CASPT2, CASPT2-K
   Simone Kossmann        : Meta GGA functionals, TD-DFT gradient, OOMP2, MP2 Hessian
   Martin Krupicka        : Initial AUTO-CI
   Lucas Lang             : DCDCAS
   Marvin Lechner         : AUTO-CI (C++ implementation), FIC-MRCC
   Dagmar Lenk            : GEPOL surface, SMD
   Dimitrios Liakos       : Extrapolation schemes; Compound Job, initial MDCI parallelization
   Dimitrios Manganas     : Further ROCIS development; embedding schemes
   Dimitrios Pantazis     : SARC Basis sets
   Anastasios Papadopoulos: AUTO-CI, single reference methods and gradients
   Taras Petrenko         : DFT Hessian,TD-DFT gradient, ASA, ECA, R-Raman, ABS, FL, XAS/XES, NRVS
   Peter Pinski           : DLPNO-MP2, DLPNO-MP2 Gradient
   Christoph Reimann      : Effective Core Potentials
   Marius Retegan         : Local ZFS, SOC
   Christoph Riplinger    : Optimizer, TS searches, QM/MM, DLPNO-CCSD(T), (RO)-DLPNO pert. Triples
   Tobias Risthaus        : Range-separated hybrids, TD-DFT gradient, RPA, STAB
   Michael Roemelt        : Original ROCIS implementation
   Masaaki Saitow         : Open-shell DLPNO-CCSD energy and density
   Barbara Sandhoefer     : DKH picture change effects
   Avijit Sen             : IP-ROCIS
   Kantharuban Sivalingam : CASSCF convergence, NEVPT2, FIC-MRCI
   Bernardo de Souza      : ESD, SOC TD-DFT
   Georgi Stoychev        : AutoAux, RI-MP2 NMR, DLPNO-MP2 response
   Willem Van den Heuvel  : Paramagnetic NMR
   Boris Wezisla          : Elementary symmetry handling
   Frank Wennmohs         : Technical directorship


 We gratefully acknowledge several colleagues who have allowed us to
 interface, adapt or use parts of their codes:
   Stefan Grimme, W. Hujo, H. Kruse, P. Pracht,  : VdW corrections, initial TS optimization,
                  C. Bannwarth, S. Ehlert          DFT functionals, gCP, sTDA/sTD-DF
   Ed Valeev, F. Pavosevic, A. Kumar             : LibInt (2-el integral package), F12 methods
   Garnet Chan, S. Sharma, J. Yang, R. Olivares  : DMRG
   Ulf Ekstrom                                   : XCFun DFT Library
   Mihaly Kallay                                 : mrcc  (arbitrary order and MRCC methods)
   Jiri Pittner, Ondrej Demel                    : Mk-CCSD
   Frank Weinhold                                : gennbo (NPA and NBO analysis)
   Christopher J. Cramer and Donald G. Truhlar   : smd solvation model
   Lars Goerigk                                  : TD-DFT with DH, B97 family of functionals
   V. Asgeirsson, H. Jonsson                     : NEB implementation
   FAccTs GmbH                                   : IRC, NEB, NEB-TS, DLPNO-Multilevel, CI-OPT
                                                   MM, QMMM, 2- and 3-layer-ONIOM, Crystal-QMMM,
                                                   LR-CPCM, SF, NACMEs, symmetry and pop. for TD-DFT,
                                                   nearIR, NL-DFT gradient (VV10), updates on ESD,
                                                   ML-optimized integration grids
   S Lehtola, MJT Oliveira, MAL Marques          : LibXC Library
   Liviu Ungur et al                             : ANISO software


 Your calculation uses the libint2 library for the computation of 2-el integrals
 For citations please refer to: http://libint.valeyev.net

 Your ORCA version has been built with support for libXC version: 5.1.0
 For citations please refer to: https://tddft.org/programs/libxc/

 This ORCA versions uses:
   CBLAS   interface :  Fast vector & matrix operations
   LAPACKE interface :  Fast linear algebra routines
   SCALAPACK package :  Parallel linear algebra routines
   Shared memory     :  Shared parallel matrices
   BLAS/LAPACK       :  OpenBLAS 0.3.15  USE64BITINT DYNAMIC_ARCH NO_AFFINITY Sandybridge SINGLE_THREADED
        Core in use  :  Sandybridge
   Copyright (c) 2011-2014, The OpenBLAS Project


================================================================================

----- Orbital basis set information -----
Your calculation utilizes the basis: cc-pVDZ 
       H, B-Ne : Obtained from the ccRepo (grant-hill.group.shef.ac.uk/ccrepo) Feb. 2017
                 T. H. Dunning, Jr., J. Chem. Phys. 90, 1007 (1989)
            He : Obtained from the ccRepo (grant-hill.group.shef.ac.uk/ccrepo) Feb. 2017
                 D. E. Woon, T. H. Dunning, Jr., J. Chem. Phys. 100, 2975 (1994)
  Li-Be, Na-Mg : Obtained from the ccRepo (grant-hill.group.shef.ac.uk/ccrepo) Feb. 2017
                 B. P. Prascher, D. E. Woon, K. A. Peterson, T. H. Dunning, Jr., A. K. Wilson, Theor. Chem. Acc. 128, 69 (2011)
         Al-Ar : Obtained from the ccRepo (grant-hill.group.shef.ac.uk/ccrepo) Feb. 2017
                 D. E. Woon, T. H. Dunning, Jr., J. Chem. Phys. 98, 1358 (1993)
            Ca : Obtained from the Peterson Research Group Website (tyr0.chem.wsu.edu/~kipeters) Feb. 2017
                 J. Koput, K. A. Peterson, J. Phys. Chem. 106, 9595 (2002)
         Sc-Zn : Obtained from the ccRepo (grant-hill.group.shef.ac.uk/ccrepo) Feb. 2017
                 N. B. Balabanov, K. A. Peterson, J. Chem. Phys. 123, 064107 (2005)
                 N. B. Balabanov, K. A. Peterson, J. Chem. Phys. 125, 074110 (2006)
         Ga-Kr : Obtained from the ccRepo (grant-hill.group.shef.ac.uk/ccrepo) Feb. 2017
                 A. K. Wilson, D. E. Woon, K. A. Peterson, T. H. Dunning, Jr., J. Chem. Phys. 110, 7667 (1999)

================================================================================
                                        WARNINGS
                       Please study these warnings very carefully!
================================================================================


WARNING: No MP2 level density has been requested!
         To caclulate MP2 level properties use
         %mp2 Density relaxed end
         or
         %mp2 Density unrelaxed end

WARNING: Post HF methods need fully converged wavefunctions
  ===> : Setting SCFConvForced true
         You can overwrite this default with %scf ConvForced false 


INFO   : the flag for use of the SHARK integral package has been found!

================================================================================
                                       INPUT FILE
================================================================================
NAME = /scratch/allen/tmpyp4_amber_gaff2/2.Mdgx/conf11/conf11/Conf150.orca
|  1> ! PAL2
|  2> ! mp2 cc-pvdz TightSCF  NoKeepInts
|  3> 
|  4> %scf
|  5>   MaxCore 2000
|  6> end
|  7> %mp2
|  8>   MaxCore 2000
|  9> end
| 10> * xyz 0 1
| 11>    C       -4.80500         5.29700        -0.55300
| 12>    C        1.47400         4.04100         0.05700
| 13>    C       -2.80200         4.09300         0.04900
| 14>    C       -2.36300         5.25300         0.70600
| 15>    C       -3.15300         6.38500         0.71500
| 16>    C       -5.19200         7.61600         0.14900
| 17>    C        0.13200         4.30700         0.06100
| 18>    C       -0.56900         3.05600         0.04700
| 19>    C        1.64900         2.61800         0.02300
| 20>    C       -4.05300         4.13900        -0.58400
| 21>    N       -4.35300         6.39800         0.08900
| 22>    N        0.38800         2.06700         0.02500
| 23>    N       -2.01000         0.39500        -0.07500
| 24>    N       -0.38800        -2.07400        -0.02700
| 25>    N        2.01000        -0.40100         0.06500
| 26>    C       -1.96000         2.86100         0.02400
| 27>    C       -2.62300         1.61500        -0.01800
| 28>    C       -5.57300        -4.32900         1.06600
| 29>    C       -4.07300         1.47100         0.05600
| 30>    C       -4.10600        -2.75600        -0.02600
| 31>    C       -4.99500        -2.75700        -1.11100
| 32>    C       -6.13200        -3.54200        -1.07600
| 33>    C       -7.65100        -5.11300         0.04000
| 34>    C       -4.32400         0.14100         0.03700
| 35>    C       -3.02500        -0.52000        -0.04800
| 36>    C       -4.42200        -3.56600         1.07500
| 37>    N       -6.40700        -4.31300         0.00100
| 38>    C       -2.86700        -1.92200        -0.04000
| 39>    C       -1.65000        -2.62400        -0.02700
| 40>    C        3.56800        -6.14200        -1.04000
| 41>    C       -1.47600        -4.04900        -0.03400
| 42>    C        2.80300        -4.09900        -0.00800
| 43>    C        3.65700        -4.38400         1.06900
| 44>    C        4.42700        -5.53000         1.05900
| 45>    C        5.24500        -7.58800         0.01400
| 46>    C       -0.13400        -4.31500        -0.02200
| 47>    C        0.56800        -3.06400        -0.02700
| 48>    C        2.77500        -5.01200        -1.07400
| 49>    N        4.37600        -6.39100         0.01700
| 50>    C        1.95900        -2.86900        -0.00900
| 51>    C        2.62100        -1.62200         0.00900
| 52>    C        5.54300         4.33900        -1.13000
| 53>    C        4.07000        -1.47900        -0.09400
| 54>    C        4.10400         2.75100        -0.02100
| 55>    C        5.02700         2.72900         1.03600
| 56>    C        6.16600         3.50900         0.97800
| 57>    C        7.61900         5.15300        -0.11500
| 58>    C        4.32100        -0.14800        -0.09200
| 59>    C        3.02500         0.51400         0.01500
| 60>    C        4.38700         3.58200        -1.11500
| 61>    C        2.86600         1.91600         0.01300
| 62>    N        6.41300         4.29600        -0.09500
| 63>    H       -5.77000         5.38200        -1.03800
| 64>    H        2.27400         4.76600         0.08100
| 65>    H       -1.41100         5.27700         1.22200
| 66>    H       -2.86100         7.30000         1.21600
| 67>    H       -5.78700         7.59300         1.06500
| 68>    H       -4.54200         8.49100         0.14700
| 69>    H       -5.84600         7.63400        -0.72200
| 70>    H       -0.33200         5.28200         0.06900
| 71>    H       -4.44100         3.28000        -1.12100
| 72>    H        0.18200         1.07200         0.00500
| 73>    H       -0.18300        -1.08000        -0.02100
| 74>    H       -5.86400        -4.96200         1.89500
| 75>    H       -4.79400         2.27200         0.13900
| 76>    H       -4.80000        -2.16000        -1.99400
| 77>    H       -6.84100        -3.58200        -1.89300
| 78>    H       -8.42800        -4.53600         0.54600
| 79>    H       -7.95600        -5.33700        -0.98100
| 80>    H       -7.45600        -6.03700         0.58400
| 81>    H       -5.28700        -0.34400         0.10000
| 82>    H       -3.78000        -3.60100         1.94700
| 83>    H        3.58700        -6.86800        -1.84300
| 84>    H       -2.27600        -4.77400        -0.05000
| 85>    H        3.71400        -3.72400         1.92600
| 86>    H        5.09200        -5.79500         1.87100
| 87>    H        6.20500        -7.32900        -0.43900
| 88>    H        5.39300        -7.91700         1.04200
| 89>    H        4.75900        -8.37300        -0.56400
| 90>    H        0.32900        -5.29000        -0.00800
| 91>    H        2.14600        -4.84200        -1.94000
| 92>    H        5.80800         4.98600        -1.95600
| 93>    H        4.78800        -2.28100        -0.18500
| 94>    H        4.86000         2.11400         1.91200
| 95>    H        6.90100         3.53100         1.77200
| 96>    H        7.38300         6.10900         0.35600
| 97>    H        8.41400         4.65200         0.43500
| 98>    H        7.92100         5.31000        -1.15000
| 99>    H        5.28300         0.33600        -0.17900
|100>    H        3.72000         3.63200        -1.96700
|101> *
|102> 
|103>                          ****END OF INPUT****
================================================================================

                       ****************************
                       * Single Point Calculation *
                       ****************************

---------------------------------
CARTESIAN COORDINATES (ANGSTROEM)
---------------------------------
  C     -4.805000    5.297000   -0.553000
  C      1.474000    4.041000    0.057000
  C     -2.802000    4.093000    0.049000
  C     -2.363000    5.253000    0.706000
  C     -3.153000    6.385000    0.715000
  C     -5.192000    7.616000    0.149000
  C      0.132000    4.307000    0.061000
  C     -0.569000    3.056000    0.047000
  C      1.649000    2.618000    0.023000
  C     -4.053000    4.139000   -0.584000
  N     -4.353000    6.398000    0.089000
  N      0.388000    2.067000    0.025000
  N     -2.010000    0.395000   -0.075000
  N     -0.388000   -2.074000   -0.027000
  N      2.010000   -0.401000    0.065000
  C     -1.960000    2.861000    0.024000
  C     -2.623000    1.615000   -0.018000
  C     -5.573000   -4.329000    1.066000
  C     -4.073000    1.471000    0.056000
  C     -4.106000   -2.756000   -0.026000
  C     -4.995000   -2.757000   -1.111000
  C     -6.132000   -3.542000   -1.076000
  C     -7.651000   -5.113000    0.040000
  C     -4.324000    0.141000    0.037000
  C     -3.025000   -0.520000   -0.048000
  C     -4.422000   -3.566000    1.075000
  N     -6.407000   -4.313000    0.001000
  C     -2.867000   -1.922000   -0.040000
  C     -1.650000   -2.624000   -0.027000
  C      3.568000   -6.142000   -1.040000
  C     -1.476000   -4.049000   -0.034000
  C      2.803000   -4.099000   -0.008000
  C      3.657000   -4.384000    1.069000
  C      4.427000   -5.530000    1.059000
  C      5.245000   -7.588000    0.014000
  C     -0.134000   -4.315000   -0.022000
  C      0.568000   -3.064000   -0.027000
  C      2.775000   -5.012000   -1.074000
  N      4.376000   -6.391000    0.017000
  C      1.959000   -2.869000   -0.009000
  C      2.621000   -1.622000    0.009000
  C      5.543000    4.339000   -1.130000
  C      4.070000   -1.479000   -0.094000
  C      4.104000    2.751000   -0.021000
  C      5.027000    2.729000    1.036000
  C      6.166000    3.509000    0.978000
  C      7.619000    5.153000   -0.115000
  C      4.321000   -0.148000   -0.092000
  C      3.025000    0.514000    0.015000
  C      4.387000    3.582000   -1.115000
  C      2.866000    1.916000    0.013000
  N      6.413000    4.296000   -0.095000
  H     -5.770000    5.382000   -1.038000
  H      2.274000    4.766000    0.081000
  H     -1.411000    5.277000    1.222000
  H     -2.861000    7.300000    1.216000
  H     -5.787000    7.593000    1.065000
  H     -4.542000    8.491000    0.147000
  H     -5.846000    7.634000   -0.722000
  H     -0.332000    5.282000    0.069000
  H     -4.441000    3.280000   -1.121000
  H      0.182000    1.072000    0.005000
  H     -0.183000   -1.080000   -0.021000
  H     -5.864000   -4.962000    1.895000
  H     -4.794000    2.272000    0.139000
  H     -4.800000   -2.160000   -1.994000
  H     -6.841000   -3.582000   -1.893000
  H     -8.428000   -4.536000    0.546000
  H     -7.956000   -5.337000   -0.981000
  H     -7.456000   -6.037000    0.584000
  H     -5.287000   -0.344000    0.100000
  H     -3.780000   -3.601000    1.947000
  H      3.587000   -6.868000   -1.843000
  H     -2.276000   -4.774000   -0.050000
  H      3.714000   -3.724000    1.926000
  H      5.092000   -5.795000    1.871000
  H      6.205000   -7.329000   -0.439000
  H      5.393000   -7.917000    1.042000
  H      4.759000   -8.373000   -0.564000
  H      0.329000   -5.290000   -0.008000
  H      2.146000   -4.842000   -1.940000
  H      5.808000    4.986000   -1.956000
  H      4.788000   -2.281000   -0.185000
  H      4.860000    2.114000    1.912000
  H      6.901000    3.531000    1.772000
  H      7.383000    6.109000    0.356000
  H      8.414000    4.652000    0.435000
  H      7.921000    5.310000   -1.150000
  H      5.283000    0.336000   -0.179000
  H      3.720000    3.632000   -1.967000

----------------------------
CARTESIAN COORDINATES (A.U.)
----------------------------
  NO LB      ZA    FRAG     MASS         X           Y           Z
   0 C     6.0000    0    12.011   -9.080134   10.009879   -1.045019
   1 C     6.0000    0    12.011    2.785456    7.636383    0.107714
   2 C     6.0000    0    12.011   -5.295013    7.734649    0.092597
   3 C     6.0000    0    12.011   -4.465423    9.926731    1.334147
   4 C     6.0000    0    12.011   -5.958307   12.065901    1.351154
   5 C     6.0000    0    12.011   -9.811458   14.392154    0.281569
   6 C     6.0000    0    12.011    0.249444    8.139050    0.115273
   7 C     6.0000    0    12.011   -1.075254    5.775003    0.088817
   8 C     6.0000    0    12.011    3.116158    4.947303    0.043464
   9 C     6.0000    0    12.011   -7.659060    7.821576   -1.103600
  10 N     7.0000    0    14.007   -8.225978   12.090468    0.168186
  11 N     7.0000    0    14.007    0.733214    3.906064    0.047243
  12 N     7.0000    0    14.007   -3.798350    0.746442   -0.141729
  13 N     7.0000    0    14.007   -0.733214   -3.919292   -0.051023
  14 N     7.0000    0    14.007    3.798350   -0.757780    0.122832
  15 C     6.0000    0    12.011   -3.703863    5.406506    0.045353
  16 C     6.0000    0    12.011   -4.956752    3.051908   -0.034015
  17 C     6.0000    0    12.011  -10.531444   -8.180624    2.014448
  18 C     6.0000    0    12.011   -7.696855    2.779787    0.105825
  19 C     6.0000    0    12.011   -7.759216   -5.208085   -0.049133
  20 C     6.0000    0    12.011   -9.439182   -5.209975   -2.099486
  21 C     6.0000    0    12.011  -11.587801   -6.693410   -2.033345
  22 C     6.0000    0    12.011  -14.458295   -9.662170    0.075589
  23 C     6.0000    0    12.011   -8.171176    0.266451    0.069920
  24 C     6.0000    0    12.011   -5.716422   -0.982658   -0.090707
  25 C     6.0000    0    12.011   -8.356369   -6.738763    2.031456
  26 N     7.0000    0    14.007  -12.107475   -8.150389    0.001890
  27 C     6.0000    0    12.011   -5.417845   -3.632054   -0.075589
  28 C     6.0000    0    12.011   -3.118048   -4.958641   -0.051023
  29 C     6.0000    0    12.011    6.742543  -11.606698   -1.965315
  30 C     6.0000    0    12.011   -2.789236   -7.651501   -0.064251
  31 C     6.0000    0    12.011    5.296902   -7.745987   -0.015118
  32 C     6.0000    0    12.011    6.910728   -8.284559    2.020117
  33 C     6.0000    0    12.011    8.365818  -10.450186    2.001220
  34 C     6.0000    0    12.011    9.911614  -14.339242    0.026456
  35 C     6.0000    0    12.011   -0.253223   -8.154168   -0.041574
  36 C     6.0000    0    12.011    1.073364   -5.790121   -0.051023
  37 C     6.0000    0    12.011    5.243990   -9.471307   -2.029566
  38 N     7.0000    0    14.007    8.269442  -12.077240    0.032125
  39 C     6.0000    0    12.011    3.701973   -5.421624   -0.017008
  40 C     6.0000    0    12.011    4.952972   -3.065136    0.017008
  41 C     6.0000    0    12.011   10.474752    8.199522   -2.135391
  42 C     6.0000    0    12.011    7.691185   -2.794905   -0.177634
  43 C     6.0000    0    12.011    7.755436    5.198637   -0.039684
  44 C     6.0000    0    12.011    9.499653    5.157063    1.957756
  45 C     6.0000    0    12.011   11.652051    6.631049    1.848152
  46 C     6.0000    0    12.011   14.397823    9.737759   -0.217319
  47 C     6.0000    0    12.011    8.165507   -0.279679   -0.173855
  48 C     6.0000    0    12.011    5.716422    0.971319    0.028346
  49 C     6.0000    0    12.011    8.290229    6.768999   -2.107045
  50 C     6.0000    0    12.011    5.415955    3.620715    0.024566
  51 N     7.0000    0    14.007   12.118814    8.118263   -0.179524
  52 H     1.0000    0     1.008  -10.903720   10.170506   -1.961536
  53 H     1.0000    0     1.008    4.297237    9.006435    0.153068
  54 H     1.0000    0     1.008   -2.666404    9.972085    2.309245
  55 H     1.0000    0     1.008   -5.406506   13.795001    2.297907
  56 H     1.0000    0     1.008  -10.935845   14.348691    2.012558
  57 H     1.0000    0     1.008   -8.583136   16.045665    0.277790
  58 H     1.0000    0     1.008  -11.047339   14.426169   -1.364382
  59 H     1.0000    0     1.008   -0.627389    9.981533    0.130391
  60 H     1.0000    0     1.008   -8.392274    6.198302   -2.118383
  61 H     1.0000    0     1.008    0.343930    2.025786    0.009449
  62 H     1.0000    0     1.008   -0.345820   -2.040904   -0.039684
  63 H     1.0000    0     1.008  -11.081354   -9.376821    3.581031
  64 H     1.0000    0     1.008   -9.059347    4.293458    0.262672
  65 H     1.0000    0     1.008   -9.070685   -4.081808   -3.768114
  66 H     1.0000    0     1.008  -12.927616   -6.768999   -3.577252
  67 H     1.0000    0     1.008  -15.926612   -8.571798    1.031790
  68 H     1.0000    0     1.008  -15.034661  -10.085468   -1.853821
  69 H     1.0000    0     1.008  -14.089798  -11.408277    1.103600
  70 H     1.0000    0     1.008   -9.990982   -0.650066    0.188973
  71 H     1.0000    0     1.008   -7.143165   -6.804904    3.679297
  72 H     1.0000    0     1.008    6.778448  -12.978639   -3.482765
  73 H     1.0000    0     1.008   -4.301017   -9.021553   -0.094486
  74 H     1.0000    0     1.008    7.018443   -7.037340    3.639613
  75 H     1.0000    0     1.008    9.622485  -10.950963    3.535678
  76 H     1.0000    0     1.008   11.725751  -13.849803   -0.829590
  77 H     1.0000    0     1.008   10.191293  -14.960962    1.969095
  78 H     1.0000    0     1.008    8.993207  -15.822677   -1.065806
  79 H     1.0000    0     1.008    0.621720   -9.996651   -0.015118
  80 H     1.0000    0     1.008    4.055352   -9.150054   -3.666069
  81 H     1.0000    0     1.008   10.975529    9.422175   -3.696304
  82 H     1.0000    0     1.008    9.048009   -4.310465   -0.349599
  83 H     1.0000    0     1.008    9.184069    3.994881    3.613156
  84 H     1.0000    0     1.008   13.041000    6.672623    3.348595
  85 H     1.0000    0     1.008   13.951848   11.544337    0.672743
  86 H     1.0000    0     1.008   15.900156    8.791006    0.822031
  87 H     1.0000    0     1.008   14.968521   10.034446   -2.173185
  88 H     1.0000    0     1.008    9.983423    0.634948   -0.338261
  89 H     1.0000    0     1.008    7.029781    6.863485   -3.717091

--------------------------------
INTERNAL COORDINATES (ANGSTROEM)
--------------------------------
 C      0   0   0     0.000000000000     0.00000000     0.00000000
 C      1   0   0     6.432377243290     0.00000000     0.00000000
 C      1   2   0     2.413302509011    21.36711839     0.00000000
 C      3   1   2     1.403556197664    87.93911342    52.46694583
 C      4   3   1     1.380436525162   120.11831572     0.16637311
 C      5   4   3     2.448109066198   152.55847825     1.55840101
 C      2   1   3     1.368114030335     5.61010553   297.40272401
 C      7   2   4     1.434084376876   108.05010202   234.56263126
 C      2   1   3     1.434123425651   108.09632746    29.59734543
 C      1   2   7     1.381097027728    46.12374660   263.96805808
 N      1   2   7     1.352282884607    77.74145920    63.16500192
 N      9   2   1     1.376127174356   106.58526707   353.33458133
 N     12   9   2     2.925062050624   168.53581413   171.12065651
 N     13  12   9     2.954513327098    91.55032014    11.12112580
 N     14  13  12     2.925371258490    88.43092389   359.84326247
 C      8   7   2     1.404790019896   127.24786865   181.11170171
 C     13  12   9     1.366535034311    81.72106996   188.00453233
 C     14  13  12     5.758810554272    80.56209567   166.76250791
 C     17  13  12     1.459010623676   111.08861209   183.82872609
 C     18  14  13     2.412235892279    27.27532823    36.33507194
 C     20  18  14     1.402692767501    87.95206320   148.94598259
 C     21  20  18     1.382106725257   120.14573887   359.70382047
 C     18  14  13     2.446510985056   144.15733107    82.80075377
 C     19  17  13     1.353610726908   106.29293361   359.75308708
 C     13  12   9     1.366813447402   172.21332906    33.46711076
 C     18  14  13     1.380960173213    15.08449437   309.23336894
 N     22  21  20     1.352773077792   120.73759875     0.27865223
 C     25  13  17     1.410897586645   125.60330303   182.37774668
 C     14  13  12     1.376642291955    80.24689249   177.85461986
 C     14  13  12     5.764089607215   164.51507311   312.20821879
 C     29  14  13     1.435600919476   106.58649366   178.76395472
 C     30  14  13     2.413316804732    27.10625047    82.12560436
 C     32  30  14     1.403734305344    87.90059683   149.76154742
 C     33  32  30     1.380694028378   120.14881443   359.74174632
 C     34  33  32     2.448777858443   152.49203239     2.45173620
 C     31  29  14     1.368160809262   108.16950133     0.70383075
 C     14  13  12     1.376239804685   169.26375223   353.09862627
 C     30  14  13     1.380907310430    14.68948582   353.70041132
 N     34  33  32     1.352658863128   120.85575621     0.19603406
 C     37  14  29     1.404717053360   126.01551127   180.90772073
 C     15  14  13     1.366491126938    81.61824056   183.09049352
 C      2   1   3     4.249062720177   153.45740958   151.42268616
 C     41  15  14     1.459677704153   111.05201287   175.08990246
 C     42   2   1     2.412953791518    41.78584867   210.33523957
 C     44  42   2     1.403446472082    87.95153797   233.97558675
 C     45  44  42     1.381696421071   120.11137308     0.19721020
 C     42   2   1     2.450019795838   135.97209175   120.65008867
 C     43  41  15     1.354461516618   106.26758155     0.30894352
 C     15  14  13     1.367461151185   171.87382904   332.35056460
 C     42   2   1     1.381886391857    32.59078432   259.19051876
 C      9   2   1     1.404988612053   126.98745415   174.33891886
 N     42   2   1     1.352765315936   113.57249190   148.38667786
 H      1   2   7     1.083362820112   158.01477860   196.16685690
 H      2   1   3     1.079907866440   126.45258853   203.93423268
 H      4   3   1     1.083114029085   121.07976104   179.47903556
 H      5   4   3     1.083277434455   122.77907350   179.42040037
 H      6   5   4     1.092524599265   104.42842662   100.16157026
 H      6   5   4     1.090013302671    84.68695983   209.55063069
 H      6   5   4     1.089348888098   133.88374846   322.43615461
 H      7   2  54     1.079807853278   126.66122480     1.30600390
 H     10   1   2     1.084801364306   118.70499226   204.70884388
 H     12   9   2     1.016297692608   125.29023241   180.00180175
 H     14  13  12     1.014936943854    44.97226959   359.42596618
 H     18  14  13     1.082871645210   128.03556573   234.20482432
 H     19  17  13     1.080893611786   126.41830519   178.11313280
 H     21  20  18     1.083569563987   121.05669627   180.67006309
 H     22  21  20     1.082483256222   122.73097286   180.59748951
 H     23  18  14     1.092105306278   103.92715769   234.93429879
 H     23  18  14     1.088871893291   134.19244188    12.25587044
 H     23  18  14     1.089833473518    84.85857450   125.45241208
 H     24  19  17     1.080075460327   127.28078426   178.44613241
 H     26  18  14     1.083408048706   118.76995697   244.94906660
 H     30  14  13     1.082703098730   127.99711412   279.66882698
 H     31  29  14     1.079759695488   125.22293469   180.92530585
 H     33  32  30     1.083188810873   121.01964473   180.74284758
 H     34  33  32     1.082494341787   122.70821597   180.59516895
 H     35  34  33     1.092652735319   105.73575241    97.19771933
 H     35  34  33     1.089462711615    84.05943581   206.43036958
 H     35  34  33     1.089268102902   133.08365142   318.50306270
 H     36  31  29     1.079439669458   126.61599965   178.98859863
 H     38  30  73     1.083742127999   118.77264435   359.90091293
 H     42   2   1     1.082178358682   119.31790784     5.01820832
 H     43  41  15     1.080281907652   126.36969097   182.06329380
 H     45  44  42     1.083277434455   121.10105945   179.58025624
 H     46  45  44     1.082194529648   122.72144639   179.46906377
 H     47  42   2     1.091546151109   106.65128841   315.16475048
 H     47  42   2     1.088818625851   132.46019523    94.52397119
 H     47  42   2     1.089531091801    83.63838232   206.04504406
 H     48  43  41     1.080402239909   127.23657387   181.62955349
 H     50  42   2     1.083186502870   118.77001737    94.71359229

---------------------------
INTERNAL COORDINATES (A.U.)
---------------------------
 C      0   0   0     0.000000000000     0.00000000     0.00000000
 C      1   0   0    12.155431379886     0.00000000     0.00000000
 C      1   2   0     4.560480820336    21.36711839     0.00000000
 C      3   1   2     2.652336827152    87.93911342    52.46694583
 C      4   3   1     2.608646977817   120.11831572     0.16637311
 C      5   4   3     4.626255681084   152.55847825     1.55840101
 C      2   1   3     2.585360837309     5.61010553   297.40272401
 C      7   2   4     2.710026725231   108.05010202   234.56263126
 C      2   1   3     2.710100516721   108.09632746    29.59734543
 C      1   2   7     2.609895146779    46.12374660   263.96805808
 N      1   2   7     2.555444307496    77.74145920    63.16500192
 N      9   2   1     2.600503484979   106.58526707   353.33458133
 N     12   9   2     5.527566200405   168.53581413   171.12065651
 N     13  12   9     5.583221047236    91.55032014    11.12112580
 N     14  13  12     5.528150518591    88.43092389   359.84326247
 C      8   7   2     2.654668413270   127.24786865   181.11170171
 C     13  12   9     2.582376967257    81.72106996   188.00453233
 C     14  13  12    10.882574804710    80.56209567   166.76250791
 C     17  13  12     2.757130505230   111.08861209   183.82872609
 C     18  14  13     4.558465206823    27.27532823    36.33507194
 C     20  18  14     2.650705180609    87.95206320   148.94598259
 C     21  20  18     2.611803198586   120.14573887   359.70382047
 C     18  14  13     4.623235745386   144.15733107    82.80075377
 C     19  17  13     2.557953565794   106.29293361   359.75308708
 C     13  12   9     2.582903091751   172.21332906    33.46711076
 C     18  14  13     2.609636529225    15.08449437   309.23336894
 N     22  21  20     2.556370638369   120.73759875     0.27865223
 C     25  13  17     2.666210041769   125.60330303   182.37774668
 C     14  13  12     2.601476916169    80.24689249   177.85461986
 C     14  13  12    10.892550769017   164.51507311   312.20821879
 C     29  14  13     2.712892575415   106.58649366   178.76395472
 C     30  14  13     4.560507835333    27.10625047    82.12560436
 C     32  30  14     2.652673401891    87.90059683   149.76154742
 C     33  32  30     2.609133588376   120.14881443   359.74174632
 C     34  33  32     4.627519515267   152.49203239     2.45173620
 C     31  29  14     2.585449236669   108.16950133     0.70383075
 C     14  13  12     2.600716325456   169.26375223   353.09862627
 C     30  14  13     2.609536633043    14.68948582   353.70041132
 N     34  33  32     2.556154803934   120.85575621     0.19603406
 C     37  14  29     2.654530526499   126.01551127   180.90772073
 C     15  14  13     2.582293994346    81.61824056   183.09049352
 C      2   1   3     8.029564866989   153.45740958   151.42268616
 C     41  15  14     2.758391104639   111.05201287   175.08990246
 C     42   2   1     4.559821839776    41.78584867   210.33523957
 C     44  42   2     2.652129475853    87.95153797   233.97558675
 C     45  44  42     2.611027836043   120.11137308     0.19721020
 C     42   2   1     4.629866436820   135.97209175   120.65008867
 C     43  41  15     2.559561325344   106.26758155     0.30894352
 C     15  14  13     2.584127074516   171.87382904   332.35056460
 C     42   2   1     2.611386828803    32.59078432   259.19051876
 C      9   2   1     2.655043698059   126.98745415   174.33891886
 N     42   2   1     2.556355970587   113.57249190   148.38667786
 H      1   2   7     2.047259033683   158.01477860   196.16685690
 H      2   1   3     2.040730117440   126.45258853   203.93423268
 H      4   3   1     2.046788886778   121.07976104   179.47903556
 H      5   4   3     2.047097678177   122.77907350   179.42040037
 H      6   5   4     2.064572287184   104.42842662   100.16157026
 H      6   5   4     2.059826624379    84.68695983   209.55063069
 H      6   5   4     2.058571062797   133.88374846   322.43615461
 H      7   2  54     2.040541119952   126.66122480     1.30600390
 H     10   1   2     2.049977488242   118.70499226   204.70884388
 H     12   9   2     1.920524309565   125.29023241   180.00180175
 H     14  13  12     1.917952867083    44.97226959   359.42596618
 H     18  14  13     2.046330847636   128.03556573   234.20482432
 H     19  17  13     2.042592906181   126.41830519   178.11313280
 H     21  20  18     2.047649722989   121.05669627   180.67006309
 H     22  21  20     2.045596898814   122.73097286   180.59748951
 H     23  18  14     2.063779938267   103.92715769   234.93429879
 H     23  18  14     2.057669673245   134.19244188    12.25587044
 H     23  18  14     2.059486796529    84.85857450   125.45241208
 H     24  19  17     2.041046823986   127.28078426   178.44613241
 H     26  18  14     2.047344503340   118.76995697   244.94906660
 H     30  14  13     2.046012340948   127.99711412   279.66882698
 H     31  29  14     2.040450114918   125.22293469   180.92530585
 H     33  32  30     2.046930203877   121.01964473   180.74284758
 H     34  33  32     2.045617847496   122.70821597   180.59516895
 H     35  34  33     2.064814429233   105.73575241    97.19771933
 H     35  34  33     2.058786158072    84.05943581   206.43036958
 H     35  34  33     2.058418400901   133.08365142   318.50306270
 H     36  31  29     2.039845353366   126.61599965   178.98859863
 H     38  30  73     2.047975821711   118.77264435   359.90091293
 H     42   2   1     2.045020725966   119.31790784     5.01820832
 H     43  41  15     2.041436952892   126.36969097   182.06329380
 H     45  44  42     2.047097678177   121.10105945   179.58025624
 H     46  45  44     2.045051284662   122.72144639   179.46906377
 H     47  42   2     2.062723288131   106.65128841   315.16475048
 H     47  42   2     2.057569012371   132.46019523    94.52397119
 H     47  42   2     2.058915377895    83.63838232   206.04504406
 H     48  43  41     2.041664347903   127.23657387   181.62955349
 H     50  42   2     2.046925842384   118.77001737    94.71359229

---------------------
BASIS SET INFORMATION
---------------------
There are 3 groups of distinct atoms

 Group   1 Type C   : 17s4p1d contracted to 3s2p1d pattern {881/31/1}
 Group   2 Type N   : 17s4p1d contracted to 3s2p1d pattern {881/31/1}
 Group   3 Type H   : 4s1p contracted to 2s1p pattern {31/1}

Atom   0C    basis set group =>   1
Atom   1N    basis set group =>   2
Atom   2C    basis set group =>   1
Atom   3N    basis set group =>   2
Atom   4C    basis set group =>   1
Atom   5N    basis set group =>   2
Atom   6C    basis set group =>   1
Atom   7N    basis set group =>   2
Atom   8C    basis set group =>   1
Atom   9N    basis set group =>   2
Atom  10C    basis set group =>   1
Atom  11N    basis set group =>   2
Atom  12C    basis set group =>   1
Atom  13N    basis set group =>   2
Atom  14C    basis set group =>   1
Atom  15N    basis set group =>   2
Atom  16C    basis set group =>   1
Atom  17C    basis set group =>   1
Atom  18C    basis set group =>   1
Atom  19C    basis set group =>   1
Atom  20C    basis set group =>   1
Atom  21C    basis set group =>   1
Atom  22C    basis set group =>   1
Atom  23C    basis set group =>   1
Atom  24C    basis set group =>   1
Atom  25C    basis set group =>   1
Atom  26C    basis set group =>   1
Atom  27C    basis set group =>   1
Atom  28C    basis set group =>   1
Atom  29C    basis set group =>   1
Atom  30C    basis set group =>   1
Atom  31C    basis set group =>   1
Atom  32C    basis set group =>   1
Atom  33C    basis set group =>   1
Atom  34C    basis set group =>   1
Atom  35C    basis set group =>   1
Atom  36C    basis set group =>   1
Atom  37C    basis set group =>   1
Atom  38C    basis set group =>   1
Atom  39C    basis set group =>   1
Atom  40C    basis set group =>   1
Atom  41C    basis set group =>   1
Atom  42C    basis set group =>   1
Atom  43C    basis set group =>   1
Atom  44C    basis set group =>   1
Atom  45C    basis set group =>   1
Atom  46C    basis set group =>   1
Atom  47C    basis set group =>   1
Atom  48C    basis set group =>   1
Atom  49C    basis set group =>   1
Atom  50C    basis set group =>   1
Atom  51C    basis set group =>   1
Atom  52H    basis set group =>   3
Atom  53H    basis set group =>   3
Atom  54H    basis set group =>   3
Atom  55H    basis set group =>   3
Atom  56H    basis set group =>   3
Atom  57H    basis set group =>   3
Atom  58H    basis set group =>   3
Atom  59H    basis set group =>   3
Atom  60H    basis set group =>   3
Atom  61H    basis set group =>   3
Atom  62H    basis set group =>   3
Atom  63H    basis set group =>   3
Atom  64H    basis set group =>   3
Atom  65H    basis set group =>   3
Atom  66H    basis set group =>   3
Atom  67H    basis set group =>   3
Atom  68H    basis set group =>   3
Atom  69H    basis set group =>   3
Atom  70H    basis set group =>   3
Atom  71H    basis set group =>   3
Atom  72H    basis set group =>   3
Atom  73H    basis set group =>   3
Atom  74H    basis set group =>   3
Atom  75H    basis set group =>   3
Atom  76H    basis set group =>   3
Atom  77H    basis set group =>   3
Atom  78H    basis set group =>   3
Atom  79H    basis set group =>   3
Atom  80H    basis set group =>   3
Atom  81H    basis set group =>   3
Atom  82H    basis set group =>   3
Atom  83H    basis set group =>   3
Atom  84H    basis set group =>   3
Atom  85H    basis set group =>   3
Atom  86H    basis set group =>   3
Atom  87H    basis set group =>   3
Atom  88H    basis set group =>   3
Atom  89H    basis set group =>   3


           ************************************************************
           *        Program running with 16 parallel MPI-processes    *
           *              working on a common directory               *
           ************************************************************
------------------------------------------------------------------------------
                           ORCA GTO INTEGRAL CALCULATION
------------------------------------------------------------------------------
------------------------------------------------------------------------------
                   ___                                                        
                  /   \      - P O W E R E D   B Y -                         
                 /     \                                                     
                 |  |  |   _    _      __       _____    __    __             
                 |  |  |  | |  | |    /  \     |  _  \  |  |  /  |          
                  \  \/   | |  | |   /    \    | | | |  |  | /  /          
                 / \  \   | |__| |  /  /\  \   | |_| |  |  |/  /          
                |  |  |   |  __  | /  /__\  \  |    /   |      \           
                |  |  |   | |  | | |   __   |  |    \   |  |\   \          
                \     /   | |  | | |  |  |  |  | |\  \  |  | \   \       
                 \___/    |_|  |_| |__|  |__|  |_| \__\ |__|  \__/        
                                                                              
                      - O R C A' S   B I G   F R I E N D -                    
                                      &                                       
                       - I N T E G R A L  F E E D E R -                       
                                                                              
 v1 FN, 2020, v2 2021                                                         
------------------------------------------------------------------------------


Reading SHARK input file /scratch/allen/tmpyp4_amber_gaff2/conf1/conf1/Conf150.orca.SHARKINP.tmp ... ok
----------------------
SHARK INTEGRAL PACKAGE
----------------------

Number of atoms                             ...     90
Number of basis functions                   ...   1230
Number of shells                            ...    738
Maximum angular momentum                    ...      2
Integral batch strategy                     ... SHARK/LIBINT Hybrid
RI-J (if used) integral strategy            ... SPLIT-RIJ (Revised 2003 algorithm where possible)
Printlevel                                  ...      1
Contraction scheme used                     ... PARTIAL GENERAL contraction
Coulomb Range Separation                    ... NOT USED
Exchange Range Separation                   ... NOT USED
Finite Nucleus Model                        ... NOT USED
Auxiliary Coulomb fitting basis             ... NOT available
Auxiliary J/K fitting basis                 ... NOT available
Auxiliary Correlation fitting basis         ... NOT available
Auxiliary 'external' fitting basis          ... NOT available
Integral threshold                          ...     2.500000e-11
Primitive cut-off                           ...     2.500000e-12
Primitive pair pre-selection threshold      ...     2.500000e-12

Calculating pre-screening integrals         ... done (  0.1 sec) Dimension = 738
Calculating pre-screening integrals (ORCA)  ... done (  0.3 sec) Dimension = 426
Organizing shell pair data                  ... done (  0.7 sec)
Shell pair information
Total number of shell pairs                 ...    272691
Shell pairs after pre-screening             ...     71648
Total number of primitive shell pairs       ...    422091
Primitive shell pairs kept                  ...     92496
          la=0 lb=0:  29409 shell pairs
          la=1 lb=0:  26002 shell pairs
          la=1 lb=1:   4704 shell pairs
          la=2 lb=0:   7882 shell pairs
          la=2 lb=1:   3122 shell pairs
          la=2 lb=2:    529 shell pairs

Calculating one electron integrals          ... done (  0.2 sec)
Calculating Nuclear repulsion               ... done (  0.0 sec) ENN=   6230.882809760987 Eh

SHARK setup successfully completed in   3.0 seconds

Maximum memory used throughout the entire GTOINT-calculation: 99.0 MB


           ************************************************************
           *        Program running with 16 parallel MPI-processes    *
           *              working on a common directory               *
           ************************************************************
-------------------------------------------------------------------------------
                                 ORCA SCF
-------------------------------------------------------------------------------

------------
SCF SETTINGS
------------
Hamiltonian:
 Ab initio Hamiltonian  Method          .... Hartree-Fock(GTOs)


General Settings:
 Integral files         IntName         .... /scratch/allen/tmpyp4_amber_gaff2/conf1/conf1/Conf150.orca
 Hartree-Fock type      HFTyp           .... RHF
 Total Charge           Charge          ....    0
 Multiplicity           Mult            ....    1
 Number of Electrons    NEL             ....  358
 Basis Dimension        Dim             ....  918
 Nuclear Repulsion      ENuc            ....   6230.8828097610 Eh

Convergence Acceleration:
 DIIS                   CNVDIIS         .... on
   Start iteration      DIISMaxIt       ....    12
   Startup error        DIISStart       ....  0.200000
   # of expansion vecs  DIISMaxEq       ....     5
   Bias factor          DIISBfac        ....   1.050
   Max. coefficient     DIISMaxC        ....  10.000
 Trust-Rad. Augm. Hess. CNVTRAH         .... auto
   Auto Start mean grad. ratio tolernc. ....  1.125000
   Auto Start start iteration           ....    20
   Auto Start num. interpolation iter.  ....    10
   Max. Number of Micro iterations      ....    16
   Max. Number of Macro iterations      .... Maxiter - #DIIS iter
   Number of Davidson start vectors     ....     2
   Converg. threshold I  (grad. norm)   ....   1.000e-05
   Converg. threshold II (energy diff.) ....   1.000e-08
   Grad. Scal. Fac. for Micro threshold ....   0.100
   Minimum threshold for Micro iter.    ....   0.010
   NR start threshold (gradient norm)   ....   0.001
   Initial trust radius                 ....   0.400
   Minimum AH scaling param. (alpha)    ....   1.000
   Maximum AH scaling param. (alpha)    .... 1000.000
   Orbital update algorithm             .... Taylor
   White noise on init. David. guess    .... on
   Maximum white noise                  ....   0.010
   Quad. conv. algorithm                .... NR
 SOSCF                  CNVSOSCF        .... on
   Start iteration      SOSCFMaxIt      ....   150
   Startup grad/error   SOSCFStart      ....  0.003300
 Level Shifting         CNVShift        .... on
   Level shift para.    LevelShift      ....    0.2500
   Turn off err/grad.   ShiftErr        ....    0.0010
 Zerner damping         CNVZerner       .... off
 Static damping         CNVDamp         .... on
   Fraction old density DampFac         ....    0.7000
   Max. Damping (<1)    DampMax         ....    0.9800
   Min. Damping (>=0)   DampMin         ....    0.0000
   Turn off err/grad.   DampErr         ....    0.1000
 Fernandez-Rico         CNVRico         .... off

SCF Procedure:
 Maximum # iterations   MaxIter         ....   125
 SCF integral mode      SCFMode         .... Direct
   Integral package                     .... SHARK and LIBINT hybrid scheme
 Reset frequency        DirectResetFreq ....    20
 Integral Threshold     Thresh          ....  2.500e-11 Eh
 Primitive CutOff       TCut            ....  2.500e-12 Eh

Convergence Tolerance:
 Convergence Check Mode ConvCheckMode   .... Total+1el-Energy
 Convergence forced     ConvForced      .... 1
 Energy Change          TolE            ....  1.000e-08 Eh
 1-El. energy change                    ....  1.000e-05 Eh
 Orbital Gradient       TolG            ....  1.000e-05
 Orbital Rotation angle TolX            ....  1.000e-05
 DIIS Error             TolErr          ....  5.000e-07


Diagonalization of the overlap matrix:
Smallest eigenvalue                        ... 2.202e-04
Time for diagonalization                   ...    0.531 sec
Threshold for overlap eigenvalues          ... 1.000e-08
Number of eigenvalues below threshold      ... 0
Time for construction of square roots      ...    0.269 sec
Total time needed                          ...    0.809 sec

Time for model grid setup =    1.299 sec

------------------------------
INITIAL GUESS: MODEL POTENTIAL
------------------------------
Loading Hartree-Fock densities                     ... done
Calculating cut-offs                               ... done
Initializing the effective Hamiltonian             ... done
Setting up the integral package (SHARK)            ... done
Starting the Coulomb interaction                   ... done (   1.4 sec)
Reading the grid                                   ... done
Mapping shells                                     ... done
Starting the XC term evaluation                    ... done (   0.2 sec)
Transforming the Hamiltonian                       ... done (   0.3 sec)
Diagonalizing the Hamiltonian                      ... done (   0.4 sec)
Back transforming the eigenvectors                 ... done (   0.1 sec)
Now organizing SCF variables                       ... done
                      ------------------
                      INITIAL GUESS DONE (   3.8 sec)
                      ------------------
--------------
SCF ITERATIONS
--------------
ITER       Energy         Delta-E        Max-DP      RMS-DP      [F,P]     Damp
               ***  Starting incremental Fock matrix formation  ***
  0  -2121.6930778579   0.000000000000 0.07785232  0.00121531  0.2320206 0.7000
  1  -2122.3466953042  -0.653617446284 0.05852500  0.00098805  0.1437702 0.7000
                               ***Turning on DIIS***
  2  -2122.7532489459  -0.406553641684 0.13609766  0.00224476  0.0802542 0.0000
  3  -2117.9536368822   4.799612063716 0.03126770  0.00066800  0.0438394 0.0000
  4  -2123.4315915363  -5.477954654147 0.01021422  0.00022458  0.0080689 0.0000
  5  -2123.5867713273  -0.155179790974 0.00522774  0.00013201  0.0049775 0.0000
  6  -2123.5704116234   0.016359703928 0.00362729  0.00008488  0.0019757 0.0000
  7  -2123.6676644059  -0.097252782496 0.00308648  0.00006683  0.0015823 0.0000
  8  -2123.6782241908  -0.010559784952 0.00325961  0.00006312  0.0014716 0.0000
  9  -2123.6480158116   0.030208379212 0.00260352  0.00004419  0.0011768 0.0000
 10  -2123.6573710780  -0.009355266415 0.00525251  0.00009207  0.0009103 0.0000
                      *** Initiating the SOSCF procedure ***
                           *** Shutting down DIIS ***
                      *** Re-Reading the Fockian *** 
                      *** Removing any level shift *** 
ITER      Energy       Delta-E        Grad      Rot      Max-DP    RMS-DP
 11  -2123.54857244   0.1087986396  0.000185  0.000185  0.000246  0.000005
               *** Restarting incremental Fock matrix formation ***
 12  -2123.61452334  -0.0659508993  0.000846  0.006101  0.001388  0.000034
 13  -2123.61462574  -0.0001024057  0.001051  0.031096  0.006556  0.000135
 14  -2123.61480338  -0.0001776407  0.000341  0.001942  0.000633  0.000012
 15  -2123.61481898  -0.0000155997  0.000163  0.002652  0.000718  0.000017
 16  -2123.61482807  -0.0000090832  0.000160  0.002848  0.000470  0.000010
 17  -2123.61483092  -0.0000028485  0.000124  0.001916  0.000310  0.000007
 18  -2123.61483241  -0.0000014963  0.000068  0.000702  0.000282  0.000004
 19  -2123.61483307  -0.0000006575  0.000042  0.000569  0.000143  0.000003
 20  -2123.61483329  -0.0000002231  0.000021  0.000377  0.000091  0.000002
 21  -2123.61483339  -0.0000001027  0.000021  0.000333  0.000099  0.000002
 22  -2123.61483346  -0.0000000695  0.000014  0.000316  0.000079  0.000001
 23  -2123.61483351  -0.0000000429  0.000007  0.000221  0.000049  0.000001
 24  -2123.61483353  -0.0000000247  0.000004  0.000171  0.000033  0.000001
 25  -2123.61483355  -0.0000000135  0.000005  0.000128  0.000020  0.000000
 26  -2123.61483355  -0.0000000089  0.000004  0.000147  0.000022  0.000000
 27  -2123.61483356  -0.0000000073  0.000003  0.000139  0.000021  0.000000
                  ***Gradient check signals convergence***
              ***Rediagonalizing the Fockian in SOSCF/NRSCF***

               *****************************************************
               *                     SUCCESS                       *
               *           SCF CONVERGED AFTER  28 CYCLES          *
               *****************************************************


----------------
TOTAL SCF ENERGY
----------------

Total Energy       :        -2123.61483356 Eh          -57786.49743 eV

Components:
Nuclear Repulsion  :         6230.88280976 Eh          169550.94106 eV
Electronic Energy  :        -8354.49764332 Eh         -227337.43849 eV
One Electron Energy:       -15302.56433363 Eh         -416403.94509 eV
Two Electron Energy:         6948.06669031 Eh          189066.50660 eV

Virial components:
Potential Energy   :        -4245.76858497 Eh         -115533.23679 eV
Kinetic Energy     :         2122.15375141 Eh           57746.73936 eV
Virial Ratio       :            2.00068849


---------------
SCF CONVERGENCE
---------------

  Last Energy change         ...   -1.7935e-09  Tolerance :   1.0000e-08
  Last MAX-Density change    ...    1.3061e-05  Tolerance :   1.0000e-07
  Last RMS-Density change    ...    3.1910e-07  Tolerance :   5.0000e-09
  Last Orbital Gradient      ...    2.0196e-06  Tolerance :   1.0000e-05
  Last Orbital Rotation      ...    1.0213e-04  Tolerance :   1.0000e-05

             **** THE GBW FILE WAS UPDATED (/scratch/allen/tmpyp4_amber_gaff2/conf1/conf1/Conf150.orca.gbw) ****
             **** DENSITY /scratch/allen/tmpyp4_amber_gaff2/conf1/conf1/Conf150.orca.scfp WAS UPDATED ****
             **** ENERGY FILE WAS UPDATED (/scratch/allen/tmpyp4_amber_gaff2/conf1/conf1/Conf150.orca.en.tmp) ****
             **** THE GBW FILE WAS UPDATED (/scratch/allen/tmpyp4_amber_gaff2/conf1/conf1/Conf150.orca.gbw) ****
             **** DENSITY /scratch/allen/tmpyp4_amber_gaff2/conf1/conf1/Conf150.orca.scfp WAS UPDATED ****
----------------
ORBITAL ENERGIES
----------------

  NO   OCC          E(Eh)            E(eV) 
   0   2.0000     -15.672336      -426.4659 
   1   2.0000     -15.637450      -425.5166 
   2   2.0000     -15.628718      -425.2790 
   3   2.0000     -15.590633      -424.2427 
   4   2.0000     -15.525132      -422.4603 
   5   2.0000     -15.515866      -422.2082 
   6   2.0000     -15.451687      -420.4618 
   7   2.0000     -15.442768      -420.2191 
   8   2.0000     -11.323687      -308.1332 
   9   2.0000     -11.323328      -308.1234 
  10   2.0000     -11.321592      -308.0762 
  11   2.0000     -11.301490      -307.5292 
  12   2.0000     -11.296363      -307.3897 
  13   2.0000     -11.295499      -307.3661 
  14   2.0000     -11.290121      -307.2198 
  15   2.0000     -11.288122      -307.1654 
  16   2.0000     -11.284215      -307.0591 
  17   2.0000     -11.275073      -306.8103 
  18   2.0000     -11.273186      -306.7590 
  19   2.0000     -11.258175      -306.3505 
  20   2.0000     -11.257232      -306.3248 
  21   2.0000     -11.256001      -306.2914 
  22   2.0000     -11.254956      -306.2629 
  23   2.0000     -11.241101      -305.8859 
  24   2.0000     -11.233802      -305.6873 
  25   2.0000     -11.233536      -305.6801 
  26   2.0000     -11.233220      -305.6715 
  27   2.0000     -11.227392      -305.5129 
  28   2.0000     -11.227086      -305.5045 
  29   2.0000     -11.210572      -305.0552 
  30   2.0000     -11.209123      -305.0158 
  31   2.0000     -11.200334      -304.7766 
  32   2.0000     -11.193548      -304.5919 
  33   2.0000     -11.193068      -304.5789 
  34   2.0000     -11.189558      -304.4834 
  35   2.0000     -11.188904      -304.4656 
  36   2.0000     -11.188306      -304.4493 
  37   2.0000     -11.184332      -304.3411 
  38   2.0000     -11.183303      -304.3131 
  39   2.0000     -11.174556      -304.0751 
  40   2.0000     -11.172971      -304.0320 
  41   2.0000     -11.168559      -303.9120 
  42   2.0000     -11.168484      -303.9099 
  43   2.0000     -11.161902      -303.7308 
  44   2.0000     -11.160444      -303.6911 
  45   2.0000     -11.158496      -303.6381 
  46   2.0000     -11.157640      -303.6148 
  47   2.0000     -11.152670      -303.4796 
  48   2.0000     -11.147397      -303.3361 
  49   2.0000     -11.140131      -303.1384 
  50   2.0000     -11.133916      -302.9693 
  51   2.0000     -11.125722      -302.7463 
  52   2.0000      -1.354039       -36.8453 
  53   2.0000      -1.324234       -36.0342 
  54   2.0000      -1.316905       -35.8348 
  55   2.0000      -1.284775       -34.9605 
  56   2.0000      -1.225809       -33.3560 
  57   2.0000      -1.210228       -32.9320 
  58   2.0000      -1.170368       -31.8473 
  59   2.0000      -1.153233       -31.3811 
  60   2.0000      -1.138307       -30.9749 
  61   2.0000      -1.112735       -30.2791 
  62   2.0000      -1.106688       -30.1145 
  63   2.0000      -1.081026       -29.4162 
  64   2.0000      -1.076199       -29.2849 
  65   2.0000      -1.048302       -28.5258 
  66   2.0000      -1.041684       -28.3457 
  67   2.0000      -1.037697       -28.2372 
  68   2.0000      -1.015033       -27.6204 
  69   2.0000      -1.013468       -27.5779 
  70   2.0000      -1.009331       -27.4653 
  71   2.0000      -0.993212       -27.0267 
  72   2.0000      -0.986881       -26.8544 
  73   2.0000      -0.979729       -26.6598 
  74   2.0000      -0.972002       -26.4495 
  75   2.0000      -0.960015       -26.1233 
  76   2.0000      -0.952453       -25.9176 
  77   2.0000      -0.946496       -25.7555 
  78   2.0000      -0.935236       -25.4491 
  79   2.0000      -0.919465       -25.0199 
  80   2.0000      -0.905342       -24.6356 
  81   2.0000      -0.893370       -24.3098 
  82   2.0000      -0.875646       -23.8275 
  83   2.0000      -0.872119       -23.7316 
  84   2.0000      -0.867396       -23.6030 
  85   2.0000      -0.855954       -23.2917 
  86   2.0000      -0.839771       -22.8513 
  87   2.0000      -0.837041       -22.7770 
  88   2.0000      -0.823345       -22.4043 
  89   2.0000      -0.798089       -21.7171 
  90   2.0000      -0.791934       -21.5496 
  91   2.0000      -0.749487       -20.3946 
  92   2.0000      -0.740471       -20.1493 
  93   2.0000      -0.733213       -19.9517 
  94   2.0000      -0.724336       -19.7102 
  95   2.0000      -0.720767       -19.6131 
  96   2.0000      -0.715283       -19.4638 
  97   2.0000      -0.709816       -19.3151 
  98   2.0000      -0.705139       -19.1878 
  99   2.0000      -0.696631       -18.9563 
 100   2.0000      -0.696046       -18.9404 
 101   2.0000      -0.683534       -18.5999 
 102   2.0000      -0.679875       -18.5003 
 103   2.0000      -0.679280       -18.4841 
 104   2.0000      -0.675792       -18.3892 
 105   2.0000      -0.671398       -18.2697 
 106   2.0000      -0.668217       -18.1831 
 107   2.0000      -0.661789       -18.0082 
 108   2.0000      -0.655547       -17.8383 
 109   2.0000      -0.653756       -17.7896 
 110   2.0000      -0.649072       -17.6621 
 111   2.0000      -0.642904       -17.4943 
 112   2.0000      -0.641111       -17.4455 
 113   2.0000      -0.640579       -17.4310 
 114   2.0000      -0.636960       -17.3326 
 115   2.0000      -0.625863       -17.0306 
 116   2.0000      -0.624386       -16.9904 
 117   2.0000      -0.616761       -16.7829 
 118   2.0000      -0.615024       -16.7356 
 119   2.0000      -0.613095       -16.6832 
 120   2.0000      -0.609079       -16.5739 
 121   2.0000      -0.606653       -16.5079 
 122   2.0000      -0.599514       -16.3136 
 123   2.0000      -0.586569       -15.9613 
 124   2.0000      -0.583476       -15.8772 
 125   2.0000      -0.580912       -15.8074 
 126   2.0000      -0.578802       -15.7500 
 127   2.0000      -0.577416       -15.7123 
 128   2.0000      -0.566371       -15.4117 
 129   2.0000      -0.558732       -15.2039 
 130   2.0000      -0.551019       -14.9940 
 131   2.0000      -0.547753       -14.9051 
 132   2.0000      -0.543578       -14.7915 
 133   2.0000      -0.540127       -14.6976 
 134   2.0000      -0.539577       -14.6826 
 135   2.0000      -0.534194       -14.5362 
 136   2.0000      -0.526497       -14.3267 
 137   2.0000      -0.522935       -14.2298 
 138   2.0000      -0.518297       -14.1036 
 139   2.0000      -0.513048       -13.9608 
 140   2.0000      -0.512634       -13.9495 
 141   2.0000      -0.510338       -13.8870 
 142   2.0000      -0.510223       -13.8839 
 143   2.0000      -0.503580       -13.7031 
 144   2.0000      -0.500391       -13.6163 
 145   2.0000      -0.496501       -13.5105 
 146   2.0000      -0.494167       -13.4470 
 147   2.0000      -0.483940       -13.1687 
 148   2.0000      -0.479358       -13.0440 
 149   2.0000      -0.467124       -12.7111 
 150   2.0000      -0.465719       -12.6729 
 151   2.0000      -0.457218       -12.4415 
 152   2.0000      -0.449710       -12.2372 
 153   2.0000      -0.446215       -12.1421 
 154   2.0000      -0.442461       -12.0400 
 155   2.0000      -0.435480       -11.8500 
 156   2.0000      -0.429377       -11.6839 
 157   2.0000      -0.422937       -11.5087 
 158   2.0000      -0.404876       -11.0172 
 159   2.0000      -0.386772       -10.5246 
 160   2.0000      -0.382750       -10.4151 
 161   2.0000      -0.378439       -10.2978 
 162   2.0000      -0.371112       -10.0985 
 163   2.0000      -0.359060        -9.7705 
 164   2.0000      -0.353646        -9.6232 
 165   2.0000      -0.339507        -9.2384 
 166   2.0000      -0.337702        -9.1893 
 167   2.0000      -0.327312        -8.9066 
 168   2.0000      -0.325269        -8.8510 
 169   2.0000      -0.304732        -8.2922 
 170   2.0000      -0.299539        -8.1509 
 171   2.0000      -0.285854        -7.7785 
 172   2.0000      -0.282167        -7.6781 
 173   2.0000      -0.261634        -7.1194 
 174   2.0000      -0.243763        -6.6331 
 175   2.0000      -0.189932        -5.1683 
 176   2.0000      -0.180282        -4.9057 
 177   2.0000      -0.075508        -2.0547 
 178   2.0000      -0.058291        -1.5862 
 179   0.0000       0.028456         0.7743 
 180   0.0000       0.066365         1.8059 
 181   0.0000       0.091517         2.4903 
 182   0.0000       0.109305         2.9743 
 183   0.0000       0.111195         3.0258 
 184   0.0000       0.134816         3.6685 
 185   0.0000       0.141312         3.8453 
 186   0.0000       0.144808         3.9404 
 187   0.0000       0.163135         4.4391 
 188   0.0000       0.164098         4.4653 
 189   0.0000       0.167372         4.5544 
 190   0.0000       0.169920         4.6238 
 191   0.0000       0.184275         5.0144 
 192   0.0000       0.186710         5.0806 
 193   0.0000       0.187700         5.1076 
 194   0.0000       0.202921         5.5218 
 195   0.0000       0.206272         5.6130 
 196   0.0000       0.207397         5.6436 
 197   0.0000       0.210466         5.7271 
 198   0.0000       0.220135         5.9902 
 199   0.0000       0.226508         6.1636 
 200   0.0000       0.231597         6.3021 
 201   0.0000       0.236812         6.4440 
 202   0.0000       0.238262         6.4834 
 203   0.0000       0.241208         6.5636 
 204   0.0000       0.248337         6.7576 
 205   0.0000       0.255129         6.9424 
 206   0.0000       0.257718         7.0129 
 207   0.0000       0.257833         7.0160 
 208   0.0000       0.260075         7.0770 
 209   0.0000       0.261447         7.1143 
 210   0.0000       0.263869         7.1802 
 211   0.0000       0.268919         7.3177 
 212   0.0000       0.271303         7.3825 
 213   0.0000       0.271974         7.4008 
 214   0.0000       0.273041         7.4298 
 215   0.0000       0.276686         7.5290 
 216   0.0000       0.278607         7.5813 
 217   0.0000       0.280656         7.6370 
 218   0.0000       0.285223         7.7613 
 219   0.0000       0.288735         7.8569 
 220   0.0000       0.289156         7.8683 
 221   0.0000       0.293026         7.9736 
 222   0.0000       0.294118         8.0034 
 223   0.0000       0.295371         8.0375 
 224   0.0000       0.299036         8.1372 
 225   0.0000       0.299912         8.1610 
 226   0.0000       0.306101         8.3294 
 227   0.0000       0.308479         8.3941 
 228   0.0000       0.309805         8.4302 
 229   0.0000       0.323087         8.7916 
 230   0.0000       0.325887         8.8678 
 231   0.0000       0.330983         9.0065 
 232   0.0000       0.333375         9.0716 
 233   0.0000       0.337336         9.1794 
 234   0.0000       0.346938         9.4407 
 235   0.0000       0.354431         9.6446 
 236   0.0000       0.364408         9.9160 
 237   0.0000       0.377986        10.2855 
 238   0.0000       0.393558        10.7093 
 239   0.0000       0.396606        10.7922 
 240   0.0000       0.400698        10.9035 
 241   0.0000       0.411095        11.1865 
 242   0.0000       0.415778        11.3139 
 243   0.0000       0.419510        11.4155 
 244   0.0000       0.427518        11.6333 
 245   0.0000       0.434591        11.8258 
 246   0.0000       0.437239        11.8979 
 247   0.0000       0.438661        11.9366 
 248   0.0000       0.443347        12.0641 
 249   0.0000       0.449733        12.2378 
 250   0.0000       0.453638        12.3441 
 251   0.0000       0.459318        12.4987 
 252   0.0000       0.466882        12.7045 
 253   0.0000       0.469502        12.7758 
 254   0.0000       0.470981        12.8160 
 255   0.0000       0.474654        12.9160 
 256   0.0000       0.478360        13.0168 
 257   0.0000       0.482118        13.1191 
 258   0.0000       0.486565        13.2401 
 259   0.0000       0.498005        13.5514 
 260   0.0000       0.502760        13.6808 
 261   0.0000       0.504667        13.7327 
 262   0.0000       0.506798        13.7907 
 263   0.0000       0.509058        13.8522 
 264   0.0000       0.514279        13.9942 
 265   0.0000       0.518224        14.1016 
 266   0.0000       0.524383        14.2692 
 267   0.0000       0.528668        14.3858 
 268   0.0000       0.532198        14.4818 
 269   0.0000       0.536617        14.6021 
 270   0.0000       0.539973        14.6934 
 271   0.0000       0.548343        14.9212 
 272   0.0000       0.552647        15.0383 
 273   0.0000       0.558002        15.1840 
 274   0.0000       0.561752        15.2861 
 275   0.0000       0.564039        15.3483 
 276   0.0000       0.570014        15.5109 
 277   0.0000       0.571426        15.5493 
 278   0.0000       0.577870        15.7246 
 279   0.0000       0.587207        15.9787 
 280   0.0000       0.589022        16.0281 
 281   0.0000       0.591712        16.1013 
 282   0.0000       0.592675        16.1275 
 283   0.0000       0.595850        16.2139 
 284   0.0000       0.597147        16.2492 
 285   0.0000       0.598705        16.2916 
 286   0.0000       0.608274        16.5520 
 287   0.0000       0.612117        16.6566 
 288   0.0000       0.617446        16.8016 
 289   0.0000       0.622968        16.9518 
 290   0.0000       0.627450        17.0738 
 291   0.0000       0.630204        17.1487 
 292   0.0000       0.634090        17.2545 
 293   0.0000       0.636253        17.3133 
 294   0.0000       0.645882        17.5753 
 295   0.0000       0.649506        17.6740 
 296   0.0000       0.653659        17.7870 
 297   0.0000       0.656435        17.8625 
 298   0.0000       0.664329        18.0773 
 299   0.0000       0.668056        18.1787 
 300   0.0000       0.669824        18.2268 
 301   0.0000       0.674385        18.3510 
 302   0.0000       0.676624        18.4119 
 303   0.0000       0.678917        18.4743 
 304   0.0000       0.681658        18.5489 
 305   0.0000       0.686372        18.6771 
 306   0.0000       0.688416        18.7328 
 307   0.0000       0.691008        18.8033 
 308   0.0000       0.695533        18.9264 
 309   0.0000       0.697651        18.9840 
 310   0.0000       0.702146        19.1064 
 311   0.0000       0.704075        19.1589 
 312   0.0000       0.707816        19.2606 
 313   0.0000       0.709825        19.3153 
 314   0.0000       0.711105        19.3502 
 315   0.0000       0.714947        19.4547 
 316   0.0000       0.716820        19.5057 
 317   0.0000       0.718777        19.5589 
 318   0.0000       0.721580        19.6352 
 319   0.0000       0.724624        19.7180 
 320   0.0000       0.725925        19.7534 
 321   0.0000       0.731929        19.9168 
 322   0.0000       0.732237        19.9252 
 323   0.0000       0.734221        19.9792 
 324   0.0000       0.736998        20.0547 
 325   0.0000       0.740020        20.1370 
 326   0.0000       0.744985        20.2721 
 327   0.0000       0.745522        20.2867 
 328   0.0000       0.749654        20.3991 
 329   0.0000       0.751726        20.4555 
 330   0.0000       0.752908        20.4877 
 331   0.0000       0.756401        20.5827 
 332   0.0000       0.760437        20.6925 
 333   0.0000       0.761709        20.7272 
 334   0.0000       0.767740        20.8913 
 335   0.0000       0.773071        21.0363 
 336   0.0000       0.776523        21.1303 
 337   0.0000       0.782157        21.2836 
 338   0.0000       0.783453        21.3188 
 339   0.0000       0.788455        21.4549 
 340   0.0000       0.792913        21.5763 
 341   0.0000       0.794895        21.6302 
 342   0.0000       0.796272        21.6677 
 343   0.0000       0.802045        21.8248 
 344   0.0000       0.803874        21.8745 
 345   0.0000       0.805853        21.9284 
 346   0.0000       0.807863        21.9831 
 347   0.0000       0.811551        22.0834 
 348   0.0000       0.814836        22.1728 
 349   0.0000       0.817591        22.2478 
 350   0.0000       0.819245        22.2928 
 351   0.0000       0.820958        22.3394 
 352   0.0000       0.822229        22.3740 
 353   0.0000       0.823630        22.4121 
 354   0.0000       0.830662        22.6035 
 355   0.0000       0.832343        22.6492 
 356   0.0000       0.834013        22.6946 
 357   0.0000       0.835600        22.7378 
 358   0.0000       0.836483        22.7619 
 359   0.0000       0.838968        22.8295 
 360   0.0000       0.842004        22.9121 
 361   0.0000       0.843607        22.9557 
 362   0.0000       0.844373        22.9766 
 363   0.0000       0.844706        22.9856 
 364   0.0000       0.849244        23.1091 
 365   0.0000       0.854084        23.2408 
 366   0.0000       0.857342        23.3295 
 367   0.0000       0.861249        23.4358 
 368   0.0000       0.862740        23.4764 
 369   0.0000       0.865140        23.5416 
 370   0.0000       0.870254        23.6808 
 371   0.0000       0.872368        23.7383 
 372   0.0000       0.874680        23.8013 
 373   0.0000       0.880446        23.9581 
 374   0.0000       0.880698        23.9650 
 375   0.0000       0.881648        23.9908 
 376   0.0000       0.885834        24.1048 
 377   0.0000       0.888352        24.1733 
 378   0.0000       0.892284        24.2803 
 379   0.0000       0.893658        24.3177 
 380   0.0000       0.895768        24.3751 
 381   0.0000       0.899231        24.4693 
 382   0.0000       0.901344        24.5268 
 383   0.0000       0.902068        24.5465 
 384   0.0000       0.903522        24.5861 
 385   0.0000       0.905956        24.6523 
 386   0.0000       0.906632        24.6707 
 387   0.0000       0.909182        24.7401 
 388   0.0000       0.911595        24.8058 
 389   0.0000       0.915661        24.9164 
 390   0.0000       0.919872        25.0310 
 391   0.0000       0.922795        25.1105 
 392   0.0000       0.925703        25.1897 
 393   0.0000       0.927401        25.2359 
 394   0.0000       0.928195        25.2575 
 395   0.0000       0.929547        25.2943 
 396   0.0000       0.931512        25.3477 
 397   0.0000       0.932603        25.3774 
 398   0.0000       0.941675        25.6243 
 399   0.0000       0.942749        25.6535 
 400   0.0000       0.945439        25.7267 
 401   0.0000       0.950508        25.8646 
 402   0.0000       0.953734        25.9524 
 403   0.0000       0.953749        25.9528 
 404   0.0000       0.960591        26.1390 
 405   0.0000       0.963099        26.2073 
 406   0.0000       0.967261        26.3205 
 407   0.0000       0.967756        26.3340 
 408   0.0000       0.969640        26.3852 
 409   0.0000       0.978541        26.6274 
 410   0.0000       0.980831        26.6898 
 411   0.0000       0.984463        26.7886 
 412   0.0000       0.990421        26.9507 
 413   0.0000       0.994159        27.0524 
 414   0.0000       0.998701        27.1760 
 415   0.0000       1.005077        27.3495 
 416   0.0000       1.006029        27.3754 
 417   0.0000       1.008690        27.4478 
 418   0.0000       1.013521        27.5793 
 419   0.0000       1.021404        27.7938 
 420   0.0000       1.026852        27.9421 
 421   0.0000       1.029151        28.0046 
 422   0.0000       1.040925        28.3250 
 423   0.0000       1.043966        28.4077 
 424   0.0000       1.049318        28.5534 
 425   0.0000       1.057461        28.7750 
 426   0.0000       1.060062        28.8458 
 427   0.0000       1.064991        28.9799 
 428   0.0000       1.070933        29.1416 
 429   0.0000       1.076772        29.3005 
 430   0.0000       1.079038        29.3621 
 431   0.0000       1.083750        29.4903 
 432   0.0000       1.086521        29.5657 
 433   0.0000       1.091102        29.6904 
 434   0.0000       1.096812        29.8458 
 435   0.0000       1.104786        30.0627 
 436   0.0000       1.106397        30.1066 
 437   0.0000       1.111178        30.2367 
 438   0.0000       1.116725        30.3876 
 439   0.0000       1.118410        30.4335 
 440   0.0000       1.120696        30.4957 
 441   0.0000       1.122592        30.5473 
 442   0.0000       1.125456        30.6252 
 443   0.0000       1.128813        30.7166 
 444   0.0000       1.130921        30.7739 
 445   0.0000       1.133758        30.8511 
 446   0.0000       1.141130        31.0517 
 447   0.0000       1.144298        31.1379 
 448   0.0000       1.148548        31.2536 
 449   0.0000       1.150299        31.3012 
 450   0.0000       1.152036        31.3485 
 451   0.0000       1.154505        31.4157 
 452   0.0000       1.159726        31.5577 
 453   0.0000       1.163958        31.6729 
 454   0.0000       1.165843        31.7242 
 455   0.0000       1.170973        31.8638 
 456   0.0000       1.172623        31.9087 
 457   0.0000       1.177935        32.0532 
 458   0.0000       1.183228        32.1973 
 459   0.0000       1.186177        32.2775 
 460   0.0000       1.191031        32.4096 
 461   0.0000       1.197259        32.5791 
 462   0.0000       1.201804        32.7027 
 463   0.0000       1.202793        32.7296 
 464   0.0000       1.205963        32.8159 
 465   0.0000       1.208132        32.8749 
 466   0.0000       1.211852        32.9762 
 467   0.0000       1.216291        33.0969 
 468   0.0000       1.219843        33.1936 
 469   0.0000       1.226803        33.3830 
 470   0.0000       1.228569        33.4311 
 471   0.0000       1.232790        33.5459 
 472   0.0000       1.233925        33.5768 
 473   0.0000       1.235488        33.6193 
 474   0.0000       1.242249        33.8033 
 475   0.0000       1.243739        33.8439 
 476   0.0000       1.248404        33.9708 
 477   0.0000       1.251463        34.0540 
 478   0.0000       1.253780        34.1171 
 479   0.0000       1.254607        34.1396 
 480   0.0000       1.258428        34.2436 
 481   0.0000       1.262006        34.3409 
 482   0.0000       1.269987        34.5581 
 483   0.0000       1.271878        34.6096 
 484   0.0000       1.274682        34.6858 
 485   0.0000       1.276295        34.7298 
 486   0.0000       1.281474        34.8707 
 487   0.0000       1.285393        34.9773 
 488   0.0000       1.289393        35.0862 
 489   0.0000       1.291499        35.1435 
 490   0.0000       1.293824        35.2068 
 491   0.0000       1.295074        35.2408 
 492   0.0000       1.300483        35.3879 
 493   0.0000       1.302394        35.4399 
 494   0.0000       1.310988        35.6738 
 495   0.0000       1.313672        35.7468 
 496   0.0000       1.318326        35.8735 
 497   0.0000       1.321888        35.9704 
 498   0.0000       1.326317        36.0909 
 499   0.0000       1.327997        36.1366 
 500   0.0000       1.331290        36.2262 
 501   0.0000       1.335327        36.3361 
 502   0.0000       1.336381        36.3648 
 503   0.0000       1.344940        36.5977 
 504   0.0000       1.347410        36.6649 
 505   0.0000       1.349541        36.7229 
 506   0.0000       1.350564        36.7507 
 507   0.0000       1.356270        36.9060 
 508   0.0000       1.360913        37.0323 
 509   0.0000       1.363263        37.0963 
[...]
      pz      :     0.022091  p :     0.079750
      px      :     0.043567
      py      :     0.014093
 77 H s       :     0.885330  s :     0.885330
      pz      :     0.047922  p :     0.079223
      px      :     0.015021
      py      :     0.016279
 78 H s       :     0.885745  s :     0.885745
      pz      :     0.025851  p :     0.079177
      px      :     0.020471
      py      :     0.032855
 79 H s       :     0.910154  s :     0.910154
      pz      :     0.021856  p :     0.086409
      px      :     0.021679
      py      :     0.042874
 80 H s       :     0.865652  s :     0.865652
      pz      :     0.039298  p :     0.084716
      px      :     0.030232
      py      :     0.015185
 81 H s       :     0.887154  s :     0.887154
      pz      :     0.037795  p :     0.084079
      px      :     0.016194
      py      :     0.030091
 82 H s       :     0.916109  s :     0.916109
      pz      :     0.022001  p :     0.086737
      px      :     0.031591
      py      :     0.033145
 83 H s       :     0.873777  s :     0.873777
      pz      :     0.039227  p :     0.084032
      px      :     0.015283
      py      :     0.029522
 84 H s       :     0.887194  s :     0.887194
      pz      :     0.035743  p :     0.083485
      px      :     0.031684
      py      :     0.016057
 85 H s       :     0.893372  s :     0.893372
      pz      :     0.022482  p :     0.079761
      px      :     0.014088
      py      :     0.043192
 86 H s       :     0.891249  s :     0.891249
      pz      :     0.024719  p :     0.078809
      px      :     0.032963
      py      :     0.021127
 87 H s       :     0.890131  s :     0.890131
      pz      :     0.047990  p :     0.078713
      px      :     0.015588
      py      :     0.015135
 88 H s       :     0.911073  s :     0.911073
      pz      :     0.021733  p :     0.087033
      px      :     0.042853
      py      :     0.022447
 89 H s       :     0.871478  s :     0.871478
      pz      :     0.037937  p :     0.083828
      px      :     0.030467
      py      :     0.015425


                      *****************************
                      * MAYER POPULATION ANALYSIS *
                      *****************************

  NA   - Mulliken gross atomic population
  ZA   - Total nuclear charge
  QA   - Mulliken gross atomic charge
  VA   - Mayer's total valence
  BVA  - Mayer's bonded valence
  FA   - Mayer's free valence

  ATOM       NA         ZA         QA         VA         BVA        FA
  0 C      5.7926     6.0000     0.2074     3.8401     3.8401    -0.0000
  1 N      7.4556     7.0000    -0.4556     3.3291     3.3291    -0.0000
  2 C      6.0669     6.0000    -0.0669     3.9207     3.9207    -0.0000
  3 N      7.3369     7.0000    -0.3369     3.4596     3.4596     0.0000
  4 C      6.0543     6.0000    -0.0543     4.0251     4.0251    -0.0000
  5 N      7.5618     7.0000    -0.5618     3.0959     3.0959    -0.0000
  6 C      6.1191     6.0000    -0.1191     3.9995     3.9995     0.0000
  7 N      7.3403     7.0000    -0.3403     3.4341     3.4341     0.0000
  8 C      5.7919     6.0000     0.2081     3.8428     3.8428     0.0000
  9 N      7.5627     7.0000    -0.5627     3.0787     3.0787    -0.0000
 10 C      5.8810     6.0000     0.1190     3.9088     3.9088    -0.0000
 11 N      7.4378     7.0000    -0.4378     3.3818     3.3818    -0.0000
 12 C      6.0804     6.0000    -0.0804     3.8973     3.8973    -0.0000
 13 N      7.4312     7.0000    -0.4312     3.4202     3.4202    -0.0000
 14 C      5.7783     6.0000     0.2217     3.7840     3.7840    -0.0000
 15 N      7.4415     7.0000    -0.4415     3.3693     3.3693     0.0000
 16 C      5.7699     6.0000     0.2301     3.7791     3.7791    -0.0000
 17 C      6.1167     6.0000    -0.1167     4.0000     4.0000    -0.0000
 18 C      6.1640     6.0000    -0.1640     3.7568     3.7568    -0.0000
 19 C      5.7915     6.0000     0.2085     3.8640     3.8640    -0.0000
 20 C      5.7860     6.0000     0.2140     3.8282     3.8282     0.0000
 21 C      6.0921     6.0000    -0.0921     3.8948     3.8948     0.0000
 22 C      6.0888     6.0000    -0.0888     3.9818     3.9818    -0.0000
 23 C      6.0411     6.0000    -0.0411     3.9921     3.9921     0.0000
 24 C      5.8034     6.0000     0.1966     3.8215     3.8215    -0.0000
 25 C      5.8859     6.0000     0.1141     3.8903     3.8903    -0.0000
 26 C      6.0772     6.0000    -0.0772     3.9059     3.9059     0.0000
 27 C      5.7875     6.0000     0.2125     3.8643     3.8643    -0.0000
 28 C      6.0600     6.0000    -0.0600     3.9887     3.9887     0.0000
 29 C      6.1809     6.0000    -0.1809     3.7450     3.7450    -0.0000
 30 C      5.7558     6.0000     0.2442     3.7977     3.7977    -0.0000
 31 C      5.7718     6.0000     0.2282     3.8193     3.8193    -0.0000
 32 C      6.0616     6.0000    -0.0616     3.9230     3.9230     0.0000
 33 C      6.0640     6.0000    -0.0640     3.9740     3.9740    -0.0000
 34 C      6.0497     6.0000    -0.0497     3.9852     3.9852    -0.0000
 35 C      5.7768     6.0000     0.2232     3.8179     3.8179    -0.0000
 36 C      5.8908     6.0000     0.1092     3.8775     3.8775     0.0000
 37 C      6.0647     6.0000    -0.0647     3.9175     3.9175    -0.0000
 38 C      5.7668     6.0000     0.2332     3.8018     3.8018    -0.0000
 39 C      6.0593     6.0000    -0.0593     3.9844     3.9844     0.0000
 40 C      6.1817     6.0000    -0.1817     3.7291     3.7291    -0.0000
 41 C      5.7763     6.0000     0.2237     3.8855     3.8855    -0.0000
 42 C      5.8026     6.0000     0.1974     3.8265     3.8265     0.0000
 43 C      6.0729     6.0000    -0.0729     3.9002     3.9002    -0.0000
 44 C      6.0912     6.0000    -0.0912     3.9858     3.9858    -0.0000
 45 C      6.0604     6.0000    -0.0604     3.9922     3.9922    -0.0000
 46 C      5.7910     6.0000     0.2090     3.8286     3.8286    -0.0000
 47 C      5.8843     6.0000     0.1157     3.8939     3.8939     0.0000
 48 C      6.0685     6.0000    -0.0685     3.9086     3.9086    -0.0000
 49 C      5.7635     6.0000     0.2365     3.8936     3.8936     0.0000
 50 C      6.0474     6.0000    -0.0474     3.9906     3.9906     0.0000
 51 C      6.1937     6.0000    -0.1937     3.7369     3.7369    -0.0000
 52 H      0.9599     1.0000     0.0401     0.9861     0.9861     0.0000
 53 H      1.0166     1.0000    -0.0166     0.9985     0.9985    -0.0000
 54 H      0.9487     1.0000     0.0513     1.0130     1.0130     0.0000
 55 H      0.9609     1.0000     0.0391     0.9865     0.9865     0.0000
 56 H      0.9505     1.0000     0.0495     0.9697     0.9697    -0.0000
 57 H      0.9517     1.0000     0.0483     0.9823     0.9823    -0.0000
 58 H      0.9527     1.0000     0.0473     0.9852     0.9852    -0.0000
 59 H      0.9983     1.0000     0.0017     1.0040     1.0040     0.0000
 60 H      0.9477     1.0000     0.0523     1.0160     1.0160    -0.0000
 61 H      0.8289     1.0000     0.1711     1.0419     1.0419    -0.0000
 62 H      0.8246     1.0000     0.1754     1.0436     1.0436    -0.0000
 63 H      0.9435     1.0000     0.0565     0.9852     0.9852     0.0000
 64 H      1.0045     1.0000    -0.0045     0.9977     0.9977     0.0000
 65 H      0.9529     1.0000     0.0471     1.0097     1.0097     0.0000
 66 H      0.9433     1.0000     0.0567     0.9853     0.9853    -0.0000
 67 H      0.9366     1.0000     0.0634     0.9720     0.9720     0.0000
 68 H      0.9422     1.0000     0.0578     0.9868     0.9868     0.0000
 69 H      0.9427     1.0000     0.0573     0.9829     0.9829    -0.0000
 70 H      1.0283     1.0000    -0.0283     0.9931     0.9931     0.0000
 71 H      0.9537     1.0000     0.0463     1.0060     1.0060    -0.0000
 72 H      0.9310     1.0000     0.0690     0.9838     0.9838     0.0000
 73 H      1.0087     1.0000    -0.0087     1.0005     1.0005     0.0000
 74 H      0.9417     1.0000     0.0583     1.0102     1.0102     0.0000
 75 H      0.9317     1.0000     0.0683     0.9842     0.9842     0.0000
 76 H      0.9271     1.0000     0.0729     0.9721     0.9721     0.0000
 77 H      0.9336     1.0000     0.0664     0.9854     0.9854    -0.0000
 78 H      0.9344     1.0000     0.0656     0.9853     0.9853    -0.0000
 79 H      1.0156     1.0000    -0.0156     0.9980     0.9980     0.0000
 80 H      0.9411     1.0000     0.0589     1.0071     1.0071     0.0000
 81 H      0.9464     1.0000     0.0536     0.9857     0.9857    -0.0000
 82 H      1.0251     1.0000    -0.0251     0.9933     0.9933    -0.0000
 83 H      0.9590     1.0000     0.0410     1.0084     1.0084    -0.0000
 84 H      0.9469     1.0000     0.0531     0.9853     0.9853     0.0000
 85 H      0.9402     1.0000     0.0598     0.9715     0.9715    -0.0000
 86 H      0.9449     1.0000     0.0551     0.9839     0.9839    -0.0000
 87 H      0.9433     1.0000     0.0567     0.9856     0.9856     0.0000
 88 H      1.0155     1.0000    -0.0155     0.9965     0.9965    -0.0000
 89 H      0.9537     1.0000     0.0463     1.0071     1.0071     0.0000

  Mayer bond orders larger than 0.100000
B(  0-C ,  1-N ) :   1.0881 B(  0-C , 17-C ) :   1.7063 B(  0-C , 52-H ) :   0.9668 
B(  1-N ,  8-C ) :   1.0903 B(  1-N , 10-C ) :   0.9774 B(  2-C , 12-C ) :   1.5083 
B(  2-C , 16-C ) :   1.3543 B(  2-C , 53-H ) :   0.9759 B(  3-N , 14-C ) :   1.2178 
B(  3-N , 16-C ) :   1.1914 B(  3-N , 61-H ) :   0.8994 B(  4-C ,  6-C ) :   1.2123 
B(  4-C , 17-C ) :   1.2128 B(  4-C , 18-C ) :   1.4286 B(  5-N , 19-C ) :   1.4514 
B(  5-N , 27-C ) :   1.3806 B(  6-C ,  8-C ) :   1.7054 B(  6-C , 54-H ) :   0.9580 
B(  7-N , 30-C ) :   1.1939 B(  7-N , 38-C ) :   1.1929 B(  7-N , 62-H ) :   0.8968 
B(  8-C , 55-H ) :   0.9677 B(  9-N , 41-C ) :   1.3934 B(  9-N , 49-C ) :   1.4273 
B( 10-C , 56-H ) :   0.9769 B( 10-C , 57-H ) :   0.9832 B( 10-C , 58-H ) :   0.9834 
B( 11-N , 20-C ) :   1.1319 B( 11-N , 24-C ) :   1.1113 B( 11-N , 25-C ) :   0.9588 
B( 12-C , 14-C ) :   1.3549 B( 12-C , 59-H ) :   0.9744 B( 13-N , 31-C ) :   1.1565 
B( 13-N , 35-C ) :   1.1512 B( 13-N , 36-C ) :   0.9444 B( 14-C , 18-C ) :   1.1323 
B( 15-N , 42-C ) :   1.1070 B( 15-N , 46-C ) :   1.1206 B( 15-N , 47-C ) :   0.9624 
B( 16-C , 51-C ) :   1.1731 B( 17-C , 60-H ) :   0.9580 B( 18-C , 19-C ) :   1.1367 
B( 19-C , 21-C ) :   1.2425 B( 20-C , 28-C ) :   1.6255 B( 20-C , 63-H ) :   0.9702 
B( 21-C , 26-C ) :   1.6139 B( 21-C , 64-H ) :   0.9712 B( 22-C , 23-C ) :   1.2908 
B( 22-C , 28-C ) :   1.2677 B( 22-C , 29-C ) :   1.2203 B( 23-C , 24-C ) :   1.6172 
B( 23-C , 65-H ) :   0.9705 B( 24-C , 66-H ) :   0.9694 B( 25-C , 67-H ) :   0.9760 
B( 25-C , 68-H ) :   0.9828 B( 25-C , 69-H ) :   0.9823 B( 26-C , 27-C ) :   1.2369 
B( 26-C , 70-H ) :   0.9704 B( 27-C , 29-C ) :   1.2148 B( 28-C , 71-H ) :   0.9718 
B( 29-C , 30-C ) :   1.2413 B( 30-C , 32-C ) :   1.2830 B( 31-C , 39-C ) :   1.5951 
B( 31-C , 72-H ) :   0.9683 B( 32-C , 37-C ) :   1.5764 B( 32-C , 73-H ) :   0.9784 
B( 33-C , 34-C ) :   1.3034 B( 33-C , 39-C ) :   1.2970 B( 33-C , 40-C ) :   1.1862 
B( 34-C , 35-C ) :   1.5917 B( 34-C , 74-H ) :   0.9697 B( 35-C , 75-H ) :   0.9684 
B( 36-C , 76-H ) :   0.9767 B( 36-C , 77-H ) :   0.9816 B( 36-C , 78-H ) :   0.9825 
B( 37-C , 38-C ) :   1.2871 B( 37-C , 79-H ) :   0.9768 B( 38-C , 40-C ) :   1.2313 
B( 39-C , 80-H ) :   0.9707 B( 40-C , 41-C ) :   1.2454 B( 41-C , 43-C ) :   1.1912 
B( 42-C , 50-C ) :   1.6360 B( 42-C , 81-H ) :   0.9697 B( 43-C , 48-C ) :   1.6607 
B( 43-C , 82-H ) :   0.9723 B( 44-C , 45-C ) :   1.2624 B( 44-C , 50-C ) :   1.2691 
B( 44-C , 51-C ) :   1.2651 B( 45-C , 46-C ) :   1.6370 B( 45-C , 83-H ) :   0.9718 
B( 46-C , 84-H ) :   0.9701 B( 47-C , 85-H ) :   0.9762 B( 47-C , 86-H ) :   0.9829 
B( 47-C , 87-H ) :   0.9825 B( 48-C , 49-C ) :   1.1946 B( 48-C , 88-H ) :   0.9748 
B( 49-C , 51-C ) :   1.2358 B( 50-C , 89-H ) :   0.9710 

-------
TIMINGS
-------

Total SCF time: 0 days 0 hours 28 min 25 sec 

Total time                  ....    1705.845 sec
Sum of individual times     ....    1700.909 sec  ( 99.7%)

Fock matrix formation       ....    1673.104 sec  ( 98.1%)
Diagonalization             ....       8.810 sec  (  0.5%)
Density matrix formation    ....       0.541 sec  (  0.0%)
Population analysis         ....       0.587 sec  (  0.0%)
Initial guess               ....       2.509 sec  (  0.1%)
Orbital Transformation      ....       0.000 sec  (  0.0%)
Orbital Orthonormalization  ....       0.000 sec  (  0.0%)
DIIS solution               ....       3.973 sec  (  0.2%)
SOSCF solution              ....      10.086 sec  (  0.6%)

Maximum memory used throughout the entire SCF-calculation: 302.6 MB


           ************************************************************
           *        Program running with 16 parallel MPI-processes    *
           *              working on a common directory               *
           ************************************************************

------------------------------------------------------------------------------
                                ORCA  MP2 
------------------------------------------------------------------------------

Freezing NCore=104 chemical core electrons

----------
MP2 ENERGY (disk based algorithm)
----------

Dimension of the basis                    ...  918
Memory devoted to MP2                     ... 2000 MB   
Data format for buffers                   ... DOUBLE
Compression type for matrix containers    ... UNCOMPRESSED

-------------------------------
PARTIAL EXCHANGE TRANSFORMATION
-------------------------------

Transformation type                        ... one-operator
Generation of integrals (i,mue|j,nue)      ... ON
Generation of integrals (mue,kappa|nue,tau)... OFF
Generation of integrals (i,mue|a,nue)      ... OFF
Dimension of the basis                     ...  918
Number of internal MOs                     ...  127 (  52- 178)
Pair cutoff                                ... 2.500e-12 Eh
Number of AO pairs in the trafo            ... 421821
Total Number of distinct AO pairs          ... 421821
Memory devoted for trafo                   ... 2000.0 MB 
Max. Number of MO pairs treated together   ...  311      
Number Format for Storage                  ... Double (8 Byte)
Integral package used                      ... LIBINT

Starting integral evaluation:
    ... done with AO integral generation
Closing buffer AOK     (38.26 GB; CompressionRatio= 1.33)
Collecting buffer AOK 
Number of MO pairs included in the trafo   ... 8128
------------------------
SORTING OF (i,mue|j,nue)
------------------------

IBATCH = 1 of  2
IBATCH = 2 of  2
Closing buffer KAO     (51.03 GB; CompressionRatio= 1.00)
Collecting buffer KAO 
N(AO-Batches) Done                         ...  85906114 
N(AO-Batches) Skipped                      ...  82338238 
N(IJ)-pairs Skipped                        ...         0 
TOTAL TIME for half transformation         ...  2997.246 sec
AO-integral generation                     ...   212.699 sec
Half transformation                        ...   423.563 sec
K-integral sorting                         ...  2140.549 sec
Process 10:   Internal MO 132
Process 13:   Internal MO 156

Finished integral transformation - now doing MP2 part

Process  4:   Internal MO  84
OPERATOR COMBINATION   0   0: ij=( 52..178, 52..178)
Process  1:   Internal MO  60
Process  7:   Internal MO 108
Process  2:   Internal MO  69
Process  1:   Internal MO  63
Process  5:   Internal MO  93
Process  3:   Internal MO  78
Process  1:   Internal MO  66
Process  8:   Internal MO 117
Process  2:   Internal MO  72
Process 11:   Internal MO 141
Process  0:   Internal MO  54
Process  6:   Internal MO 102
Process 14:   Internal MO 165
Process  4:   Internal MO  87
Process  0:   Internal MO  57
Process  9:   Internal MO 126
Process  2:   Internal MO  75
Process  7:   Internal MO 111
Process 12:   Internal MO 150
Process  3:   Internal MO  81
Process  5:   Internal MO  96
Process  4:   Internal MO  90
Process 10:   Internal MO 135
Process  6:   Internal MO 105
Process  8:   Internal MO 120
Process 15:   Internal MO 174
Process  5:   Internal MO  99
Process  9:   Internal MO 129
Process  7:   Internal MO 114
Process 11:   Internal MO 144
Process 13:   Internal MO 159
Process 12:   Internal MO 153
Process 14:   Internal MO 168
Process  8:   Internal MO 123
Process 10:   Internal MO 138
Process 11:   Internal MO 147
Process 15:   Internal MO 177
Process 13:   Internal MO 162
Process 14:   Internal MO 171
-----------------------------------------------
 MP2 CORRELATION ENERGY   :     -7.281850671 Eh
-----------------------------------------------


-------
TIMINGS
-------
Total time                : 3310.216 sec
Integral trafo            : 3001.822 sec ( 90.7%)
K(i,j)                    :   49.764 sec (  1.5%)
T(i,j)                    :    0.221 sec (  0.0%)

---------------------------------------
MP2 TOTAL ENERGY:    -2130.896684234 Eh
---------------------------------------

Maximum memory used throughout the entire MP2-calculation: 2275.3 MB

-------------------------   --------------------
FINAL SINGLE POINT ENERGY     -2130.896684234227
-------------------------   --------------------


                            ***************************************
                            *     ORCA property calculations      *
                            ***************************************


  WARNING: The energy has been calculated at the MP2 level but the densities
           used in the property calculations are still SCF densities
           MP2 response densities have not been calculated 
           use %mp2 Density relaxed end
           or  %mp2 Density unrelaxed end

                                    ---------------------
                                    Active property flags
                                    ---------------------
   (+) Dipole Moment


------------------------------------------------------------------------------
                       ORCA ELECTRIC PROPERTIES CALCULATION
------------------------------------------------------------------------------

Dipole Moment Calculation                       ... on
Quadrupole Moment Calculation                   ... off
Polarizability Calculation                      ... off
GBWName                                         ... /scratch/allen/tmpyp4_amber_gaff2/conf1/conf1/Conf150.orca.gbw
Electron density                                ... /scratch/allen/tmpyp4_amber_gaff2/conf1/conf1/Conf150.orca.scfp
The origin for moment calculation is the CENTER OF MASS  = ( 0.003362, -0.001843  0.001920)

-------------
DIPOLE MOMENT
-------------
                                X             Y             Z
Electronic contribution:      2.07975      -3.96830      -0.22517
Nuclear contribution   :      0.03423       0.21013       0.22549
                        -----------------------------------------
Total Dipole Moment    :      2.11397      -3.75818       0.00032
                        -----------------------------------------
Magnitude (a.u.)       :      4.31193
Magnitude (Debye)      :     10.96006



--------------------
Rotational spectrum 
--------------------
 
Rotational constants in cm-1:     0.001500     0.001478     0.000761 
Rotational constants in MHz :    44.970492    44.306216    22.805961 

 Dipole components along the rotational axes: 
x,y,z [a.u.] :     2.955696    -3.139524     0.004638 
x,y,z [Debye]:     7.512782    -7.980035     0.011789 

 

Timings for individual modules:

Sum of individual times         ...     5049.644 sec (=  84.161 min)
GTO integral calculation        ...       12.090 sec (=   0.201 min)   0.2 %
SCF iterations                  ...     1708.120 sec (=  28.469 min)  33.8 %
MP2 module                      ...     3329.434 sec (=  55.491 min)  65.9 %
                             ****ORCA TERMINATED NORMALLY****
TOTAL RUN TIME: 0 days 1 hours 24 minutes 13 seconds 535 msec
# of primitive gaussian functions

