
                                 *****************
                                 * O   R   C   A *
                                 *****************

                                            #,                                       
                                            ###                                      
                                            ####                                     
                                            #####                                    
                                            ######                                   
                                           ########,                                 
                                     ,,################,,,,,                         
                               ,,#################################,,                 
                          ,,##########################################,,             
                       ,#########################################, ''#####,          
                    ,#############################################,,   '####,        
                  ,##################################################,,,,####,       
                ,###########''''           ''''###############################       
              ,#####''   ,,,,##########,,,,          '''####'''          '####       
            ,##' ,,,,###########################,,,                        '##       
           ' ,,###''''                  '''############,,,                           
         ,,##''                                '''############,,,,        ,,,,,,###''
      ,#''                                            '''#######################'''  
     '                                                          ''''####''''         
             ,#######,   #######,   ,#######,      ##                                
            ,#'     '#,  ##    ##  ,#'     '#,    #''#        ######   ,####,        
            ##       ##  ##   ,#'  ##            #'  '#       #        #'  '#        
            ##       ##  #######   ##           ,######,      #####,   #    #        
            '#,     ,#'  ##    ##  '#,     ,#' ,#      #,         ##   #,  ,#        
             '#######'   ##     ##  '#######'  #'      '#     #####' # '####'        



                  #######################################################
                  #                        -***-                        #
                  #          Department of theory and spectroscopy      #
                  #    Directorship and core code : Frank Neese         #
                  #        Max Planck Institute fuer Kohlenforschung    #
                  #                Kaiser Wilhelm Platz 1               #
                  #                 D-45470 Muelheim/Ruhr               #
                  #                      Germany                        #
                  #                                                     #
                  #                  All rights reserved                #
                  #                        -***-                        #
                  #######################################################


                         Program Version 5.0.4 -  RELEASE  -


 With contributions from (in alphabetic order):
   Daniel Aravena         : Magnetic Suceptibility
   Michael Atanasov       : Ab Initio Ligand Field Theory (pilot matlab implementation)
   Alexander A. Auer      : GIAO ZORA, VPT2 properties, NMR spectrum
   Ute Becker             : Parallelization
   Giovanni Bistoni       : ED, misc. LED, open-shell LED, HFLD
   Martin Brehm           : Molecular dynamics
   Dmytro Bykov           : SCF Hessian
   Vijay G. Chilkuri      : MRCI spin determinant printing, contributions to CSF-ICE
   Dipayan Datta          : RHF DLPNO-CCSD density
   Achintya Kumar Dutta   : EOM-CC, STEOM-CC
   Dmitry Ganyushin       : Spin-Orbit,Spin-Spin,Magnetic field MRCI
   Miquel Garcia          : C-PCM and meta-GGA Hessian, CC/C-PCM, Gaussian charge scheme
   Yang Guo               : DLPNO-NEVPT2, F12-NEVPT2, CIM, IAO-localization
   Andreas Hansen         : Spin unrestricted coupled pair/coupled cluster methods
   Benjamin Helmich-Paris : MC-RPA, TRAH-SCF, COSX integrals
   Lee Huntington         : MR-EOM, pCC
   Robert Izsak           : Overlap fitted RIJCOSX, COSX-SCS-MP3, EOM
   Marcus Kettner         : VPT2
   Christian Kollmar      : KDIIS, OOCD, Brueckner-CCSD(T), CCSD density, CASPT2, CASPT2-K
   Simone Kossmann        : Meta GGA functionals, TD-DFT gradient, OOMP2, MP2 Hessian
   Martin Krupicka        : Initial AUTO-CI
   Lucas Lang             : DCDCAS
   Marvin Lechner         : AUTO-CI (C++ implementation), FIC-MRCC
   Dagmar Lenk            : GEPOL surface, SMD
   Dimitrios Liakos       : Extrapolation schemes; Compound Job, initial MDCI parallelization
   Dimitrios Manganas     : Further ROCIS development; embedding schemes
   Dimitrios Pantazis     : SARC Basis sets
   Anastasios Papadopoulos: AUTO-CI, single reference methods and gradients
   Taras Petrenko         : DFT Hessian,TD-DFT gradient, ASA, ECA, R-Raman, ABS, FL, XAS/XES, NRVS
   Peter Pinski           : DLPNO-MP2, DLPNO-MP2 Gradient
   Christoph Reimann      : Effective Core Potentials
   Marius Retegan         : Local ZFS, SOC
   Christoph Riplinger    : Optimizer, TS searches, QM/MM, DLPNO-CCSD(T), (RO)-DLPNO pert. Triples
   Tobias Risthaus        : Range-separated hybrids, TD-DFT gradient, RPA, STAB
   Michael Roemelt        : Original ROCIS implementation
   Masaaki Saitow         : Open-shell DLPNO-CCSD energy and density
   Barbara Sandhoefer     : DKH picture change effects
   Avijit Sen             : IP-ROCIS
   Kantharuban Sivalingam : CASSCF convergence, NEVPT2, FIC-MRCI
   Bernardo de Souza      : ESD, SOC TD-DFT
   Georgi Stoychev        : AutoAux, RI-MP2 NMR, DLPNO-MP2 response
   Willem Van den Heuvel  : Paramagnetic NMR
   Boris Wezisla          : Elementary symmetry handling
   Frank Wennmohs         : Technical directorship


 We gratefully acknowledge several colleagues who have allowed us to
 interface, adapt or use parts of their codes:
   Stefan Grimme, W. Hujo, H. Kruse, P. Pracht,  : VdW corrections, initial TS optimization,
                  C. Bannwarth, S. Ehlert          DFT functionals, gCP, sTDA/sTD-DF
   Ed Valeev, F. Pavosevic, A. Kumar             : LibInt (2-el integral package), F12 methods
   Garnet Chan, S. Sharma, J. Yang, R. Olivares  : DMRG
   Ulf Ekstrom                                   : XCFun DFT Library
   Mihaly Kallay                                 : mrcc  (arbitrary order and MRCC methods)
   Jiri Pittner, Ondrej Demel                    : Mk-CCSD
   Frank Weinhold                                : gennbo (NPA and NBO analysis)
   Christopher J. Cramer and Donald G. Truhlar   : smd solvation model
   Lars Goerigk                                  : TD-DFT with DH, B97 family of functionals
   V. Asgeirsson, H. Jonsson                     : NEB implementation
   FAccTs GmbH                                   : IRC, NEB, NEB-TS, DLPNO-Multilevel, CI-OPT
                                                   MM, QMMM, 2- and 3-layer-ONIOM, Crystal-QMMM,
                                                   LR-CPCM, SF, NACMEs, symmetry and pop. for TD-DFT,
                                                   nearIR, NL-DFT gradient (VV10), updates on ESD,
                                                   ML-optimized integration grids
   S Lehtola, MJT Oliveira, MAL Marques          : LibXC Library
   Liviu Ungur et al                             : ANISO software


 Your calculation uses the libint2 library for the computation of 2-el integrals
 For citations please refer to: http://libint.valeyev.net

 Your ORCA version has been built with support for libXC version: 5.1.0
 For citations please refer to: https://tddft.org/programs/libxc/

 This ORCA versions uses:
   CBLAS   interface :  Fast vector & matrix operations
   LAPACKE interface :  Fast linear algebra routines
   SCALAPACK package :  Parallel linear algebra routines
   Shared memory     :  Shared parallel matrices
   BLAS/LAPACK       :  OpenBLAS 0.3.15  USE64BITINT DYNAMIC_ARCH NO_AFFINITY Sandybridge SINGLE_THREADED
        Core in use  :  Sandybridge
   Copyright (c) 2011-2014, The OpenBLAS Project


================================================================================

----- Orbital basis set information -----
Your calculation utilizes the basis: cc-pVDZ 
       H, B-Ne : Obtained from the ccRepo (grant-hill.group.shef.ac.uk/ccrepo) Feb. 2017
                 T. H. Dunning, Jr., J. Chem. Phys. 90, 1007 (1989)
            He : Obtained from the ccRepo (grant-hill.group.shef.ac.uk/ccrepo) Feb. 2017
                 D. E. Woon, T. H. Dunning, Jr., J. Chem. Phys. 100, 2975 (1994)
  Li-Be, Na-Mg : Obtained from the ccRepo (grant-hill.group.shef.ac.uk/ccrepo) Feb. 2017
                 B. P. Prascher, D. E. Woon, K. A. Peterson, T. H. Dunning, Jr., A. K. Wilson, Theor. Chem. Acc. 128, 69 (2011)
         Al-Ar : Obtained from the ccRepo (grant-hill.group.shef.ac.uk/ccrepo) Feb. 2017
                 D. E. Woon, T. H. Dunning, Jr., J. Chem. Phys. 98, 1358 (1993)
            Ca : Obtained from the Peterson Research Group Website (tyr0.chem.wsu.edu/~kipeters) Feb. 2017
                 J. Koput, K. A. Peterson, J. Phys. Chem. 106, 9595 (2002)
         Sc-Zn : Obtained from the ccRepo (grant-hill.group.shef.ac.uk/ccrepo) Feb. 2017
                 N. B. Balabanov, K. A. Peterson, J. Chem. Phys. 123, 064107 (2005)
                 N. B. Balabanov, K. A. Peterson, J. Chem. Phys. 125, 074110 (2006)
         Ga-Kr : Obtained from the ccRepo (grant-hill.group.shef.ac.uk/ccrepo) Feb. 2017
                 A. K. Wilson, D. E. Woon, K. A. Peterson, T. H. Dunning, Jr., J. Chem. Phys. 110, 7667 (1999)

================================================================================
                                        WARNINGS
                       Please study these warnings very carefully!
================================================================================


WARNING: No MP2 level density has been requested!
         To caclulate MP2 level properties use
         %mp2 Density relaxed end
         or
         %mp2 Density unrelaxed end

WARNING: Post HF methods need fully converged wavefunctions
  ===> : Setting SCFConvForced true
         You can overwrite this default with %scf ConvForced false 


INFO   : the flag for use of the SHARK integral package has been found!

================================================================================
                                       INPUT FILE
================================================================================
NAME = /scratch/allen/tmpyp4_amber_gaff2/2.Mdgx/conf11/conf11/Conf181.orca
|  1> ! PAL2
|  2> ! mp2 cc-pvdz TightSCF  NoKeepInts
|  3> 
|  4> %scf
|  5>   MaxCore 2000
|  6> end
|  7> %mp2
|  8>   MaxCore 2000
|  9> end
| 10> * xyz 0 1
| 11>    C       -4.95500         5.18300         0.04000
| 12>    C        1.47400         4.04100         0.05700
| 13>    C       -2.80200         4.09300         0.04900
| 14>    C       -2.21500         5.36700         0.09000
| 15>    C       -3.00900         6.49600         0.10800
| 16>    C       -5.18100         7.62300         0.13700
| 17>    C        0.13200         4.30700         0.06100
| 18>    C       -0.56900         3.05600         0.04700
| 19>    C        1.64900         2.61800         0.02300
| 20>    C       -4.20400         4.02400         0.02700
| 21>    N       -4.35800         6.39500         0.07900
| 22>    N        0.38800         2.06700         0.02500
| 23>    N       -2.01000         0.39500        -0.07500
| 24>    N       -0.38800        -2.07400        -0.02700
| 25>    N        2.01000        -0.40100         0.06500
| 26>    C       -1.96000         2.86100         0.02400
| 27>    C       -2.62300         1.61500        -0.01800
| 28>    C       -5.57300        -4.32900         1.06600
| 29>    C       -4.07300         1.47100         0.05600
| 30>    C       -4.10600        -2.75600        -0.02600
| 31>    C       -4.99500        -2.75700        -1.11100
| 32>    C       -6.13200        -3.54200        -1.07600
| 33>    C       -7.65100        -5.11300         0.04000
| 34>    C       -4.32400         0.14100         0.03700
| 35>    C       -3.02500        -0.52000        -0.04800
| 36>    C       -4.42200        -3.56600         1.07500
| 37>    N       -6.40700        -4.31300         0.00100
| 38>    C       -2.86700        -1.92200        -0.04000
| 39>    C       -1.65000        -2.62400        -0.02700
| 40>    C        3.56800        -6.14200        -1.04000
| 41>    C       -1.47600        -4.04900        -0.03400
| 42>    C        2.80300        -4.09900        -0.00800
| 43>    C        3.65700        -4.38400         1.06900
| 44>    C        4.42700        -5.53000         1.05900
| 45>    C        5.24500        -7.58800         0.01400
| 46>    C       -0.13400        -4.31500        -0.02200
| 47>    C        0.56800        -3.06400        -0.02700
| 48>    C        2.77500        -5.01200        -1.07400
| 49>    N        4.37600        -6.39100         0.01700
| 50>    C        1.95900        -2.86900        -0.00900
| 51>    C        2.62100        -1.62200         0.00900
| 52>    C        5.54300         4.33900        -1.13000
| 53>    C        4.07000        -1.47900        -0.09400
| 54>    C        4.10400         2.75100        -0.02100
| 55>    C        5.02700         2.72900         1.03600
| 56>    C        6.16600         3.50900         0.97800
| 57>    C        7.61900         5.15300        -0.11500
| 58>    C        4.32100        -0.14800        -0.09200
| 59>    C        3.02500         0.51400         0.01500
| 60>    C        4.38700         3.58200        -1.11500
| 61>    C        2.86600         1.91600         0.01300
| 62>    N        6.41300         4.29600        -0.09500
| 63>    H       -6.03800         5.17700         0.01100
| 64>    H        2.27400         4.76600         0.08100
| 65>    H       -1.13800         5.48600         0.11900
| 66>    H       -2.60200         7.49900         0.14900
| 67>    H       -5.32900         7.90300         1.18300
| 68>    H       -4.66200         8.42000        -0.39500
| 69>    H       -6.14200         7.42300        -0.33600
| 70>    H       -0.33200         5.28200         0.06900
| 71>    H       -4.71600         3.07000        -0.02000
| 72>    H        0.18200         1.07200         0.00500
| 73>    H       -0.18300        -1.08000        -0.02100
| 74>    H       -5.86400        -4.96200         1.89500
| 75>    H       -4.79400         2.27200         0.13900
| 76>    H       -4.80000        -2.16000        -1.99400
| 77>    H       -6.84100        -3.58200        -1.89300
| 78>    H       -8.42800        -4.53600         0.54600
| 79>    H       -7.95600        -5.33700        -0.98100
| 80>    H       -7.45600        -6.03700         0.58400
| 81>    H       -5.28700        -0.34400         0.10000
| 82>    H       -3.78000        -3.60100         1.94700
| 83>    H        3.58700        -6.86800        -1.84300
| 84>    H       -2.27600        -4.77400        -0.05000
| 85>    H        3.71400        -3.72400         1.92600
| 86>    H        5.09200        -5.79500         1.87100
| 87>    H        6.20500        -7.32900        -0.43900
| 88>    H        5.39300        -7.91700         1.04200
| 89>    H        4.75900        -8.37300        -0.56400
| 90>    H        0.32900        -5.29000        -0.00800
| 91>    H        2.14600        -4.84200        -1.94000
| 92>    H        5.80800         4.98600        -1.95600
| 93>    H        4.78800        -2.28100        -0.18500
| 94>    H        4.86000         2.11400         1.91200
| 95>    H        6.90100         3.53100         1.77200
| 96>    H        7.38300         6.10900         0.35600
| 97>    H        8.41400         4.65200         0.43500
| 98>    H        7.92100         5.31000        -1.15000
| 99>    H        5.28300         0.33600        -0.17900
|100>    H        3.72000         3.63200        -1.96700
|101> *
|102> 
|103>                          ****END OF INPUT****
================================================================================

                       ****************************
                       * Single Point Calculation *
                       ****************************

---------------------------------
CARTESIAN COORDINATES (ANGSTROEM)
---------------------------------
  C     -4.955000    5.183000    0.040000
  C      1.474000    4.041000    0.057000
  C     -2.802000    4.093000    0.049000
  C     -2.215000    5.367000    0.090000
  C     -3.009000    6.496000    0.108000
  C     -5.181000    7.623000    0.137000
  C      0.132000    4.307000    0.061000
  C     -0.569000    3.056000    0.047000
  C      1.649000    2.618000    0.023000
  C     -4.204000    4.024000    0.027000
  N     -4.358000    6.395000    0.079000
  N      0.388000    2.067000    0.025000
  N     -2.010000    0.395000   -0.075000
  N     -0.388000   -2.074000   -0.027000
  N      2.010000   -0.401000    0.065000
  C     -1.960000    2.861000    0.024000
  C     -2.623000    1.615000   -0.018000
  C     -5.573000   -4.329000    1.066000
  C     -4.073000    1.471000    0.056000
  C     -4.106000   -2.756000   -0.026000
  C     -4.995000   -2.757000   -1.111000
  C     -6.132000   -3.542000   -1.076000
  C     -7.651000   -5.113000    0.040000
  C     -4.324000    0.141000    0.037000
  C     -3.025000   -0.520000   -0.048000
  C     -4.422000   -3.566000    1.075000
  N     -6.407000   -4.313000    0.001000
  C     -2.867000   -1.922000   -0.040000
  C     -1.650000   -2.624000   -0.027000
  C      3.568000   -6.142000   -1.040000
  C     -1.476000   -4.049000   -0.034000
  C      2.803000   -4.099000   -0.008000
  C      3.657000   -4.384000    1.069000
  C      4.427000   -5.530000    1.059000
  C      5.245000   -7.588000    0.014000
  C     -0.134000   -4.315000   -0.022000
  C      0.568000   -3.064000   -0.027000
  C      2.775000   -5.012000   -1.074000
  N      4.376000   -6.391000    0.017000
  C      1.959000   -2.869000   -0.009000
  C      2.621000   -1.622000    0.009000
  C      5.543000    4.339000   -1.130000
  C      4.070000   -1.479000   -0.094000
  C      4.104000    2.751000   -0.021000
  C      5.027000    2.729000    1.036000
  C      6.166000    3.509000    0.978000
  C      7.619000    5.153000   -0.115000
  C      4.321000   -0.148000   -0.092000
  C      3.025000    0.514000    0.015000
  C      4.387000    3.582000   -1.115000
  C      2.866000    1.916000    0.013000
  N      6.413000    4.296000   -0.095000
  H     -6.038000    5.177000    0.011000
  H      2.274000    4.766000    0.081000
  H     -1.138000    5.486000    0.119000
  H     -2.602000    7.499000    0.149000
  H     -5.329000    7.903000    1.183000
  H     -4.662000    8.420000   -0.395000
  H     -6.142000    7.423000   -0.336000
  H     -0.332000    5.282000    0.069000
  H     -4.716000    3.070000   -0.020000
  H      0.182000    1.072000    0.005000
  H     -0.183000   -1.080000   -0.021000
  H     -5.864000   -4.962000    1.895000
  H     -4.794000    2.272000    0.139000
  H     -4.800000   -2.160000   -1.994000
  H     -6.841000   -3.582000   -1.893000
  H     -8.428000   -4.536000    0.546000
  H     -7.956000   -5.337000   -0.981000
  H     -7.456000   -6.037000    0.584000
  H     -5.287000   -0.344000    0.100000
  H     -3.780000   -3.601000    1.947000
  H      3.587000   -6.868000   -1.843000
  H     -2.276000   -4.774000   -0.050000
  H      3.714000   -3.724000    1.926000
  H      5.092000   -5.795000    1.871000
  H      6.205000   -7.329000   -0.439000
  H      5.393000   -7.917000    1.042000
  H      4.759000   -8.373000   -0.564000
  H      0.329000   -5.290000   -0.008000
  H      2.146000   -4.842000   -1.940000
  H      5.808000    4.986000   -1.956000
  H      4.788000   -2.281000   -0.185000
  H      4.860000    2.114000    1.912000
  H      6.901000    3.531000    1.772000
  H      7.383000    6.109000    0.356000
  H      8.414000    4.652000    0.435000
  H      7.921000    5.310000   -1.150000
  H      5.283000    0.336000   -0.179000
  H      3.720000    3.632000   -1.967000

----------------------------
CARTESIAN COORDINATES (A.U.)
----------------------------
  NO LB      ZA    FRAG     MASS         X           Y           Z
   0 C     6.0000    0    12.011   -9.363593    9.794451    0.075589
   1 C     6.0000    0    12.011    2.785456    7.636383    0.107714
   2 C     6.0000    0    12.011   -5.295013    7.734649    0.092597
   3 C     6.0000    0    12.011   -4.185743   10.142160    0.170075
   4 C     6.0000    0    12.011   -5.686186   12.275661    0.204090
   5 C     6.0000    0    12.011   -9.790671   14.405382    0.258892
   6 C     6.0000    0    12.011    0.249444    8.139050    0.115273
   7 C     6.0000    0    12.011   -1.075254    5.775003    0.088817
   8 C     6.0000    0    12.011    3.116158    4.947303    0.043464
   9 C     6.0000    0    12.011   -7.944409    7.604258    0.051023
  10 N     7.0000    0    14.007   -8.235426   12.084799    0.149288
  11 N     7.0000    0    14.007    0.733214    3.906064    0.047243
  12 N     7.0000    0    14.007   -3.798350    0.746442   -0.141729
  13 N     7.0000    0    14.007   -0.733214   -3.919292   -0.051023
  14 N     7.0000    0    14.007    3.798350   -0.757780    0.122832
  15 C     6.0000    0    12.011   -3.703863    5.406506    0.045353
  16 C     6.0000    0    12.011   -4.956752    3.051908   -0.034015
  17 C     6.0000    0    12.011  -10.531444   -8.180624    2.014448
  18 C     6.0000    0    12.011   -7.696855    2.779787    0.105825
  19 C     6.0000    0    12.011   -7.759216   -5.208085   -0.049133
  20 C     6.0000    0    12.011   -9.439182   -5.209975   -2.099486
  21 C     6.0000    0    12.011  -11.587801   -6.693410   -2.033345
  22 C     6.0000    0    12.011  -14.458295   -9.662170    0.075589
  23 C     6.0000    0    12.011   -8.171176    0.266451    0.069920
  24 C     6.0000    0    12.011   -5.716422   -0.982658   -0.090707
  25 C     6.0000    0    12.011   -8.356369   -6.738763    2.031456
  26 N     7.0000    0    14.007  -12.107475   -8.150389    0.001890
  27 C     6.0000    0    12.011   -5.417845   -3.632054   -0.075589
  28 C     6.0000    0    12.011   -3.118048   -4.958641   -0.051023
  29 C     6.0000    0    12.011    6.742543  -11.606698   -1.965315
  30 C     6.0000    0    12.011   -2.789236   -7.651501   -0.064251
  31 C     6.0000    0    12.011    5.296902   -7.745987   -0.015118
  32 C     6.0000    0    12.011    6.910728   -8.284559    2.020117
  33 C     6.0000    0    12.011    8.365818  -10.450186    2.001220
  34 C     6.0000    0    12.011    9.911614  -14.339242    0.026456
  35 C     6.0000    0    12.011   -0.253223   -8.154168   -0.041574
  36 C     6.0000    0    12.011    1.073364   -5.790121   -0.051023
  37 C     6.0000    0    12.011    5.243990   -9.471307   -2.029566
  38 N     7.0000    0    14.007    8.269442  -12.077240    0.032125
  39 C     6.0000    0    12.011    3.701973   -5.421624   -0.017008
  40 C     6.0000    0    12.011    4.952972   -3.065136    0.017008
  41 C     6.0000    0    12.011   10.474752    8.199522   -2.135391
  42 C     6.0000    0    12.011    7.691185   -2.794905   -0.177634
  43 C     6.0000    0    12.011    7.755436    5.198637   -0.039684
  44 C     6.0000    0    12.011    9.499653    5.157063    1.957756
  45 C     6.0000    0    12.011   11.652051    6.631049    1.848152
  46 C     6.0000    0    12.011   14.397823    9.737759   -0.217319
  47 C     6.0000    0    12.011    8.165507   -0.279679   -0.173855
  48 C     6.0000    0    12.011    5.716422    0.971319    0.028346
  49 C     6.0000    0    12.011    8.290229    6.768999   -2.107045
  50 C     6.0000    0    12.011    5.415955    3.620715    0.024566
  51 N     7.0000    0    14.007   12.118814    8.118263   -0.179524
  52 H     1.0000    0     1.008  -11.410166    9.783112    0.020787
  53 H     1.0000    0     1.008    4.297237    9.006435    0.153068
  54 H     1.0000    0     1.008   -2.150508   10.367038    0.224877
  55 H     1.0000    0     1.008   -4.917067   14.171056    0.281569
  56 H     1.0000    0     1.008  -10.070351   14.934506    2.235546
  57 H     1.0000    0     1.008   -8.809903   15.911494   -0.746442
  58 H     1.0000    0     1.008  -11.606698   14.027437   -0.634948
  59 H     1.0000    0     1.008   -0.627389    9.981533    0.130391
  60 H     1.0000    0     1.008   -8.911948    5.801459   -0.037795
  61 H     1.0000    0     1.008    0.343930    2.025786    0.009449
  62 H     1.0000    0     1.008   -0.345820   -2.040904   -0.039684
  63 H     1.0000    0     1.008  -11.081354   -9.376821    3.581031
  64 H     1.0000    0     1.008   -9.059347    4.293458    0.262672
  65 H     1.0000    0     1.008   -9.070685   -4.081808   -3.768114
  66 H     1.0000    0     1.008  -12.927616   -6.768999   -3.577252
  67 H     1.0000    0     1.008  -15.926612   -8.571798    1.031790
  68 H     1.0000    0     1.008  -15.034661  -10.085468   -1.853821
  69 H     1.0000    0     1.008  -14.089798  -11.408277    1.103600
  70 H     1.0000    0     1.008   -9.990982   -0.650066    0.188973
  71 H     1.0000    0     1.008   -7.143165   -6.804904    3.679297
  72 H     1.0000    0     1.008    6.778448  -12.978639   -3.482765
  73 H     1.0000    0     1.008   -4.301017   -9.021553   -0.094486
  74 H     1.0000    0     1.008    7.018443   -7.037340    3.639613
  75 H     1.0000    0     1.008    9.622485  -10.950963    3.535678
  76 H     1.0000    0     1.008   11.725751  -13.849803   -0.829590
  77 H     1.0000    0     1.008   10.191293  -14.960962    1.969095
  78 H     1.0000    0     1.008    8.993207  -15.822677   -1.065806
  79 H     1.0000    0     1.008    0.621720   -9.996651   -0.015118
  80 H     1.0000    0     1.008    4.055352   -9.150054   -3.666069
  81 H     1.0000    0     1.008   10.975529    9.422175   -3.696304
  82 H     1.0000    0     1.008    9.048009   -4.310465   -0.349599
  83 H     1.0000    0     1.008    9.184069    3.994881    3.613156
  84 H     1.0000    0     1.008   13.041000    6.672623    3.348595
  85 H     1.0000    0     1.008   13.951848   11.544337    0.672743
  86 H     1.0000    0     1.008   15.900156    8.791006    0.822031
  87 H     1.0000    0     1.008   14.968521   10.034446   -2.173185
  88 H     1.0000    0     1.008    9.983423    0.634948   -0.338261
  89 H     1.0000    0     1.008    7.029781    6.863485   -3.717091

--------------------------------
INTERNAL COORDINATES (ANGSTROEM)
--------------------------------
 C      0   0   0     0.000000000000     0.00000000     0.00000000
 C      1   0   0     6.529662625282     0.00000000     0.00000000
 C      1   2   0     2.413211553097    16.77924378     0.00000000
 C      3   1   2     1.403326761663    87.89347870     1.87517530
 C      4   3   1     1.380362633513   120.15230973     0.16711483
 C      5   4   3     2.447152222482   152.54367568     1.53690329
 C      2   1   3     1.368114030335     1.18204959   195.78522060
 C      7   2   4     1.434084376876   108.05010202   181.48379840
 C      2   1   3     1.434123425651   107.07483610     1.71245294
 C      1   2   7     1.381104992388    46.98981148   194.66301984
 N      1   2   7     1.351619029165    73.85134844    13.86155488
 N      9   2   1     1.376127174356   106.58526707   358.93495335
 N     12   9   2     2.925062050624   168.53581413   171.12065651
 N     13  12   9     2.954513327098    91.55032014    11.12112580
 N     14  13  12     2.925371258490    88.43092389   359.84326247
 C      8   7   2     1.404790019896   127.24786865   181.11170171
 C     13  12   9     1.366535034311    81.72106996   188.00453233
 C     14  13  12     5.758810554272    80.56209567   166.76250791
 C     17  13  12     1.459010623676   111.08861209   183.82872609
 C     18  14  13     2.412235892279    27.27532823    36.33507194
 C     20  18  14     1.402692767501    87.95206320   148.94598259
 C     21  20  18     1.382106725257   120.14573887   359.70382047
 C     18  14  13     2.446510985056   144.15733107    82.80075377
 C     19  17  13     1.353610726908   106.29293361   359.75308708
 C     13  12   9     1.366813447402   172.21332906    33.46711076
 C     18  14  13     1.380960173213    15.08449437   309.23336894
 N     22  21  20     1.352773077792   120.73759875     0.27865223
 C     25  13  17     1.410897586645   125.60330303   182.37774668
 C     14  13  12     1.376642291955    80.24689249   177.85461986
 C     14  13  12     5.764089607215   164.51507311   312.20821879
 C     29  14  13     1.435600919476   106.58649366   178.76395472
 C     30  14  13     2.413316804732    27.10625047    82.12560436
 C     32  30  14     1.403734305344    87.90059683   149.76154742
 C     33  32  30     1.380694028378   120.14881443   359.74174632
 C     34  33  32     2.448777858443   152.49203239     2.45173620
 C     31  29  14     1.368160809262   108.16950133     0.70383075
 C     14  13  12     1.376239804685   169.26375223   353.09862627
 C     30  14  13     1.380907310430    14.68948582   353.70041132
 N     34  33  32     1.352658863128   120.85575621     0.19603406
 C     37  14  29     1.404717053360   126.01551127   180.90772073
 C     15  14  13     1.366491126938    81.61824056   183.09049352
 C      2   1   3     4.249062720177   158.41407124   130.25691954
 C     41  15  14     1.459677704153   111.05201287   175.08990246
 C     42   2   1     2.412953791518    41.78584867   204.83691553
 C     44  42   2     1.403446472082    87.95153797   233.97558675
 C     45  44  42     1.381696421071   120.11137308     0.19721020
 C     42   2   1     2.450019795838   135.97209175   115.15176463
 C     43  41  15     1.354461516618   106.26758155     0.30894352
 C     15  14  13     1.367461151185   171.87382904   332.35056460
 C     42   2   1     1.381886391857    32.59078432   253.69219472
 C      9   2   1     1.404988612053   126.98745415   179.93929087
 N     42   2   1     1.352765315936   113.57249190   142.88835383
 H      1   2   7     1.083404818154   169.51954296   187.89207079
 H      2   1   3     1.079907866440   127.73611009   181.74033199
 H      4   3   1     1.083942341640   121.06842467   179.49408588
 H      5   4   3     1.083207736309   122.79974150   179.40303456
 H      6   5   4     1.092895237431   104.44940871   100.12656560
 H      6   5   4     1.089767865190    84.74011992   209.60074934
 H      6   5   4     1.089610021980   133.87792231   322.45830498
 H     55   4   3     0.832917763047   158.90582762    12.63330433
 H     10   1   2     1.083729209720   118.83159527   181.83337808
 H     12   9   2     1.016297692608   125.29023241   180.00180175
 H     14  13  12     1.014936943854    44.97226959   359.42596618
 H     18  14  13     1.082871645210   128.03556573   234.20482432
 H     61  10   1     0.817416050735   153.64103357   210.99087235
 H     21  20  18     1.083569563987   121.05669627   180.67006309
 H     22  21  20     1.082483256222   122.73097286   180.59748951
 H     23  18  14     1.092105306278   103.92715769   234.93429879
 H     23  18  14     1.088871893291   134.19244188    12.25587044
 H     23  18  14     1.089833473518    84.85857450   125.45241208
 H     24  19  17     1.080075460327   127.28078426   178.44613241
 H     26  18  14     1.083408048706   118.76995697   244.94906660
 H     30  14  13     1.082703098730   127.99711412   279.66882698
 H     31  29  14     1.079759695488   125.22293469   180.92530585
 H     33  32  30     1.083188810873   121.01964473   180.74284758
 H     34  33  32     1.082494341787   122.70821597   180.59516895
 H     35  34  33     1.092652735319   105.73575241    97.19771933
 H     35  34  33     1.089462711615    84.05943581   206.43036958
 H     35  34  33     1.089268102902   133.08365142   318.50306270
 H     36  31  29     1.079439669458   126.61599965   178.98859863
 H     38  30  73     1.083742127999   118.77264435   359.90091293
 H     42   2   1     1.082178358682   119.31790784   359.51988428
 H     43  41  15     1.080281907652   126.36969097   182.06329380
 H     45  44  42     1.083277434455   121.10105945   179.58025624
 H     46  45  44     1.082194529648   122.72144639   179.46906377
 H     47  42   2     1.091546151109   106.65128841   315.16475048
 H     47  42   2     1.088818625851   132.46019523    94.52397119
 H     47  42   2     1.089531091801    83.63838232   206.04504406
 H     48  43  41     1.080402239909   127.23657387   181.62955349
 H     50  42   2     1.083186502870   118.77001737    94.71359229

---------------------------
INTERNAL COORDINATES (A.U.)
---------------------------
 C      0   0   0     0.000000000000     0.00000000     0.00000000
 C      1   0   0    12.339274108684     0.00000000     0.00000000
 C      1   2   0     4.560308938568    16.77924378     0.00000000
 C      3   1   2     2.651903255946    87.89347870     1.87517530
 C      4   3   1     2.608507342839   120.15230973     0.16711483
 C      5   4   3     4.624447508508   152.54367568     1.53690329
 C      2   1   3     2.585360837309     1.18204959   195.78522060
 C      7   2   4     2.710026725231   108.05010202   181.48379840
 C      2   1   3     2.710100516721   107.07483610     1.71245294
 C      1   2   7     2.609910197805    46.98981148   194.66301984
 N      1   2   7     2.554189802518    73.85134844    13.86155488
 N      9   2   1     2.600503484979   106.58526707   358.93495335
 N     12   9   2     5.527566200405   168.53581413   171.12065651
 N     13  12   9     5.583221047236    91.55032014    11.12112580
 N     14  13  12     5.528150518591    88.43092389   359.84326247
 C      8   7   2     2.654668413270   127.24786865   181.11170171
 C     13  12   9     2.582376967257    81.72106996   188.00453233
 C     14  13  12    10.882574804710    80.56209567   166.76250791
 C     17  13  12     2.757130505230   111.08861209   183.82872609
 C     18  14  13     4.558465206823    27.27532823    36.33507194
 C     20  18  14     2.650705180609    87.95206320   148.94598259
 C     21  20  18     2.611803198586   120.14573887   359.70382047
 C     18  14  13     4.623235745386   144.15733107    82.80075377
 C     19  17  13     2.557953565794   106.29293361   359.75308708
 C     13  12   9     2.582903091751   172.21332906    33.46711076
 C     18  14  13     2.609636529225    15.08449437   309.23336894
 N     22  21  20     2.556370638369   120.73759875     0.27865223
 C     25  13  17     2.666210041769   125.60330303   182.37774668
 C     14  13  12     2.601476916169    80.24689249   177.85461986
 C     14  13  12    10.892550769017   164.51507311   312.20821879
 C     29  14  13     2.712892575415   106.58649366   178.76395472
 C     30  14  13     4.560507835333    27.10625047    82.12560436
 C     32  30  14     2.652673401891    87.90059683   149.76154742
 C     33  32  30     2.609133588376   120.14881443   359.74174632
 C     34  33  32     4.627519515267   152.49203239     2.45173620
 C     31  29  14     2.585449236669   108.16950133     0.70383075
 C     14  13  12     2.600716325456   169.26375223   353.09862627
 C     30  14  13     2.609536633043    14.68948582   353.70041132
 N     34  33  32     2.556154803934   120.85575621     0.19603406
 C     37  14  29     2.654530526499   126.01551127   180.90772073
 C     15  14  13     2.582293994346    81.61824056   183.09049352
 C      2   1   3     8.029564866989   158.41407124   130.25691954
 C     41  15  14     2.758391104639   111.05201287   175.08990246
 C     42   2   1     4.559821839776    41.78584867   204.83691553
 C     44  42   2     2.652129475853    87.95153797   233.97558675
 C     45  44  42     2.611027836043   120.11137308     0.19721020
 C     42   2   1     4.629866436820   135.97209175   115.15176463
 C     43  41  15     2.559561325344   106.26758155     0.30894352
 C     15  14  13     2.584127074516   171.87382904   332.35056460
 C     42   2   1     2.611386828803    32.59078432   253.69219472
 C      9   2   1     2.655043698059   126.98745415   179.93929087
 N     42   2   1     2.556355970587   113.57249190   142.88835383
 H      1   2   7     2.047338398482   169.51954296   187.89207079
 H      2   1   3     2.040730117440   127.73611009   181.74033199
 H      4   3   1     2.048354170661   121.06842467   179.49408588
 H      5   4   3     2.046965967769   122.79974150   179.40303456
 H      6   5   4     2.065272691812   104.44940871   100.12656560
 H      6   5   4     2.059362814756    84.74011992   209.60074934
 H      6   5   4     2.059064534319   133.87792231   322.45830498
 H     55   4   3     1.573986464238   158.90582762    12.63330433
 H     10   1   2     2.047951409701   118.83159527   181.83337808
 H     12   9   2     1.920524309565   125.29023241   180.00180175
 H     14  13  12     1.917952867083    44.97226959   359.42596618
 H     18  14  13     2.046330847636   128.03556573   234.20482432
 H     61  10   1     1.544692473362   153.64103357   210.99087235
 H     21  20  18     2.047649722989   121.05669627   180.67006309
 H     22  21  20     2.045596898814   122.73097286   180.59748951
 H     23  18  14     2.063779938267   103.92715769   234.93429879
 H     23  18  14     2.057669673245   134.19244188    12.25587044
 H     23  18  14     2.059486796529    84.85857450   125.45241208
 H     24  19  17     2.041046823986   127.28078426   178.44613241
 H     26  18  14     2.047344503340   118.76995697   244.94906660
 H     30  14  13     2.046012340948   127.99711412   279.66882698
 H     31  29  14     2.040450114918   125.22293469   180.92530585
 H     33  32  30     2.046930203877   121.01964473   180.74284758
 H     34  33  32     2.045617847496   122.70821597   180.59516895
 H     35  34  33     2.064814429233   105.73575241    97.19771933
 H     35  34  33     2.058786158072    84.05943581   206.43036958
 H     35  34  33     2.058418400901   133.08365142   318.50306270
 H     36  31  29     2.039845353366   126.61599965   178.98859863
 H     38  30  73     2.047975821711   118.77264435   359.90091293
 H     42   2   1     2.045020725966   119.31790784   359.51988428
 H     43  41  15     2.041436952892   126.36969097   182.06329380
 H     45  44  42     2.047097678177   121.10105945   179.58025624
 H     46  45  44     2.045051284662   122.72144639   179.46906377
 H     47  42   2     2.062723288131   106.65128841   315.16475048
 H     47  42   2     2.057569012371   132.46019523    94.52397119
 H     47  42   2     2.058915377895    83.63838232   206.04504406
 H     48  43  41     2.041664347903   127.23657387   181.62955349
 H     50  42   2     2.046925842384   118.77001737    94.71359229

---------------------
BASIS SET INFORMATION
---------------------
There are 3 groups of distinct atoms

 Group   1 Type C   : 17s4p1d contracted to 3s2p1d pattern {881/31/1}
 Group   2 Type N   : 17s4p1d contracted to 3s2p1d pattern {881/31/1}
 Group   3 Type H   : 4s1p contracted to 2s1p pattern {31/1}

Atom   0C    basis set group =>   1
Atom   1N    basis set group =>   2
Atom   2C    basis set group =>   1
Atom   3N    basis set group =>   2
Atom   4C    basis set group =>   1
Atom   5N    basis set group =>   2
Atom   6C    basis set group =>   1
Atom   7N    basis set group =>   2
Atom   8C    basis set group =>   1
Atom   9N    basis set group =>   2
Atom  10C    basis set group =>   1
Atom  11N    basis set group =>   2
Atom  12C    basis set group =>   1
Atom  13N    basis set group =>   2
Atom  14C    basis set group =>   1
Atom  15N    basis set group =>   2
Atom  16C    basis set group =>   1
Atom  17C    basis set group =>   1
Atom  18C    basis set group =>   1
Atom  19C    basis set group =>   1
Atom  20C    basis set group =>   1
Atom  21C    basis set group =>   1
Atom  22C    basis set group =>   1
Atom  23C    basis set group =>   1
Atom  24C    basis set group =>   1
Atom  25C    basis set group =>   1
Atom  26C    basis set group =>   1
Atom  27C    basis set group =>   1
Atom  28C    basis set group =>   1
Atom  29C    basis set group =>   1
Atom  30C    basis set group =>   1
Atom  31C    basis set group =>   1
Atom  32C    basis set group =>   1
Atom  33C    basis set group =>   1
Atom  34C    basis set group =>   1
Atom  35C    basis set group =>   1
Atom  36C    basis set group =>   1
Atom  37C    basis set group =>   1
Atom  38C    basis set group =>   1
Atom  39C    basis set group =>   1
Atom  40C    basis set group =>   1
Atom  41C    basis set group =>   1
Atom  42C    basis set group =>   1
Atom  43C    basis set group =>   1
Atom  44C    basis set group =>   1
Atom  45C    basis set group =>   1
Atom  46C    basis set group =>   1
Atom  47C    basis set group =>   1
Atom  48C    basis set group =>   1
Atom  49C    basis set group =>   1
Atom  50C    basis set group =>   1
Atom  51C    basis set group =>   1
Atom  52H    basis set group =>   3
Atom  53H    basis set group =>   3
Atom  54H    basis set group =>   3
Atom  55H    basis set group =>   3
Atom  56H    basis set group =>   3
Atom  57H    basis set group =>   3
Atom  58H    basis set group =>   3
Atom  59H    basis set group =>   3
Atom  60H    basis set group =>   3
Atom  61H    basis set group =>   3
Atom  62H    basis set group =>   3
Atom  63H    basis set group =>   3
Atom  64H    basis set group =>   3
Atom  65H    basis set group =>   3
Atom  66H    basis set group =>   3
Atom  67H    basis set group =>   3
Atom  68H    basis set group =>   3
Atom  69H    basis set group =>   3
Atom  70H    basis set group =>   3
Atom  71H    basis set group =>   3
Atom  72H    basis set group =>   3
Atom  73H    basis set group =>   3
Atom  74H    basis set group =>   3
Atom  75H    basis set group =>   3
Atom  76H    basis set group =>   3
Atom  77H    basis set group =>   3
Atom  78H    basis set group =>   3
Atom  79H    basis set group =>   3
Atom  80H    basis set group =>   3
Atom  81H    basis set group =>   3
Atom  82H    basis set group =>   3
Atom  83H    basis set group =>   3
Atom  84H    basis set group =>   3
Atom  85H    basis set group =>   3
Atom  86H    basis set group =>   3
Atom  87H    basis set group =>   3
Atom  88H    basis set group =>   3
Atom  89H    basis set group =>   3


           ************************************************************
           *        Program running with 16 parallel MPI-processes    *
           *              working on a common directory               *
           ************************************************************
------------------------------------------------------------------------------
                           ORCA GTO INTEGRAL CALCULATION
------------------------------------------------------------------------------
------------------------------------------------------------------------------
                   ___                                                        
                  /   \      - P O W E R E D   B Y -                         
                 /     \                                                     
                 |  |  |   _    _      __       _____    __    __             
                 |  |  |  | |  | |    /  \     |  _  \  |  |  /  |          
                  \  \/   | |  | |   /    \    | | | |  |  | /  /          
                 / \  \   | |__| |  /  /\  \   | |_| |  |  |/  /          
                |  |  |   |  __  | /  /__\  \  |    /   |      \           
                |  |  |   | |  | | |   __   |  |    \   |  |\   \          
                \     /   | |  | | |  |  |  |  | |\  \  |  | \   \       
                 \___/    |_|  |_| |__|  |__|  |_| \__\ |__|  \__/        
                                                                              
                      - O R C A' S   B I G   F R I E N D -                    
                                      &                                       
                       - I N T E G R A L  F E E D E R -                       
                                                                              
 v1 FN, 2020, v2 2021                                                         
------------------------------------------------------------------------------


Reading SHARK input file /scratch/allen/tmpyp4_amber_gaff2/conf1/conf1/Conf181.orca.SHARKINP.tmp ... ok
----------------------
SHARK INTEGRAL PACKAGE
----------------------

Number of atoms                             ...     90
Number of basis functions                   ...   1230
Number of shells                            ...    738
Maximum angular momentum                    ...      2
Integral batch strategy                     ... SHARK/LIBINT Hybrid
RI-J (if used) integral strategy            ... SPLIT-RIJ (Revised 2003 algorithm where possible)
Printlevel                                  ...      1
Contraction scheme used                     ... PARTIAL GENERAL contraction
Coulomb Range Separation                    ... NOT USED
Exchange Range Separation                   ... NOT USED
Finite Nucleus Model                        ... NOT USED
Auxiliary Coulomb fitting basis             ... NOT available
Auxiliary J/K fitting basis                 ... NOT available
Auxiliary Correlation fitting basis         ... NOT available
Auxiliary 'external' fitting basis          ... NOT available
Integral threshold                          ...     2.500000e-11
Primitive cut-off                           ...     2.500000e-12
Primitive pair pre-selection threshold      ...     2.500000e-12

Calculating pre-screening integrals         ... done (  0.1 sec) Dimension = 738
Calculating pre-screening integrals (ORCA)  ... done (  0.3 sec) Dimension = 426
Organizing shell pair data                  ... done (  0.7 sec)
Shell pair information
Total number of shell pairs                 ...    272691
Shell pairs after pre-screening             ...     71731
Total number of primitive shell pairs       ...    422091
Primitive shell pairs kept                  ...     92640
          la=0 lb=0:  29439 shell pairs
          la=1 lb=0:  26038 shell pairs
          la=1 lb=1:   4699 shell pairs
          la=2 lb=0:   7896 shell pairs
          la=2 lb=1:   3130 shell pairs
          la=2 lb=2:    529 shell pairs

Calculating one electron integrals          ... done (  0.2 sec)
Calculating Nuclear repulsion               ... done (  0.0 sec) ENN=   6235.883419870787 Eh

SHARK setup successfully completed in   2.3 seconds

Maximum memory used throughout the entire GTOINT-calculation: 99.1 MB


           ************************************************************
           *        Program running with 16 parallel MPI-processes    *
           *              working on a common directory               *
           ************************************************************
-------------------------------------------------------------------------------
                                 ORCA SCF
-------------------------------------------------------------------------------

------------
SCF SETTINGS
------------
Hamiltonian:
 Ab initio Hamiltonian  Method          .... Hartree-Fock(GTOs)


General Settings:
 Integral files         IntName         .... /scratch/allen/tmpyp4_amber_gaff2/conf1/conf1/Conf181.orca
 Hartree-Fock type      HFTyp           .... RHF
 Total Charge           Charge          ....    0
 Multiplicity           Mult            ....    1
 Number of Electrons    NEL             ....  358
 Basis Dimension        Dim             ....  918
 Nuclear Repulsion      ENuc            ....   6235.8834198708 Eh

Convergence Acceleration:
 DIIS                   CNVDIIS         .... on
   Start iteration      DIISMaxIt       ....    12
   Startup error        DIISStart       ....  0.200000
   # of expansion vecs  DIISMaxEq       ....     5
   Bias factor          DIISBfac        ....   1.050
   Max. coefficient     DIISMaxC        ....  10.000
 Trust-Rad. Augm. Hess. CNVTRAH         .... auto
   Auto Start mean grad. ratio tolernc. ....  1.125000
   Auto Start start iteration           ....    20
   Auto Start num. interpolation iter.  ....    10
   Max. Number of Micro iterations      ....    16
   Max. Number of Macro iterations      .... Maxiter - #DIIS iter
   Number of Davidson start vectors     ....     2
   Converg. threshold I  (grad. norm)   ....   1.000e-05
   Converg. threshold II (energy diff.) ....   1.000e-08
   Grad. Scal. Fac. for Micro threshold ....   0.100
   Minimum threshold for Micro iter.    ....   0.010
   NR start threshold (gradient norm)   ....   0.001
   Initial trust radius                 ....   0.400
   Minimum AH scaling param. (alpha)    ....   1.000
   Maximum AH scaling param. (alpha)    .... 1000.000
   Orbital update algorithm             .... Taylor
   White noise on init. David. guess    .... on
   Maximum white noise                  ....   0.010
   Quad. conv. algorithm                .... NR
 SOSCF                  CNVSOSCF        .... on
   Start iteration      SOSCFMaxIt      ....   150
   Startup grad/error   SOSCFStart      ....  0.003300
 Level Shifting         CNVShift        .... on
   Level shift para.    LevelShift      ....    0.2500
   Turn off err/grad.   ShiftErr        ....    0.0010
 Zerner damping         CNVZerner       .... off
 Static damping         CNVDamp         .... on
   Fraction old density DampFac         ....    0.7000
   Max. Damping (<1)    DampMax         ....    0.9800
   Min. Damping (>=0)   DampMin         ....    0.0000
   Turn off err/grad.   DampErr         ....    0.1000
 Fernandez-Rico         CNVRico         .... off

SCF Procedure:
 Maximum # iterations   MaxIter         ....   125
 SCF integral mode      SCFMode         .... Direct
   Integral package                     .... SHARK and LIBINT hybrid scheme
 Reset frequency        DirectResetFreq ....    20
 Integral Threshold     Thresh          ....  2.500e-11 Eh
 Primitive CutOff       TCut            ....  2.500e-12 Eh

Convergence Tolerance:
 Convergence Check Mode ConvCheckMode   .... Total+1el-Energy
 Convergence forced     ConvForced      .... 1
 Energy Change          TolE            ....  1.000e-08 Eh
 1-El. energy change                    ....  1.000e-05 Eh
 Orbital Gradient       TolG            ....  1.000e-05
 Orbital Rotation angle TolX            ....  1.000e-05
 DIIS Error             TolErr          ....  5.000e-07


Diagonalization of the overlap matrix:
Smallest eigenvalue                        ... 1.594e-04
Time for diagonalization                   ...    0.445 sec
Threshold for overlap eigenvalues          ... 1.000e-08
Number of eigenvalues below threshold      ... 0
Time for construction of square roots      ...    0.270 sec
Total time needed                          ...    0.722 sec

Time for model grid setup =    1.297 sec

------------------------------
INITIAL GUESS: MODEL POTENTIAL
------------------------------
Loading Hartree-Fock densities                     ... done
Calculating cut-offs                               ... done
Initializing the effective Hamiltonian             ... done
Setting up the integral package (SHARK)            ... done
Starting the Coulomb interaction                   ... done (   1.4 sec)
Reading the grid                                   ... done
Mapping shells                                     ... done
Starting the XC term evaluation                    ... done (   0.2 sec)
Transforming the Hamiltonian                       ... done (   0.3 sec)
Diagonalizing the Hamiltonian                      ... done (   0.4 sec)
Back transforming the eigenvectors                 ... done (   0.1 sec)
Now organizing SCF variables                       ... done
                      ------------------
                      INITIAL GUESS DONE (   3.8 sec)
                      ------------------
--------------
SCF ITERATIONS
--------------
ITER       Energy         Delta-E        Max-DP      RMS-DP      [F,P]     Damp
               ***  Starting incremental Fock matrix formation  ***
  0  -2121.5533179118   0.000000000000 0.07907365  0.00131343  0.2310135 0.7000
  1  -2122.1908916836  -0.637573771857 0.07155323  0.00106048  0.1434251 0.7000
                               ***Turning on DIIS***
  2  -2122.5895365053  -0.398644821680 0.14123960  0.00241129  0.0803388 0.0000
  3  -2118.0591728755   4.530363629856 0.10602387  0.00070100  0.0433650 0.0000
  4  -2123.2982047597  -5.239031884206 0.03071066  0.00023301  0.0094152 0.0000
  5  -2123.4165115726  -0.118306812952 0.01415229  0.00013417  0.0047982 0.0000
  6  -2123.4003464111   0.016165161545 0.00832667  0.00008456  0.0022778 0.0000
  7  -2123.4917460379  -0.091399626785 0.00491626  0.00006587  0.0016504 0.0000
  8  -2123.4969966894  -0.005250651528 0.00376902  0.00006302  0.0015479 0.0000
  9  -2123.4714029794   0.025593709983 0.00271065  0.00004529  0.0012478 0.0000
 10  -2123.4785554052  -0.007152425767 0.00548925  0.00009535  0.0009812 0.0000
                      *** Initiating the SOSCF procedure ***
                           *** Shutting down DIIS ***
                      *** Re-Reading the Fockian *** 
                      *** Removing any level shift *** 
ITER      Energy       Delta-E        Grad      Rot      Max-DP    RMS-DP
 11  -2123.37353390   0.1050215083  0.000190  0.000190  0.000250  0.000005
               *** Restarting incremental Fock matrix formation ***
 12  -2123.43897974  -0.0654458420  0.000952  0.006374  0.001534  0.000035
 13  -2123.43909183  -0.0001120948  0.001153  0.031569  0.007013  0.000136
 14  -2123.43927500  -0.0001831632  0.000412  0.002204  0.000647  0.000013
 15  -2123.43929019  -0.0000151911  0.000167  0.001911  0.000464  0.000012
 16  -2123.43929622  -0.0000060281  0.000131  0.001988  0.000516  0.000008
 17  -2123.43929866  -0.0000024396  0.000114  0.001687  0.000275  0.000007
 18  -2123.43929966  -0.0000010063  0.000055  0.000794  0.000197  0.000003
 19  -2123.43930025  -0.0000005902  0.000041  0.001320  0.000215  0.000005
 20  -2123.43930063  -0.0000003741  0.000023  0.000756  0.000121  0.000003
 21  -2123.43930079  -0.0000001600  0.000026  0.000973  0.000145  0.000003
 22  -2123.43930094  -0.0000001587  0.000019  0.000967  0.000149  0.000003
 23  -2123.43930105  -0.0000001058  0.000014  0.000397  0.000068  0.000001
 24  -2123.43930110  -0.0000000446  0.000007  0.000298  0.000051  0.000001
 25  -2123.43930112  -0.0000000282  0.000007  0.000117  0.000037  0.000000
 26  -2123.43930114  -0.0000000147  0.000006  0.000072  0.000028  0.000000
                  ***Gradient check signals convergence***
              ***Rediagonalizing the Fockian in SOSCF/NRSCF***

               *****************************************************
               *                     SUCCESS                       *
               *           SCF CONVERGED AFTER  27 CYCLES          *
               *****************************************************


----------------
TOTAL SCF ENERGY
----------------

Total Energy       :        -2123.43930114 Eh          -57781.72095 eV

Components:
Nuclear Repulsion  :         6235.88341987 Eh          169687.01458 eV
Electronic Energy  :        -8359.32272101 Eh         -227468.73553 eV
One Electron Energy:       -15312.16430044 Eh         -416665.17346 eV
Two Electron Energy:         6952.84157943 Eh          189196.43794 eV

Virial components:
Potential Energy   :        -4246.09976481 Eh         -115542.24865 eV
Kinetic Energy     :         2122.66046367 Eh           57760.52770 eV
Virial Ratio       :            2.00036692


---------------
SCF CONVERGENCE
---------------

  Last Energy change         ...   -3.6889e-09  Tolerance :   1.0000e-08
  Last MAX-Density change    ...    1.8418e-05  Tolerance :   1.0000e-07
  Last RMS-Density change    ...    3.0404e-07  Tolerance :   5.0000e-09
  Last Orbital Gradient      ...    2.4915e-06  Tolerance :   1.0000e-05
  Last Orbital Rotation      ...    5.5599e-05  Tolerance :   1.0000e-05

             **** THE GBW FILE WAS UPDATED (/scratch/allen/tmpyp4_amber_gaff2/conf1/conf1/Conf181.orca.gbw) ****
             **** DENSITY /scratch/allen/tmpyp4_amber_gaff2/conf1/conf1/Conf181.orca.scfp WAS UPDATED ****
             **** ENERGY FILE WAS UPDATED (/scratch/allen/tmpyp4_amber_gaff2/conf1/conf1/Conf181.orca.en.tmp) ****
             **** THE GBW FILE WAS UPDATED (/scratch/allen/tmpyp4_amber_gaff2/conf1/conf1/Conf181.orca.gbw) ****
             **** DENSITY /scratch/allen/tmpyp4_amber_gaff2/conf1/conf1/Conf181.orca.scfp WAS UPDATED ****
----------------
ORBITAL ENERGIES
----------------

  NO   OCC          E(Eh)            E(eV) 
   0   2.0000     -15.679813      -426.6694 
   1   2.0000     -15.634099      -425.4255 
   2   2.0000     -15.631554      -425.3562 
   3   2.0000     -15.588053      -424.1725 
   4   2.0000     -15.525020      -422.4573 
   5   2.0000     -15.515389      -422.1952 
   6   2.0000     -15.453618      -420.5143 
   7   2.0000     -15.439458      -420.1290 
   8   2.0000     -11.329439      -308.2897 
   9   2.0000     -11.328345      -308.2599 
  10   2.0000     -11.327928      -308.2486 
  11   2.0000     -11.299408      -307.4725 
  12   2.0000     -11.298223      -307.4403 
  13   2.0000     -11.293120      -307.3014 
  14   2.0000     -11.291020      -307.2443 
  15   2.0000     -11.286642      -307.1252 
  16   2.0000     -11.286252      -307.1145 
  17   2.0000     -11.282054      -307.0003 
  18   2.0000     -11.269486      -306.6583 
  19   2.0000     -11.263311      -306.4903 
  20   2.0000     -11.262317      -306.4632 
  21   2.0000     -11.250096      -306.1307 
  22   2.0000     -11.248445      -306.0858 
  23   2.0000     -11.237862      -305.7978 
  24   2.0000     -11.236347      -305.7565 
  25   2.0000     -11.231218      -305.6170 
  26   2.0000     -11.230550      -305.5988 
  27   2.0000     -11.229555      -305.5717 
  28   2.0000     -11.229361      -305.5665 
  29   2.0000     -11.211098      -305.0695 
  30   2.0000     -11.209542      -305.0271 
  31   2.0000     -11.193950      -304.6029 
  32   2.0000     -11.192421      -304.5613 
  33   2.0000     -11.191168      -304.5272 
  34   2.0000     -11.188197      -304.4463 
  35   2.0000     -11.187878      -304.4376 
  36   2.0000     -11.186672      -304.4048 
  37   2.0000     -11.174621      -304.0769 
  38   2.0000     -11.172438      -304.0175 
  39   2.0000     -11.170667      -303.9693 
  40   2.0000     -11.169799      -303.9457 
  41   2.0000     -11.168488      -303.9100 
  42   2.0000     -11.166449      -303.8545 
  43   2.0000     -11.161615      -303.7230 
  44   2.0000     -11.161213      -303.7121 
  45   2.0000     -11.156575      -303.5858 
  46   2.0000     -11.156426      -303.5818 
  47   2.0000     -11.150591      -303.4230 
  48   2.0000     -11.147056      -303.3268 
  49   2.0000     -11.135878      -303.0226 
  50   2.0000     -11.129873      -302.8592 
  51   2.0000     -11.117968      -302.5353 
  52   2.0000      -1.360385       -37.0179 
  53   2.0000      -1.321326       -35.9551 
  54   2.0000      -1.319387       -35.9024 
  55   2.0000      -1.280279       -34.8382 
  56   2.0000      -1.226143       -33.3651 
  57   2.0000      -1.210363       -32.9356 
  58   2.0000      -1.173258       -31.9260 
  59   2.0000      -1.150840       -31.3159 
  60   2.0000      -1.143603       -31.1190 
  61   2.0000      -1.110360       -30.2144 
  62   2.0000      -1.108762       -30.1710 
  63   2.0000      -1.082057       -29.4443 
  64   2.0000      -1.077418       -29.3180 
  65   2.0000      -1.045507       -28.4497 
  66   2.0000      -1.044053       -28.4101 
  67   2.0000      -1.041049       -28.3284 
  68   2.0000      -1.015274       -27.6270 
  69   2.0000      -1.014814       -27.6145 
  70   2.0000      -1.009124       -27.4597 
  71   2.0000      -0.993544       -27.0357 
  72   2.0000      -0.985609       -26.8198 
  73   2.0000      -0.981867       -26.7180 
  74   2.0000      -0.974397       -26.5147 
  75   2.0000      -0.962119       -26.1806 
  76   2.0000      -0.954702       -25.9788 
  77   2.0000      -0.946844       -25.7649 
  78   2.0000      -0.939367       -25.5615 
  79   2.0000      -0.916676       -24.9440 
  80   2.0000      -0.910631       -24.7795 
  81   2.0000      -0.898738       -24.4559 
  82   2.0000      -0.877495       -23.8779 
  83   2.0000      -0.872386       -23.7388 
  84   2.0000      -0.870801       -23.6957 
  85   2.0000      -0.861838       -23.4518 
  86   2.0000      -0.845247       -23.0003 
  87   2.0000      -0.839296       -22.8384 
  88   2.0000      -0.829526       -22.5726 
  89   2.0000      -0.796327       -21.6691 
  90   2.0000      -0.789306       -21.4781 
  91   2.0000      -0.776568       -21.1315 
  92   2.0000      -0.753046       -20.4914 
  93   2.0000      -0.734422       -19.9846 
  94   2.0000      -0.729274       -19.8446 
  95   2.0000      -0.726708       -19.7747 
  96   2.0000      -0.720587       -19.6082 
  97   2.0000      -0.717898       -19.5350 
  98   2.0000      -0.714004       -19.4290 
  99   2.0000      -0.699984       -19.0475 
 100   2.0000      -0.698368       -19.0036 
 101   2.0000      -0.694572       -18.9003 
 102   2.0000      -0.685420       -18.6512 
 103   2.0000      -0.684302       -18.6208 
 104   2.0000      -0.679005       -18.4767 
 105   2.0000      -0.674410       -18.3516 
 106   2.0000      -0.672793       -18.3076 
 107   2.0000      -0.660948       -17.9853 
 108   2.0000      -0.658212       -17.9109 
 109   2.0000      -0.652969       -17.7682 
 110   2.0000      -0.651929       -17.7399 
 111   2.0000      -0.646220       -17.5845 
 112   2.0000      -0.645730       -17.5712 
 113   2.0000      -0.638251       -17.3677 
 114   2.0000      -0.635382       -17.2896 
 115   2.0000      -0.628650       -17.1064 
 116   2.0000      -0.623109       -16.9557 
 117   2.0000      -0.620585       -16.8870 
 118   2.0000      -0.612975       -16.6799 
 119   2.0000      -0.612362       -16.6632 
 120   2.0000      -0.611782       -16.6474 
 121   2.0000      -0.611204       -16.6317 
 122   2.0000      -0.601388       -16.3646 
 123   2.0000      -0.589554       -16.0426 
 124   2.0000      -0.581749       -15.8302 
 125   2.0000      -0.580699       -15.8016 
 126   2.0000      -0.580370       -15.7927 
 127   2.0000      -0.571042       -15.5388 
 128   2.0000      -0.566599       -15.4179 
 129   2.0000      -0.559874       -15.2350 
 130   2.0000      -0.555984       -15.1291 
 131   2.0000      -0.547769       -14.9055 
 132   2.0000      -0.542746       -14.7689 
 133   2.0000      -0.540305       -14.7024 
 134   2.0000      -0.538871       -14.6634 
 135   2.0000      -0.535979       -14.5847 
 136   2.0000      -0.531918       -14.4742 
 137   2.0000      -0.517995       -14.0954 
 138   2.0000      -0.516870       -14.0648 
 139   2.0000      -0.514015       -13.9871 
 140   2.0000      -0.511725       -13.9248 
 141   2.0000      -0.510088       -13.8802 
 142   2.0000      -0.507545       -13.8110 
 143   2.0000      -0.505643       -13.7593 
 144   2.0000      -0.502044       -13.6613 
 145   2.0000      -0.495626       -13.4867 
 146   2.0000      -0.488449       -13.2914 
 147   2.0000      -0.481303       -13.0969 
 148   2.0000      -0.476180       -12.9575 
 149   2.0000      -0.467720       -12.7273 
 150   2.0000      -0.466108       -12.6835 
 151   2.0000      -0.456059       -12.4100 
 152   2.0000      -0.451245       -12.2790 
 153   2.0000      -0.445259       -12.1161 
 154   2.0000      -0.438039       -11.9196 
 155   2.0000      -0.427807       -11.6412 
 156   2.0000      -0.409056       -11.1310 
 157   2.0000      -0.390927       -10.6377 
 158   2.0000      -0.387761       -10.5515 
 159   2.0000      -0.382756       -10.4153 
 160   2.0000      -0.378299       -10.2940 
 161   2.0000      -0.373175       -10.1546 
 162   2.0000      -0.359387        -9.7794 
 163   2.0000      -0.356734        -9.7072 
 164   2.0000      -0.355670        -9.6783 
 165   2.0000      -0.341634        -9.2963 
 166   2.0000      -0.337545        -9.1851 
 167   2.0000      -0.324814        -8.8386 
 168   2.0000      -0.321450        -8.7471 
 169   2.0000      -0.305377        -8.3097 
 170   2.0000      -0.299211        -8.1419 
 171   2.0000      -0.286105        -7.7853 
 172   2.0000      -0.278132        -7.5684 
 173   2.0000      -0.263302        -7.1648 
 174   2.0000      -0.242212        -6.5909 
 175   2.0000      -0.190000        -5.1702 
 176   2.0000      -0.181455        -4.9376 
 177   2.0000      -0.080315        -2.1855 
 178   2.0000      -0.059677        -1.6239 
 179   0.0000       0.028485         0.7751 
 180   0.0000       0.065417         1.7801 
 181   0.0000       0.090284         2.4568 
 182   0.0000       0.106266         2.8916 
 183   0.0000       0.117156         3.1880 
 184   0.0000       0.136930         3.7261 
 185   0.0000       0.139610         3.7990 
 186   0.0000       0.140959         3.8357 
 187   0.0000       0.164555         4.4778 
 188   0.0000       0.165095         4.4925 
 189   0.0000       0.165799         4.5116 
 190   0.0000       0.175327         4.7709 
 191   0.0000       0.180378         4.9083 
 192   0.0000       0.183806         5.0016 
 193   0.0000       0.189256         5.1499 
 194   0.0000       0.204769         5.5721 
 195   0.0000       0.205691         5.5971 
 196   0.0000       0.208148         5.6640 
 197   0.0000       0.208788         5.6814 
 198   0.0000       0.216565         5.8930 
 199   0.0000       0.228624         6.2212 
 200   0.0000       0.232987         6.3399 
 201   0.0000       0.233827         6.3628 
 202   0.0000       0.238943         6.5020 
 203   0.0000       0.239827         6.5260 
 204   0.0000       0.246208         6.6996 
 205   0.0000       0.255030         6.9397 
 206   0.0000       0.256406         6.9771 
 207   0.0000       0.257359         7.0031 
 208   0.0000       0.259349         7.0572 
 209   0.0000       0.260776         7.0961 
 210   0.0000       0.264311         7.1923 
 211   0.0000       0.266886         7.2623 
 212   0.0000       0.268922         7.3178 
 213   0.0000       0.269746         7.3402 
 214   0.0000       0.272760         7.4222 
 215   0.0000       0.276514         7.5243 
 216   0.0000       0.278902         7.5893 
 217   0.0000       0.282327         7.6825 
 218   0.0000       0.285411         7.7664 
 219   0.0000       0.288154         7.8411 
 220   0.0000       0.288780         7.8581 
 221   0.0000       0.293022         7.9735 
 222   0.0000       0.295001         8.0274 
 223   0.0000       0.296624         8.0716 
 224   0.0000       0.297583         8.0976 
 225   0.0000       0.301883         8.2147 
 226   0.0000       0.305669         8.3177 
 227   0.0000       0.307607         8.3704 
 228   0.0000       0.321050         8.7362 
 229   0.0000       0.324855         8.8398 
 230   0.0000       0.328214         8.9311 
 231   0.0000       0.334663         9.1066 
 232   0.0000       0.343307         9.3419 
 233   0.0000       0.357182         9.7194 
 234   0.0000       0.371510        10.1093 
 235   0.0000       0.374557        10.1922 
 236   0.0000       0.390115        10.6156 
 237   0.0000       0.391439        10.6516 
 238   0.0000       0.398006        10.8303 
 239   0.0000       0.402954        10.9649 
 240   0.0000       0.410195        11.1620 
 241   0.0000       0.411567        11.1993 
 242   0.0000       0.413180        11.2432 
 243   0.0000       0.420052        11.4302 
 244   0.0000       0.429416        11.6850 
 245   0.0000       0.435348        11.8464 
 246   0.0000       0.440545        11.9878 
 247   0.0000       0.440929        11.9983 
 248   0.0000       0.441552        12.0152 
 249   0.0000       0.447444        12.1756 
 250   0.0000       0.449771        12.2389 
 251   0.0000       0.457487        12.4488 
 252   0.0000       0.466029        12.6813 
 253   0.0000       0.469492        12.7755 
 254   0.0000       0.471920        12.8416 
 255   0.0000       0.474622        12.9151 
 256   0.0000       0.476628        12.9697 
 257   0.0000       0.486045        13.2260 
 258   0.0000       0.488491        13.2925 
 259   0.0000       0.494695        13.4613 
 260   0.0000       0.504174        13.7193 
 261   0.0000       0.505134        13.7454 
 262   0.0000       0.505778        13.7629 
 263   0.0000       0.512290        13.9401 
 264   0.0000       0.515607        14.0304 
 265   0.0000       0.520199        14.1553 
 266   0.0000       0.526087        14.3156 
 267   0.0000       0.528610        14.3842 
 268   0.0000       0.535614        14.5748 
 269   0.0000       0.542453        14.7609 
 270   0.0000       0.552597        15.0369 
 271   0.0000       0.556613        15.1462 
 272   0.0000       0.559283        15.2189 
 273   0.0000       0.563519        15.3341 
 274   0.0000       0.566956        15.4276 
 275   0.0000       0.571566        15.5531 
 276   0.0000       0.573700        15.6112 
 277   0.0000       0.581200        15.8152 
 278   0.0000       0.581816        15.8320 
 279   0.0000       0.586510        15.9597 
 280   0.0000       0.592895        16.1335 
 281   0.0000       0.593840        16.1592 
 282   0.0000       0.595484        16.2039 
 283   0.0000       0.597905        16.2698 
 284   0.0000       0.598404        16.2834 
 285   0.0000       0.601233        16.3604 
 286   0.0000       0.603202        16.4140 
 287   0.0000       0.611081        16.6284 
 288   0.0000       0.617762        16.8101 
 289   0.0000       0.623781        16.9739 
 290   0.0000       0.625769        17.0280 
 291   0.0000       0.631444        17.1825 
 292   0.0000       0.635779        17.3004 
 293   0.0000       0.639298        17.3962 
 294   0.0000       0.646871        17.6022 
 295   0.0000       0.651547        17.7295 
 296   0.0000       0.655216        17.8293 
 297   0.0000       0.659306        17.9406 
 298   0.0000       0.662849        18.0370 
 299   0.0000       0.664801        18.0901 
 300   0.0000       0.670810        18.2537 
 301   0.0000       0.675708        18.3869 
 302   0.0000       0.678775        18.4704 
 303   0.0000       0.680950        18.5296 
 304   0.0000       0.684472        18.6254 
 305   0.0000       0.689539        18.7633 
 306   0.0000       0.692654        18.8481 
 307   0.0000       0.694111        18.8877 
 308   0.0000       0.695444        18.9240 
 309   0.0000       0.701276        19.0827 
 310   0.0000       0.703269        19.1369 
 311   0.0000       0.705334        19.1931 
 312   0.0000       0.710441        19.3321 
 313   0.0000       0.711003        19.3474 
 314   0.0000       0.711467        19.3600 
 315   0.0000       0.715295        19.4642 
 316   0.0000       0.716402        19.4943 
 317   0.0000       0.720300        19.6003 
 318   0.0000       0.721692        19.6382 
 319   0.0000       0.727399        19.7935 
 320   0.0000       0.727823        19.8051 
 321   0.0000       0.729035        19.8381 
 322   0.0000       0.731632        19.9087 
 323   0.0000       0.734615        19.9899 
 324   0.0000       0.736346        20.0370 
 325   0.0000       0.740488        20.1497 
 326   0.0000       0.746225        20.3058 
 327   0.0000       0.748472        20.3670 
 328   0.0000       0.749658        20.3992 
 329   0.0000       0.753542        20.5049 
 330   0.0000       0.757989        20.6259 
 331   0.0000       0.761707        20.7271 
 332   0.0000       0.766198        20.8493 
 333   0.0000       0.767848        20.8942 
 334   0.0000       0.769770        20.9465 
 335   0.0000       0.774923        21.0867 
 336   0.0000       0.777237        21.1497 
 337   0.0000       0.781972        21.2786 
 338   0.0000       0.785929        21.3862 
 339   0.0000       0.790708        21.5163 
 340   0.0000       0.792667        21.5696 
 341   0.0000       0.794676        21.6242 
 342   0.0000       0.799752        21.7623 
 343   0.0000       0.802729        21.8434 
 344   0.0000       0.807395        21.9703 
 345   0.0000       0.809535        22.0286 
 346   0.0000       0.810809        22.0632 
 347   0.0000       0.815335        22.1864 
 348   0.0000       0.815928        22.2025 
 349   0.0000       0.817182        22.2367 
 350   0.0000       0.821222        22.3466 
 351   0.0000       0.821534        22.3551 
 352   0.0000       0.823792        22.4165 
 353   0.0000       0.828706        22.5502 
 354   0.0000       0.831431        22.6244 
 355   0.0000       0.832138        22.6436 
 356   0.0000       0.835565        22.7369 
 357   0.0000       0.837461        22.7885 
 358   0.0000       0.837799        22.7977 
 359   0.0000       0.839327        22.8393 
 360   0.0000       0.842735        22.9320 
 361   0.0000       0.843390        22.9498 
 362   0.0000       0.847288        23.0559 
 363   0.0000       0.851371        23.1670 
 364   0.0000       0.852037        23.1851 
 365   0.0000       0.857283        23.3278 
 366   0.0000       0.861468        23.4417 
 367   0.0000       0.864525        23.5249 
 368   0.0000       0.868210        23.6252 
 369   0.0000       0.868675        23.6379 
 370   0.0000       0.870804        23.6958 
 371   0.0000       0.874896        23.8071 
 372   0.0000       0.877252        23.8712 
 373   0.0000       0.878080        23.8938 
 374   0.0000       0.880473        23.9589 
 375   0.0000       0.884870        24.0785 
 376   0.0000       0.890402        24.2291 
 377   0.0000       0.892722        24.2922 
 378   0.0000       0.893534        24.3143 
 379   0.0000       0.896112        24.3844 
 380   0.0000       0.896896        24.4058 
 381   0.0000       0.899094        24.4656 
 382   0.0000       0.900774        24.5113 
 383   0.0000       0.902715        24.5641 
 384   0.0000       0.906624        24.6705 
 385   0.0000       0.908158        24.7122 
 386   0.0000       0.910122        24.7657 
 387   0.0000       0.914891        24.8954 
 388   0.0000       0.916932        24.9510 
 389   0.0000       0.919901        25.0318 
 390   0.0000       0.922459        25.1014 
 391   0.0000       0.927406        25.2360 
 392   0.0000       0.928136        25.2559 
 393   0.0000       0.929358        25.2891 
 394   0.0000       0.931059        25.3354 
 395   0.0000       0.936387        25.4804 
 396   0.0000       0.937437        25.5090 
 397   0.0000       0.941982        25.6326 
 398   0.0000       0.946525        25.7563 
 399   0.0000       0.949351        25.8331 
 400   0.0000       0.950300        25.8590 
 401   0.0000       0.953914        25.9573 
 402   0.0000       0.956394        26.0248 
 403   0.0000       0.958616        26.0853 
 404   0.0000       0.962884        26.2014 
 405   0.0000       0.963529        26.2189 
 406   0.0000       0.970781        26.4163 
 407   0.0000       0.980795        26.6888 
 408   0.0000       0.981870        26.7181 
 409   0.0000       0.986885        26.8545 
 410   0.0000       0.990055        26.9408 
 411   0.0000       0.995284        27.0831 
 412   0.0000       0.999313        27.1927 
 413   0.0000       1.007428        27.4135 
 414   0.0000       1.014846        27.6154 
 415   0.0000       1.016333        27.6558 
 416   0.0000       1.018590        27.7172 
 417   0.0000       1.026101        27.9216 
 418   0.0000       1.030858        28.0511 
 419   0.0000       1.034396        28.1473 
 420   0.0000       1.036317        28.1996 
 421   0.0000       1.045020        28.4364 
 422   0.0000       1.053668        28.6718 
 423   0.0000       1.054783        28.7021 
 424   0.0000       1.057226        28.7686 
 425   0.0000       1.074201        29.2305 
 426   0.0000       1.077368        29.3167 
 427   0.0000       1.079746        29.3814 
 428   0.0000       1.081382        29.4259 
 429   0.0000       1.085869        29.5480 
 430   0.0000       1.089543        29.6480 
 431   0.0000       1.095237        29.8029 
 432   0.0000       1.101506        29.9735 
 433   0.0000       1.104173        30.0461 
 434   0.0000       1.110997        30.2318 
 435   0.0000       1.113570        30.3018 
 436   0.0000       1.114596        30.3297 
 437   0.0000       1.118095        30.4249 
 438   0.0000       1.122802        30.5530 
 439   0.0000       1.125396        30.6236 
 440   0.0000       1.128513        30.7084 
 441   0.0000       1.130418        30.7602 
 442   0.0000       1.134315        30.8663 
 443   0.0000       1.137678        30.9578 
 444   0.0000       1.139786        31.0152 
 445   0.0000       1.144019        31.1303 
 446   0.0000       1.148838        31.2615 
 447   0.0000       1.151075        31.3223 
 448   0.0000       1.155358        31.4389 
 449   0.0000       1.156858        31.4797 
 450   0.0000       1.159768        31.5589 
 451   0.0000       1.165469        31.7140 
 452   0.0000       1.168331        31.7919 
 453   0.0000       1.169940        31.8357 
 454   0.0000       1.174225        31.9523 
 455   0.0000       1.180192        32.1147 
 456   0.0000       1.184532        32.2327 
 457   0.0000       1.195333        32.5267 
 458   0.0000       1.198662        32.6173 
 459   0.0000       1.201229        32.6871 
 460   0.0000       1.203354        32.7449 
 461   0.0000       1.207323        32.8529 
 462   0.0000       1.209710        32.9179 
 463   0.0000       1.214214        33.0404 
 464   0.0000       1.214970        33.0610 
 465   0.0000       1.216251        33.0959 
 466   0.0000       1.222382        33.2627 
 467   0.0000       1.229997        33.4699 
 468   0.0000       1.231291        33.5051 
 469   0.0000       1.234475        33.5918 
 470   0.0000       1.237321        33.6692 
 471   0.0000       1.240890        33.7663 
 472   0.0000       1.244514        33.8650 
 473   0.0000       1.245198        33.8836 
 474   0.0000       1.249445        33.9991 
 475   0.0000       1.250622        34.0311 
 476   0.0000       1.253110        34.0988 
 477   0.0000       1.256736        34.1975 
 478   0.0000       1.261194        34.3188 
 479   0.0000       1.262401        34.3517 
 480   0.0000       1.268305        34.5123 
 481   0.0000       1.270842        34.5814 
 482   0.0000       1.272544        34.6277 
 483   0.0000       1.276361        34.7315 
 484   0.0000       1.281349        34.8673 
 485   0.0000       1.286559        35.0091 
 486   0.0000       1.287833        35.0437 
 487   0.0000       1.291173        35.1346 
 488   0.0000       1.294159        35.2159 
 489   0.0000       1.297498        35.3067 
 490   0.0000       1.302201        35.4347 
 491   0.0000       1.304468        35.4964 
 492   0.0000       1.309808        35.6417 
 493   0.0000       1.310228        35.6531 
 494   0.0000       1.316124        35.8135 
 495   0.0000       1.320191        35.9242 
 496   0.0000       1.322918        35.9984 
 497   0.0000       1.328113        36.1398 
 498   0.0000       1.333671        36.2910 
 499   0.0000       1.335988        36.3541 
 500   0.0000       1.337604        36.3981 
 501   0.0000       1.339636        36.4534 
 502   0.0000       1.342271        36.5251 
 503   0.0000       1.346445        36.6386 
 504   0.0000       1.349028        36.7089 
 505   0.0000       1.350274        36.7428 
 506   0.0000       1.353928        36.8422 
 507   0.0000       1.356040        36.8997 
 508   0.0000       1.360543        37.0223 
 509   0.0000       1.363731        37.1090 
 510   0.0000       1.369213        37.2582 
[...]
      px      :     0.043615
      py      :     0.014046
 77 H s       :     0.884457  s :     0.884457
      pz      :     0.047982  p :     0.079297
      px      :     0.015024
      py      :     0.016291
 78 H s       :     0.884807  s :     0.884807
      pz      :     0.025886  p :     0.079267
      px      :     0.020454
      py      :     0.032928
 79 H s       :     0.910803  s :     0.910803
      pz      :     0.021808  p :     0.086305
      px      :     0.021655
      py      :     0.042842
 80 H s       :     0.864330  s :     0.864330
      pz      :     0.039396  p :     0.084841
      px      :     0.030293
      py      :     0.015152
 81 H s       :     0.886819  s :     0.886819
      pz      :     0.037826  p :     0.084134
      px      :     0.016184
      py      :     0.030123
 82 H s       :     0.916125  s :     0.916125
      pz      :     0.021969  p :     0.086729
      px      :     0.031652
      py      :     0.033108
 83 H s       :     0.873433  s :     0.873433
      pz      :     0.039273  p :     0.084105
      px      :     0.015276
      py      :     0.029556
 84 H s       :     0.886698  s :     0.886698
      pz      :     0.035766  p :     0.083424
      px      :     0.031695
      py      :     0.015962
 85 H s       :     0.892868  s :     0.892868
      pz      :     0.022489  p :     0.079783
      px      :     0.014070
      py      :     0.043224
 86 H s       :     0.891006  s :     0.891006
      pz      :     0.024730  p :     0.078827
      px      :     0.032980
      py      :     0.021117
 87 H s       :     0.889843  s :     0.889843
      pz      :     0.048019  p :     0.078742
      px      :     0.015586
      py      :     0.015137
 88 H s       :     0.910556  s :     0.910556
      pz      :     0.021616  p :     0.087015
      px      :     0.042940
      py      :     0.022459
 89 H s       :     0.871054  s :     0.871054
      pz      :     0.037961  p :     0.083856
      px      :     0.030507
      py      :     0.015388


                      *****************************
                      * MAYER POPULATION ANALYSIS *
                      *****************************

  NA   - Mulliken gross atomic population
  ZA   - Total nuclear charge
  QA   - Mulliken gross atomic charge
  VA   - Mayer's total valence
  BVA  - Mayer's bonded valence
  FA   - Mayer's free valence

  ATOM       NA         ZA         QA         VA         BVA        FA
  0 C      5.7750     6.0000     0.2250     3.8511     3.8511     0.0000
  1 N      7.4545     7.0000    -0.4545     3.3532     3.3532    -0.0000
  2 C      6.0650     6.0000    -0.0650     3.9236     3.9236    -0.0000
  3 N      7.3408     7.0000    -0.3408     3.4553     3.4553    -0.0000
  4 C      6.1327     6.0000    -0.1327     4.1988     4.1988     0.0000
  5 N      7.5691     7.0000    -0.5691     3.0958     3.0958    -0.0000
  6 C      6.1010     6.0000    -0.1010     3.9379     3.9379     0.0000
  7 N      7.3411     7.0000    -0.3411     3.4322     3.4322     0.0000
  8 C      5.7731     6.0000     0.2269     3.8554     3.8554     0.0000
  9 N      7.5625     7.0000    -0.5625     3.0770     3.0770    -0.0000
 10 C      5.8806     6.0000     0.1194     3.9089     3.9089     0.0000
 11 N      7.4384     7.0000    -0.4384     3.3783     3.3783     0.0000
 12 C      6.0576     6.0000    -0.0576     3.7983     3.7983     0.0000
 13 N      7.4293     7.0000    -0.4293     3.4286     3.4286     0.0000
 14 C      5.7898     6.0000     0.2102     3.8226     3.8226    -0.0000
 15 N      7.4410     7.0000    -0.4410     3.3722     3.3722     0.0000
 16 C      5.7643     6.0000     0.2357     3.7789     3.7789    -0.0000
 17 C      6.0990     6.0000    -0.0990     3.9220     3.9220    -0.0000
 18 C      6.1727     6.0000    -0.1727     3.7418     3.7418    -0.0000
 19 C      5.7918     6.0000     0.2082     3.8874     3.8874    -0.0000
 20 C      5.7861     6.0000     0.2139     3.8290     3.8290     0.0000
 21 C      6.0525     6.0000    -0.0525     3.7913     3.7913    -0.0000
 22 C      6.0902     6.0000    -0.0902     3.9823     3.9823    -0.0000
 23 C      6.0396     6.0000    -0.0396     3.9927     3.9927    -0.0000
 24 C      5.8067     6.0000     0.1933     3.8210     3.8210    -0.0000
 25 C      5.8854     6.0000     0.1146     3.8915     3.8915     0.0000
 26 C      6.0857     6.0000    -0.0857     3.9090     3.9090     0.0000
 27 C      5.7812     6.0000     0.2188     3.8620     3.8620    -0.0000
 28 C      6.0618     6.0000    -0.0618     3.9888     3.9888     0.0000
 29 C      6.1833     6.0000    -0.1833     3.7485     3.7485    -0.0000
 30 C      5.7545     6.0000     0.2455     3.7996     3.7996    -0.0000
 31 C      5.7695     6.0000     0.2305     3.8170     3.8170     0.0000
 32 C      6.0612     6.0000    -0.0612     3.9235     3.9235    -0.0000
 33 C      6.0599     6.0000    -0.0599     3.9711     3.9711    -0.0000
 34 C      6.0511     6.0000    -0.0511     3.9833     3.9833     0.0000
 35 C      5.7713     6.0000     0.2287     3.8163     3.8163    -0.0000
 36 C      5.8918     6.0000     0.1082     3.8747     3.8747     0.0000
 37 C      6.0647     6.0000    -0.0647     3.9176     3.9176     0.0000
 38 C      5.7686     6.0000     0.2314     3.8016     3.8016    -0.0000
 39 C      6.0577     6.0000    -0.0577     3.9829     3.9829     0.0000
 40 C      6.1819     6.0000    -0.1819     3.7259     3.7259    -0.0000
 41 C      5.7740     6.0000     0.2260     3.8878     3.8878    -0.0000
 42 C      5.8029     6.0000     0.1971     3.8255     3.8255    -0.0000
 43 C      6.0729     6.0000    -0.0729     3.8998     3.8998     0.0000
 44 C      6.0897     6.0000    -0.0897     3.9850     3.9850     0.0000
 45 C      6.0617     6.0000    -0.0617     3.9919     3.9919     0.0000
 46 C      5.7883     6.0000     0.2117     3.8286     3.8286    -0.0000
 47 C      5.8846     6.0000     0.1154     3.8930     3.8930    -0.0000
 48 C      6.0665     6.0000    -0.0665     3.9095     3.9095     0.0000
 49 C      5.7625     6.0000     0.2375     3.8962     3.8962    -0.0000
 50 C      6.0461     6.0000    -0.0461     3.9904     3.9904    -0.0000
 51 C      6.1931     6.0000    -0.1931     3.7389     3.7389    -0.0000
 52 H      0.9672     1.0000     0.0328     0.9857     0.9857    -0.0000
 53 H      1.0190     1.0000    -0.0190     0.9995     0.9995    -0.0000
 54 H      0.9347     1.0000     0.0653     0.9315     0.9315     0.0000
 55 H      0.9697     1.0000     0.0303     0.9867     0.9867    -0.0000
 56 H      0.9505     1.0000     0.0495     0.9695     0.9695     0.0000
 57 H      0.9530     1.0000     0.0470     0.9823     0.9823     0.0000
 58 H      0.9532     1.0000     0.0468     0.9846     0.9846     0.0000
 59 H      1.0209     1.0000    -0.0209     0.9640     0.9640     0.0000
 60 H      0.9403     1.0000     0.0597     0.9723     0.9723     0.0000
 61 H      0.8291     1.0000     0.1709     1.0425     1.0425    -0.0000
 62 H      0.8245     1.0000     0.1755     1.0437     1.0437    -0.0000
 63 H      0.9447     1.0000     0.0553     0.9852     0.9852    -0.0000
 64 H      1.0411     1.0000    -0.0411     0.9783     0.9783     0.0000
 65 H      0.9532     1.0000     0.0468     1.0101     1.0101     0.0000
 66 H      0.9445     1.0000     0.0555     0.9855     0.9855     0.0000
 67 H      0.9375     1.0000     0.0625     0.9719     0.9719     0.0000
 68 H      0.9428     1.0000     0.0572     0.9868     0.9868     0.0000
 69 H      0.9436     1.0000     0.0564     0.9828     0.9828    -0.0000
 70 H      1.0307     1.0000    -0.0307     0.9942     0.9942     0.0000
 71 H      0.9551     1.0000     0.0449     1.0058     1.0058    -0.0000
 72 H      0.9285     1.0000     0.0715     0.9835     0.9835     0.0000
 73 H      1.0080     1.0000    -0.0080     1.0010     1.0010    -0.0000
 74 H      0.9394     1.0000     0.0606     1.0101     1.0101     0.0000
 75 H      0.9291     1.0000     0.0709     0.9838     0.9838     0.0000
 76 H      0.9249     1.0000     0.0751     0.9721     0.9721     0.0000
 77 H      0.9319     1.0000     0.0681     0.9855     0.9855     0.0000
 78 H      0.9326     1.0000     0.0674     0.9854     0.9854     0.0000
 79 H      1.0167     1.0000    -0.0167     0.9975     0.9975     0.0000
 80 H      0.9385     1.0000     0.0615     1.0072     1.0072    -0.0000
 81 H      0.9457     1.0000     0.0543     0.9856     0.9856     0.0000
 82 H      1.0251     1.0000    -0.0251     0.9934     0.9934     0.0000
 83 H      0.9581     1.0000     0.0419     1.0083     1.0083     0.0000
 84 H      0.9458     1.0000     0.0542     0.9852     0.9852     0.0000
 85 H      0.9392     1.0000     0.0608     0.9716     0.9716    -0.0000
 86 H      0.9445     1.0000     0.0555     0.9839     0.9839    -0.0000
 87 H      0.9428     1.0000     0.0572     0.9857     0.9857    -0.0000
 88 H      1.0144     1.0000    -0.0144     0.9968     0.9968     0.0000
 89 H      0.9530     1.0000     0.0470     1.0076     1.0076    -0.0000

  Mayer bond orders larger than 0.100000
B(  0-C ,  1-N ) :   1.0963 B(  0-C , 17-C ) :   1.7330 B(  0-C , 52-H ) :   0.9574 
B(  1-N ,  8-C ) :   1.1004 B(  1-N , 10-C ) :   0.9773 B(  2-C , 12-C ) :   1.4818 
B(  2-C , 16-C ) :   1.3823 B(  2-C , 53-H ) :   0.9699 B(  3-N , 14-C ) :   1.2278 
B(  3-N , 16-C ) :   1.1769 B(  3-N , 61-H ) :   0.8969 B(  4-C ,  6-C ) :   1.2304 
B(  4-C , 17-C ) :   1.2316 B(  4-C , 18-C ) :   1.4900 B(  5-N , 19-C ) :   1.4639 
B(  5-N , 27-C ) :   1.3671 B(  6-C ,  8-C ) :   1.7347 B(  6-C , 54-H ) :   0.8524 
B(  7-N , 30-C ) :   1.1946 B(  7-N , 38-C ) :   1.1900 B(  7-N , 62-H ) :   0.8967 
B(  8-C , 55-H ) :   0.9594 B(  9-N , 41-C ) :   1.3949 B(  9-N , 49-C ) :   1.4245 
B( 10-C , 56-H ) :   0.9777 B( 10-C , 57-H ) :   0.9825 B( 10-C , 58-H ) :   0.9834 
B( 11-N , 20-C ) :   1.1314 B( 11-N , 24-C ) :   1.1068 B( 11-N , 25-C ) :   0.9602 
B( 12-C , 14-C ) :   1.3659 B( 12-C , 59-H ) :   0.8936 B( 13-N , 31-C ) :   1.1620 
B( 13-N , 35-C ) :   1.1607 B( 13-N , 36-C ) :   0.9412 B( 14-C , 18-C ) :   1.1153 
B( 15-N , 42-C ) :   1.1073 B( 15-N , 46-C ) :   1.1246 B( 15-N , 47-C ) :   0.9613 
B( 16-C , 51-C ) :   1.1677 B( 17-C , 60-H ) :   0.8390 B( 18-C , 19-C ) :   1.1141 
B( 19-C , 21-C ) :   1.2546 B( 20-C , 28-C ) :   1.6285 B( 20-C , 63-H ) :   0.9702 
B( 21-C , 26-C ) :   1.5787 B( 21-C , 64-H ) :   0.8871 B( 22-C , 23-C ) :   1.2899 
B( 22-C , 28-C ) :   1.2638 B( 22-C , 29-C ) :   1.2262 B( 23-C , 24-C ) :   1.6197 
B( 23-C , 65-H ) :   0.9703 B( 24-C , 66-H ) :   0.9695 B( 25-C , 67-H ) :   0.9760 
B( 25-C , 68-H ) :   0.9828 B( 25-C , 69-H ) :   0.9823 B( 26-C , 27-C ) :   1.2672 
B( 26-C , 70-H ) :   0.9650 B( 27-C , 29-C ) :   1.2063 B( 28-C , 71-H ) :   0.9720 
B( 29-C , 30-C ) :   1.2475 B( 30-C , 32-C ) :   1.2784 B( 31-C , 39-C ) :   1.5874 
B( 31-C , 72-H ) :   0.9681 B( 32-C , 37-C ) :   1.5806 B( 32-C , 73-H ) :   0.9786 
B( 33-C , 34-C ) :   1.3072 B( 33-C , 39-C ) :   1.3043 B( 33-C , 40-C ) :   1.1759 
B( 34-C , 35-C ) :   1.5850 B( 34-C , 74-H ) :   0.9696 B( 35-C , 75-H ) :   0.9681 
B( 36-C , 76-H ) :   0.9768 B( 36-C , 77-H ) :   0.9816 B( 36-C , 78-H ) :   0.9823 
B( 37-C , 38-C ) :   1.2843 B( 37-C , 79-H ) :   0.9764 B( 38-C , 40-C ) :   1.2345 
B( 39-C , 80-H ) :   0.9705 B( 40-C , 41-C ) :   1.2499 B( 41-C , 43-C ) :   1.1846 
B( 42-C , 50-C ) :   1.6332 B( 42-C , 81-H ) :   0.9697 B( 43-C , 48-C ) :   1.6684 
B( 43-C , 82-H ) :   0.9721 B( 44-C , 45-C ) :   1.2631 B( 44-C , 50-C ) :   1.2724 
B( 44-C , 51-C ) :   1.2610 B( 45-C , 46-C ) :   1.6347 B( 45-C , 83-H ) :   0.9718 
B( 46-C , 84-H ) :   0.9700 B( 47-C , 85-H ) :   0.9762 B( 47-C , 86-H ) :   0.9829 
B( 47-C , 87-H ) :   0.9824 B( 48-C , 49-C ) :   1.1880 B( 48-C , 88-H ) :   0.9749 
B( 49-C , 51-C ) :   1.2463 B( 50-C , 89-H ) :   0.9708 B( 54-H , 59-H ) :   0.1213 
B( 60-H , 64-H ) :   0.1362 

-------
TIMINGS
-------

Total SCF time: 0 days 0 hours 27 min 57 sec 

Total time                  ....    1677.977 sec
Sum of individual times     ....    1673.260 sec  ( 99.7%)

Fock matrix formation       ....    1646.230 sec  ( 98.1%)
Diagonalization             ....       8.775 sec  (  0.5%)
Density matrix formation    ....       0.508 sec  (  0.0%)
Population analysis         ....       0.588 sec  (  0.0%)
Initial guess               ....       2.514 sec  (  0.1%)
Orbital Transformation      ....       0.000 sec  (  0.0%)
Orbital Orthonormalization  ....       0.000 sec  (  0.0%)
DIIS solution               ....       3.979 sec  (  0.2%)
SOSCF solution              ....       9.368 sec  (  0.6%)

Maximum memory used throughout the entire SCF-calculation: 302.7 MB


           ************************************************************
           *        Program running with 16 parallel MPI-processes    *
           *              working on a common directory               *
           ************************************************************

------------------------------------------------------------------------------
                                ORCA  MP2 
------------------------------------------------------------------------------

Freezing NCore=104 chemical core electrons

----------
MP2 ENERGY (disk based algorithm)
----------

Dimension of the basis                    ...  918
Memory devoted to MP2                     ... 2000 MB   
Data format for buffers                   ... DOUBLE
Compression type for matrix containers    ... UNCOMPRESSED

-------------------------------
PARTIAL EXCHANGE TRANSFORMATION
-------------------------------

Transformation type                        ... one-operator
Generation of integrals (i,mue|j,nue)      ... ON
Generation of integrals (mue,kappa|nue,tau)... OFF
Generation of integrals (i,mue|a,nue)      ... OFF
Dimension of the basis                     ...  918
Number of internal MOs                     ...  127 (  52- 178)
Pair cutoff                                ... 2.500e-12 Eh
Number of AO pairs in the trafo            ... 421821
Total Number of distinct AO pairs          ... 421821
Memory devoted for trafo                   ... 2000.0 MB 
Max. Number of MO pairs treated together   ...  311      
Number Format for Storage                  ... Double (8 Byte)
Integral package used                      ... LIBINT

Starting integral evaluation:
    ... done with AO integral generation
Closing buffer AOK     (38.12 GB; CompressionRatio= 1.33)
Collecting buffer AOK 
Number of MO pairs included in the trafo   ... 8128
------------------------
SORTING OF (i,mue|j,nue)
------------------------

IBATCH = 1 of  2
IBATCH = 2 of  2
Closing buffer KAO     (51.03 GB; CompressionRatio= 1.00)
Collecting buffer KAO 
N(AO-Batches) Done                         ...  86249750 
N(AO-Batches) Skipped                      ...  82294338 
N(IJ)-pairs Skipped                        ...         0 
TOTAL TIME for half transformation         ...  2576.767 sec
AO-integral generation                     ...   212.571 sec
Half transformation                        ...   425.280 sec
K-integral sorting                         ...  1702.002 sec
Process 10:   Internal MO 132

Finished integral transformation - now doing MP2 part

OPERATOR COMBINATION   0   0: ij=( 52..178, 52..178)
Process 13:   Internal MO 156
Process  4:   Internal MO  84
Process  1:   Internal MO  60
Process  7:   Internal MO 108
Process  0:   Internal MO  54
Process  2:   Internal MO  69
Process  0:   Internal MO  57
Process  1:   Internal MO  63
Process  3:   Internal MO  78
Process  8:   Internal MO 117
Process  2:   Internal MO  72
Process  1:   Internal MO  66
Process  4:   Internal MO  87
Process 14:   Internal MO 165
Process 11:   Internal MO 141
Process  6:   Internal MO 102
Process  3:   Internal MO  81
Process  2:   Internal MO  75
Process  9:   Internal MO 126
Process  7:   Internal MO 111
Process 12:   Internal MO 150
Process  4:   Internal MO  90
Process 10:   Internal MO 135
Process 15:   Internal MO 174
Process  8:   Internal MO 120
Process  6:   Internal MO 105
Process  5:   Internal MO  93
Process  7:   Internal MO 114
Process  9:   Internal MO 129
Process  5:   Internal MO  96
Process 11:   Internal MO 144
Process 13:   Internal MO 159
Process 12:   Internal MO 153
Process 14:   Internal MO 168
Process 10:   Internal MO 138
Process  8:   Internal MO 123
Process  5:   Internal MO  99
Process 15:   Internal MO 177
Process 11:   Internal MO 147
Process 13:   Internal MO 162
Process 14:   Internal MO 171
-----------------------------------------------
 MP2 CORRELATION ENERGY   :     -7.293680932 Eh
-----------------------------------------------


-------
TIMINGS
-------
Total time                : 2915.782 sec
Integral trafo            : 2580.369 sec ( 88.5%)
K(i,j)                    :    6.317 sec (  0.2%)
T(i,j)                    :    0.954 sec (  0.0%)

---------------------------------------
MP2 TOTAL ENERGY:    -2130.732982075 Eh
---------------------------------------

Maximum memory used throughout the entire MP2-calculation: 2275.3 MB

-------------------------   --------------------
FINAL SINGLE POINT ENERGY     -2130.732982074514
-------------------------   --------------------


                            ***************************************
                            *     ORCA property calculations      *
                            ***************************************


  WARNING: The energy has been calculated at the MP2 level but the densities
           used in the property calculations are still SCF densities
           MP2 response densities have not been calculated 
           use %mp2 Density relaxed end
           or  %mp2 Density unrelaxed end

                                    ---------------------
                                    Active property flags
                                    ---------------------
   (+) Dipole Moment


------------------------------------------------------------------------------
                       ORCA ELECTRIC PROPERTIES CALCULATION
------------------------------------------------------------------------------

Dipole Moment Calculation                       ... on
Quadrupole Moment Calculation                   ... off
Polarizability Calculation                      ... off
GBWName                                         ... /scratch/allen/tmpyp4_amber_gaff2/conf1/conf1/Conf181.orca.gbw
Electron density                                ... /scratch/allen/tmpyp4_amber_gaff2/conf1/conf1/Conf181.orca.scfp
The origin for moment calculation is the CENTER OF MASS  = ( 0.003321, -0.001801  0.000331)

-------------
DIPOLE MOMENT
-------------
                                X             Y             Z
Electronic contribution:      2.74023      -4.35865      -0.20020
Nuclear contribution   :      0.06406       0.22902       0.20104
                        -----------------------------------------
Total Dipole Moment    :      2.80429      -4.12963       0.00084
                        -----------------------------------------
Magnitude (a.u.)       :      4.99179
Magnitude (Debye)      :     12.68811



--------------------
Rotational spectrum 
--------------------
 
Rotational constants in cm-1:     0.001502     0.001480     0.000760 
Rotational constants in MHz :    45.014416    44.359969    22.780234 

 Dipole components along the rotational axes: 
x,y,z [a.u.] :    -3.460863    -3.597269     0.002603 
x,y,z [Debye]:    -8.796815    -9.143531     0.006615 

 

Timings for individual modules:

Sum of individual times         ...     4618.048 sec (=  76.967 min)
GTO integral calculation        ...        3.496 sec (=   0.058 min)   0.1 %
SCF iterations                  ...     1679.240 sec (=  27.987 min)  36.4 %
MP2 module                      ...     2935.311 sec (=  48.922 min)  63.6 %
                             ****ORCA TERMINATED NORMALLY****
TOTAL RUN TIME: 0 days 1 hours 17 minutes 1 seconds 585 msec
# of primitive gaussian functions

