
                                 *****************
                                 * O   R   C   A *
                                 *****************

                                            #,                                       
                                            ###                                      
                                            ####                                     
                                            #####                                    
                                            ######                                   
                                           ########,                                 
                                     ,,################,,,,,                         
                               ,,#################################,,                 
                          ,,##########################################,,             
                       ,#########################################, ''#####,          
                    ,#############################################,,   '####,        
                  ,##################################################,,,,####,       
                ,###########''''           ''''###############################       
              ,#####''   ,,,,##########,,,,          '''####'''          '####       
            ,##' ,,,,###########################,,,                        '##       
           ' ,,###''''                  '''############,,,                           
         ,,##''                                '''############,,,,        ,,,,,,###''
      ,#''                                            '''#######################'''  
     '                                                          ''''####''''         
             ,#######,   #######,   ,#######,      ##                                
            ,#'     '#,  ##    ##  ,#'     '#,    #''#        ######   ,####,        
            ##       ##  ##   ,#'  ##            #'  '#       #        #'  '#        
            ##       ##  #######   ##           ,######,      #####,   #    #        
            '#,     ,#'  ##    ##  '#,     ,#' ,#      #,         ##   #,  ,#        
             '#######'   ##     ##  '#######'  #'      '#     #####' # '####'        



                  #######################################################
                  #                        -***-                        #
                  #          Department of theory and spectroscopy      #
                  #    Directorship and core code : Frank Neese         #
                  #        Max Planck Institute fuer Kohlenforschung    #
                  #                Kaiser Wilhelm Platz 1               #
                  #                 D-45470 Muelheim/Ruhr               #
                  #                      Germany                        #
                  #                                                     #
                  #                  All rights reserved                #
                  #                        -***-                        #
                  #######################################################


                         Program Version 5.0.4 -  RELEASE  -


 With contributions from (in alphabetic order):
   Daniel Aravena         : Magnetic Suceptibility
   Michael Atanasov       : Ab Initio Ligand Field Theory (pilot matlab implementation)
   Alexander A. Auer      : GIAO ZORA, VPT2 properties, NMR spectrum
   Ute Becker             : Parallelization
   Giovanni Bistoni       : ED, misc. LED, open-shell LED, HFLD
   Martin Brehm           : Molecular dynamics
   Dmytro Bykov           : SCF Hessian
   Vijay G. Chilkuri      : MRCI spin determinant printing, contributions to CSF-ICE
   Dipayan Datta          : RHF DLPNO-CCSD density
   Achintya Kumar Dutta   : EOM-CC, STEOM-CC
   Dmitry Ganyushin       : Spin-Orbit,Spin-Spin,Magnetic field MRCI
   Miquel Garcia          : C-PCM and meta-GGA Hessian, CC/C-PCM, Gaussian charge scheme
   Yang Guo               : DLPNO-NEVPT2, F12-NEVPT2, CIM, IAO-localization
   Andreas Hansen         : Spin unrestricted coupled pair/coupled cluster methods
   Benjamin Helmich-Paris : MC-RPA, TRAH-SCF, COSX integrals
   Lee Huntington         : MR-EOM, pCC
   Robert Izsak           : Overlap fitted RIJCOSX, COSX-SCS-MP3, EOM
   Marcus Kettner         : VPT2
   Christian Kollmar      : KDIIS, OOCD, Brueckner-CCSD(T), CCSD density, CASPT2, CASPT2-K
   Simone Kossmann        : Meta GGA functionals, TD-DFT gradient, OOMP2, MP2 Hessian
   Martin Krupicka        : Initial AUTO-CI
   Lucas Lang             : DCDCAS
   Marvin Lechner         : AUTO-CI (C++ implementation), FIC-MRCC
   Dagmar Lenk            : GEPOL surface, SMD
   Dimitrios Liakos       : Extrapolation schemes; Compound Job, initial MDCI parallelization
   Dimitrios Manganas     : Further ROCIS development; embedding schemes
   Dimitrios Pantazis     : SARC Basis sets
   Anastasios Papadopoulos: AUTO-CI, single reference methods and gradients
   Taras Petrenko         : DFT Hessian,TD-DFT gradient, ASA, ECA, R-Raman, ABS, FL, XAS/XES, NRVS
   Peter Pinski           : DLPNO-MP2, DLPNO-MP2 Gradient
   Christoph Reimann      : Effective Core Potentials
   Marius Retegan         : Local ZFS, SOC
   Christoph Riplinger    : Optimizer, TS searches, QM/MM, DLPNO-CCSD(T), (RO)-DLPNO pert. Triples
   Tobias Risthaus        : Range-separated hybrids, TD-DFT gradient, RPA, STAB
   Michael Roemelt        : Original ROCIS implementation
   Masaaki Saitow         : Open-shell DLPNO-CCSD energy and density
   Barbara Sandhoefer     : DKH picture change effects
   Avijit Sen             : IP-ROCIS
   Kantharuban Sivalingam : CASSCF convergence, NEVPT2, FIC-MRCI
   Bernardo de Souza      : ESD, SOC TD-DFT
   Georgi Stoychev        : AutoAux, RI-MP2 NMR, DLPNO-MP2 response
   Willem Van den Heuvel  : Paramagnetic NMR
   Boris Wezisla          : Elementary symmetry handling
   Frank Wennmohs         : Technical directorship


 We gratefully acknowledge several colleagues who have allowed us to
 interface, adapt or use parts of their codes:
   Stefan Grimme, W. Hujo, H. Kruse, P. Pracht,  : VdW corrections, initial TS optimization,
                  C. Bannwarth, S. Ehlert          DFT functionals, gCP, sTDA/sTD-DF
   Ed Valeev, F. Pavosevic, A. Kumar             : LibInt (2-el integral package), F12 methods
   Garnet Chan, S. Sharma, J. Yang, R. Olivares  : DMRG
   Ulf Ekstrom                                   : XCFun DFT Library
   Mihaly Kallay                                 : mrcc  (arbitrary order and MRCC methods)
   Jiri Pittner, Ondrej Demel                    : Mk-CCSD
   Frank Weinhold                                : gennbo (NPA and NBO analysis)
   Christopher J. Cramer and Donald G. Truhlar   : smd solvation model
   Lars Goerigk                                  : TD-DFT with DH, B97 family of functionals
   V. Asgeirsson, H. Jonsson                     : NEB implementation
   FAccTs GmbH                                   : IRC, NEB, NEB-TS, DLPNO-Multilevel, CI-OPT
                                                   MM, QMMM, 2- and 3-layer-ONIOM, Crystal-QMMM,
                                                   LR-CPCM, SF, NACMEs, symmetry and pop. for TD-DFT,
                                                   nearIR, NL-DFT gradient (VV10), updates on ESD,
                                                   ML-optimized integration grids
   S Lehtola, MJT Oliveira, MAL Marques          : LibXC Library
   Liviu Ungur et al                             : ANISO software


 Your calculation uses the libint2 library for the computation of 2-el integrals
 For citations please refer to: http://libint.valeyev.net

 Your ORCA version has been built with support for libXC version: 5.1.0
 For citations please refer to: https://tddft.org/programs/libxc/

 This ORCA versions uses:
   CBLAS   interface :  Fast vector & matrix operations
   LAPACKE interface :  Fast linear algebra routines
   SCALAPACK package :  Parallel linear algebra routines
   Shared memory     :  Shared parallel matrices
   BLAS/LAPACK       :  OpenBLAS 0.3.15  USE64BITINT DYNAMIC_ARCH NO_AFFINITY Sandybridge SINGLE_THREADED
        Core in use  :  Sandybridge
   Copyright (c) 2011-2014, The OpenBLAS Project


================================================================================

----- Orbital basis set information -----
Your calculation utilizes the basis: cc-pVDZ 
       H, B-Ne : Obtained from the ccRepo (grant-hill.group.shef.ac.uk/ccrepo) Feb. 2017
                 T. H. Dunning, Jr., J. Chem. Phys. 90, 1007 (1989)
            He : Obtained from the ccRepo (grant-hill.group.shef.ac.uk/ccrepo) Feb. 2017
                 D. E. Woon, T. H. Dunning, Jr., J. Chem. Phys. 100, 2975 (1994)
  Li-Be, Na-Mg : Obtained from the ccRepo (grant-hill.group.shef.ac.uk/ccrepo) Feb. 2017
                 B. P. Prascher, D. E. Woon, K. A. Peterson, T. H. Dunning, Jr., A. K. Wilson, Theor. Chem. Acc. 128, 69 (2011)
         Al-Ar : Obtained from the ccRepo (grant-hill.group.shef.ac.uk/ccrepo) Feb. 2017
                 D. E. Woon, T. H. Dunning, Jr., J. Chem. Phys. 98, 1358 (1993)
            Ca : Obtained from the Peterson Research Group Website (tyr0.chem.wsu.edu/~kipeters) Feb. 2017
                 J. Koput, K. A. Peterson, J. Phys. Chem. 106, 9595 (2002)
         Sc-Zn : Obtained from the ccRepo (grant-hill.group.shef.ac.uk/ccrepo) Feb. 2017
                 N. B. Balabanov, K. A. Peterson, J. Chem. Phys. 123, 064107 (2005)
                 N. B. Balabanov, K. A. Peterson, J. Chem. Phys. 125, 074110 (2006)
         Ga-Kr : Obtained from the ccRepo (grant-hill.group.shef.ac.uk/ccrepo) Feb. 2017
                 A. K. Wilson, D. E. Woon, K. A. Peterson, T. H. Dunning, Jr., J. Chem. Phys. 110, 7667 (1999)

================================================================================
                                        WARNINGS
                       Please study these warnings very carefully!
================================================================================


WARNING: No MP2 level density has been requested!
         To caclulate MP2 level properties use
         %mp2 Density relaxed end
         or
         %mp2 Density unrelaxed end

WARNING: Post HF methods need fully converged wavefunctions
  ===> : Setting SCFConvForced true
         You can overwrite this default with %scf ConvForced false 


INFO   : the flag for use of the SHARK integral package has been found!

================================================================================
                                       INPUT FILE
================================================================================
NAME = /scratch/allen/tmpyp4_amber_gaff2/2.Mdgx/conf11/conf11/Conf285.orca
|  1> ! PAL2
|  2> ! mp2 cc-pvdz TightSCF  NoKeepInts
|  3> 
|  4> %scf
|  5>   MaxCore 2000
|  6> end
|  7> %mp2
|  8>   MaxCore 2000
|  9> end
| 10> * xyz 0 1
| 11>    C       -3.78600         5.95800         1.22300
| 12>    C        1.47400         4.04100         0.05700
| 13>    C       -2.80200         4.09300         0.04900
| 14>    C       -3.43800         4.55500        -1.11300
| 15>    C       -4.21800         5.69400        -1.07100
| 16>    C       -5.19600         7.61400         0.08900
| 17>    C        0.13200         4.30700         0.06100
| 18>    C       -0.56900         3.05600         0.04700
| 19>    C        1.64900         2.61800         0.02300
| 20>    C       -2.99200         4.82700         1.23000
| 21>    N       -4.38600         6.37600         0.08600
| 22>    N        0.38800         2.06700         0.02500
| 23>    N       -2.01000         0.39500        -0.07500
| 24>    N       -0.38800        -2.07400        -0.02700
| 25>    N        2.01000        -0.40100         0.06500
| 26>    C       -1.96000         2.86100         0.02400
| 27>    C       -2.62300         1.61500        -0.01800
| 28>    C       -5.57300        -4.32900         1.06600
| 29>    C       -4.07300         1.47100         0.05600
| 30>    C       -4.10600        -2.75600        -0.02600
| 31>    C       -4.99500        -2.75700        -1.11100
| 32>    C       -6.13200        -3.54200        -1.07600
| 33>    C       -7.65100        -5.11300         0.04000
| 34>    C       -4.32400         0.14100         0.03700
| 35>    C       -3.02500        -0.52000        -0.04800
| 36>    C       -4.42200        -3.56600         1.07500
| 37>    N       -6.40700        -4.31300         0.00100
| 38>    C       -2.86700        -1.92200        -0.04000
| 39>    C       -1.65000        -2.62400        -0.02700
| 40>    C        3.56800        -6.14200        -1.04000
| 41>    C       -1.47600        -4.04900        -0.03400
| 42>    C        2.80300        -4.09900        -0.00800
| 43>    C        3.65700        -4.38400         1.06900
| 44>    C        4.42700        -5.53000         1.05900
| 45>    C        5.24500        -7.58800         0.01400
| 46>    C       -0.13400        -4.31500        -0.02200
| 47>    C        0.56800        -3.06400        -0.02700
| 48>    C        2.77500        -5.01200        -1.07400
| 49>    N        4.37600        -6.39100         0.01700
| 50>    C        1.95900        -2.86900        -0.00900
| 51>    C        2.62100        -1.62200         0.00900
| 52>    C        5.54300         4.33900        -1.13000
| 53>    C        4.07000        -1.47900        -0.09400
| 54>    C        4.10400         2.75100        -0.02100
| 55>    C        5.02700         2.72900         1.03600
| 56>    C        6.16600         3.50900         0.97800
| 57>    C        7.61900         5.15300        -0.11500
| 58>    C        4.32100        -0.14800        -0.09200
| 59>    C        3.02500         0.51400         0.01500
| 60>    C        4.38700         3.58200        -1.11500
| 61>    C        2.86600         1.91600         0.01300
| 62>    N        6.41300         4.29600        -0.09500
| 63>    H       -3.97000         6.54800         2.11300
| 64>    H        2.27400         4.76600         0.08100
| 65>    H       -3.32200         4.03700        -2.05800
| 66>    H       -4.72000         6.09300        -1.94300
| 67>    H       -4.56100         8.45600        -0.19300
| 68>    H       -6.01100         7.50200        -0.62600
| 69>    H       -5.59700         7.76700         1.09100
| 70>    H       -0.33200         5.28200         0.06900
| 71>    H       -2.53900         4.51400         2.16300
| 72>    H        0.18200         1.07200         0.00500
| 73>    H       -0.18300        -1.08000        -0.02100
| 74>    H       -5.86400        -4.96200         1.89500
| 75>    H       -4.79400         2.27200         0.13900
| 76>    H       -4.80000        -2.16000        -1.99400
| 77>    H       -6.84100        -3.58200        -1.89300
| 78>    H       -8.42800        -4.53600         0.54600
| 79>    H       -7.95600        -5.33700        -0.98100
| 80>    H       -7.45600        -6.03700         0.58400
| 81>    H       -5.28700        -0.34400         0.10000
| 82>    H       -3.78000        -3.60100         1.94700
| 83>    H        3.58700        -6.86800        -1.84300
| 84>    H       -2.27600        -4.77400        -0.05000
| 85>    H        3.71400        -3.72400         1.92600
| 86>    H        5.09200        -5.79500         1.87100
| 87>    H        6.20500        -7.32900        -0.43900
| 88>    H        5.39300        -7.91700         1.04200
| 89>    H        4.75900        -8.37300        -0.56400
| 90>    H        0.32900        -5.29000        -0.00800
| 91>    H        2.14600        -4.84200        -1.94000
| 92>    H        5.80800         4.98600        -1.95600
| 93>    H        4.78800        -2.28100        -0.18500
| 94>    H        4.86000         2.11400         1.91200
| 95>    H        6.90100         3.53100         1.77200
| 96>    H        7.38300         6.10900         0.35600
| 97>    H        8.41400         4.65200         0.43500
| 98>    H        7.92100         5.31000        -1.15000
| 99>    H        5.28300         0.33600        -0.17900
|100>    H        3.72000         3.63200        -1.96700
|101> *
|102> 
|103>                          ****END OF INPUT****
================================================================================

                       ****************************
                       * Single Point Calculation *
                       ****************************

---------------------------------
CARTESIAN COORDINATES (ANGSTROEM)
---------------------------------
  C     -3.786000    5.958000    1.223000
  C      1.474000    4.041000    0.057000
  C     -2.802000    4.093000    0.049000
  C     -3.438000    4.555000   -1.113000
  C     -4.218000    5.694000   -1.071000
  C     -5.196000    7.614000    0.089000
  C      0.132000    4.307000    0.061000
  C     -0.569000    3.056000    0.047000
  C      1.649000    2.618000    0.023000
  C     -2.992000    4.827000    1.230000
  N     -4.386000    6.376000    0.086000
  N      0.388000    2.067000    0.025000
  N     -2.010000    0.395000   -0.075000
  N     -0.388000   -2.074000   -0.027000
  N      2.010000   -0.401000    0.065000
  C     -1.960000    2.861000    0.024000
  C     -2.623000    1.615000   -0.018000
  C     -5.573000   -4.329000    1.066000
  C     -4.073000    1.471000    0.056000
  C     -4.106000   -2.756000   -0.026000
  C     -4.995000   -2.757000   -1.111000
  C     -6.132000   -3.542000   -1.076000
  C     -7.651000   -5.113000    0.040000
  C     -4.324000    0.141000    0.037000
  C     -3.025000   -0.520000   -0.048000
  C     -4.422000   -3.566000    1.075000
  N     -6.407000   -4.313000    0.001000
  C     -2.867000   -1.922000   -0.040000
  C     -1.650000   -2.624000   -0.027000
  C      3.568000   -6.142000   -1.040000
  C     -1.476000   -4.049000   -0.034000
  C      2.803000   -4.099000   -0.008000
  C      3.657000   -4.384000    1.069000
  C      4.427000   -5.530000    1.059000
  C      5.245000   -7.588000    0.014000
  C     -0.134000   -4.315000   -0.022000
  C      0.568000   -3.064000   -0.027000
  C      2.775000   -5.012000   -1.074000
  N      4.376000   -6.391000    0.017000
  C      1.959000   -2.869000   -0.009000
  C      2.621000   -1.622000    0.009000
  C      5.543000    4.339000   -1.130000
  C      4.070000   -1.479000   -0.094000
  C      4.104000    2.751000   -0.021000
  C      5.027000    2.729000    1.036000
  C      6.166000    3.509000    0.978000
  C      7.619000    5.153000   -0.115000
  C      4.321000   -0.148000   -0.092000
  C      3.025000    0.514000    0.015000
  C      4.387000    3.582000   -1.115000
  C      2.866000    1.916000    0.013000
  N      6.413000    4.296000   -0.095000
  H     -3.970000    6.548000    2.113000
  H      2.274000    4.766000    0.081000
  H     -3.322000    4.037000   -2.058000
  H     -4.720000    6.093000   -1.943000
  H     -4.561000    8.456000   -0.193000
  H     -6.011000    7.502000   -0.626000
  H     -5.597000    7.767000    1.091000
  H     -0.332000    5.282000    0.069000
  H     -2.539000    4.514000    2.163000
  H      0.182000    1.072000    0.005000
  H     -0.183000   -1.080000   -0.021000
  H     -5.864000   -4.962000    1.895000
  H     -4.794000    2.272000    0.139000
  H     -4.800000   -2.160000   -1.994000
  H     -6.841000   -3.582000   -1.893000
  H     -8.428000   -4.536000    0.546000
  H     -7.956000   -5.337000   -0.981000
  H     -7.456000   -6.037000    0.584000
  H     -5.287000   -0.344000    0.100000
  H     -3.780000   -3.601000    1.947000
  H      3.587000   -6.868000   -1.843000
  H     -2.276000   -4.774000   -0.050000
  H      3.714000   -3.724000    1.926000
  H      5.092000   -5.795000    1.871000
  H      6.205000   -7.329000   -0.439000
  H      5.393000   -7.917000    1.042000
  H      4.759000   -8.373000   -0.564000
  H      0.329000   -5.290000   -0.008000
  H      2.146000   -4.842000   -1.940000
  H      5.808000    4.986000   -1.956000
  H      4.788000   -2.281000   -0.185000
  H      4.860000    2.114000    1.912000
  H      6.901000    3.531000    1.772000
  H      7.383000    6.109000    0.356000
  H      8.414000    4.652000    0.435000
  H      7.921000    5.310000   -1.150000
  H      5.283000    0.336000   -0.179000
  H      3.720000    3.632000   -1.967000

----------------------------
CARTESIAN COORDINATES (A.U.)
----------------------------
  NO LB      ZA    FRAG     MASS         X           Y           Z
   0 C     6.0000    0    12.011   -7.154503   11.258988    2.311135
   1 C     6.0000    0    12.011    2.785456    7.636383    0.107714
   2 C     6.0000    0    12.011   -5.295013    7.734649    0.092597
   3 C     6.0000    0    12.011   -6.496878    8.607703   -2.103265
   4 C     6.0000    0    12.011   -7.970865   10.760101   -2.023897
   5 C     6.0000    0    12.011   -9.819017   14.388375    0.168186
   6 C     6.0000    0    12.011    0.249444    8.139050    0.115273
   7 C     6.0000    0    12.011   -1.075254    5.775003    0.088817
   8 C     6.0000    0    12.011    3.116158    4.947303    0.043464
   9 C     6.0000    0    12.011   -5.654061    9.121708    2.324363
  10 N     7.0000    0    14.007   -8.288339   12.048894    0.162516
  11 N     7.0000    0    14.007    0.733214    3.906064    0.047243
  12 N     7.0000    0    14.007   -3.798350    0.746442   -0.141729
  13 N     7.0000    0    14.007   -0.733214   -3.919292   -0.051023
  14 N     7.0000    0    14.007    3.798350   -0.757780    0.122832
  15 C     6.0000    0    12.011   -3.703863    5.406506    0.045353
  16 C     6.0000    0    12.011   -4.956752    3.051908   -0.034015
  17 C     6.0000    0    12.011  -10.531444   -8.180624    2.014448
  18 C     6.0000    0    12.011   -7.696855    2.779787    0.105825
  19 C     6.0000    0    12.011   -7.759216   -5.208085   -0.049133
  20 C     6.0000    0    12.011   -9.439182   -5.209975   -2.099486
  21 C     6.0000    0    12.011  -11.587801   -6.693410   -2.033345
  22 C     6.0000    0    12.011  -14.458295   -9.662170    0.075589
  23 C     6.0000    0    12.011   -8.171176    0.266451    0.069920
  24 C     6.0000    0    12.011   -5.716422   -0.982658   -0.090707
  25 C     6.0000    0    12.011   -8.356369   -6.738763    2.031456
  26 N     7.0000    0    14.007  -12.107475   -8.150389    0.001890
  27 C     6.0000    0    12.011   -5.417845   -3.632054   -0.075589
  28 C     6.0000    0    12.011   -3.118048   -4.958641   -0.051023
  29 C     6.0000    0    12.011    6.742543  -11.606698   -1.965315
  30 C     6.0000    0    12.011   -2.789236   -7.651501   -0.064251
  31 C     6.0000    0    12.011    5.296902   -7.745987   -0.015118
  32 C     6.0000    0    12.011    6.910728   -8.284559    2.020117
  33 C     6.0000    0    12.011    8.365818  -10.450186    2.001220
  34 C     6.0000    0    12.011    9.911614  -14.339242    0.026456
  35 C     6.0000    0    12.011   -0.253223   -8.154168   -0.041574
  36 C     6.0000    0    12.011    1.073364   -5.790121   -0.051023
  37 C     6.0000    0    12.011    5.243990   -9.471307   -2.029566
  38 N     7.0000    0    14.007    8.269442  -12.077240    0.032125
  39 C     6.0000    0    12.011    3.701973   -5.421624   -0.017008
  40 C     6.0000    0    12.011    4.952972   -3.065136    0.017008
  41 C     6.0000    0    12.011   10.474752    8.199522   -2.135391
  42 C     6.0000    0    12.011    7.691185   -2.794905   -0.177634
  43 C     6.0000    0    12.011    7.755436    5.198637   -0.039684
  44 C     6.0000    0    12.011    9.499653    5.157063    1.957756
  45 C     6.0000    0    12.011   11.652051    6.631049    1.848152
  46 C     6.0000    0    12.011   14.397823    9.737759   -0.217319
  47 C     6.0000    0    12.011    8.165507   -0.279679   -0.173855
  48 C     6.0000    0    12.011    5.716422    0.971319    0.028346
  49 C     6.0000    0    12.011    8.290229    6.768999   -2.107045
  50 C     6.0000    0    12.011    5.415955    3.620715    0.024566
  51 N     7.0000    0    14.007   12.118814    8.118263   -0.179524
  52 H     1.0000    0     1.008   -7.502213   12.373927    3.992991
  53 H     1.0000    0     1.008    4.297237    9.006435    0.153068
  54 H     1.0000    0     1.008   -6.277670    7.628824   -3.889056
  55 H     1.0000    0     1.008   -8.919507   11.514101   -3.671738
  56 H     1.0000    0     1.008   -8.619041   15.979524   -0.364717
  57 H     1.0000    0     1.008  -11.359144   14.176725   -1.182969
  58 H     1.0000    0     1.008  -10.576797   14.677503    2.061691
  59 H     1.0000    0     1.008   -0.627389    9.981533    0.130391
  60 H     1.0000    0     1.008   -4.798015    8.530224    4.087478
  61 H     1.0000    0     1.008    0.343930    2.025786    0.009449
  62 H     1.0000    0     1.008   -0.345820   -2.040904   -0.039684
  63 H     1.0000    0     1.008  -11.081354   -9.376821    3.581031
  64 H     1.0000    0     1.008   -9.059347    4.293458    0.262672
  65 H     1.0000    0     1.008   -9.070685   -4.081808   -3.768114
  66 H     1.0000    0     1.008  -12.927616   -6.768999   -3.577252
  67 H     1.0000    0     1.008  -15.926612   -8.571798    1.031790
  68 H     1.0000    0     1.008  -15.034661  -10.085468   -1.853821
  69 H     1.0000    0     1.008  -14.089798  -11.408277    1.103600
  70 H     1.0000    0     1.008   -9.990982   -0.650066    0.188973
  71 H     1.0000    0     1.008   -7.143165   -6.804904    3.679297
  72 H     1.0000    0     1.008    6.778448  -12.978639   -3.482765
  73 H     1.0000    0     1.008   -4.301017   -9.021553   -0.094486
  74 H     1.0000    0     1.008    7.018443   -7.037340    3.639613
  75 H     1.0000    0     1.008    9.622485  -10.950963    3.535678
  76 H     1.0000    0     1.008   11.725751  -13.849803   -0.829590
  77 H     1.0000    0     1.008   10.191293  -14.960962    1.969095
  78 H     1.0000    0     1.008    8.993207  -15.822677   -1.065806
  79 H     1.0000    0     1.008    0.621720   -9.996651   -0.015118
  80 H     1.0000    0     1.008    4.055352   -9.150054   -3.666069
  81 H     1.0000    0     1.008   10.975529    9.422175   -3.696304
  82 H     1.0000    0     1.008    9.048009   -4.310465   -0.349599
  83 H     1.0000    0     1.008    9.184069    3.994881    3.613156
  84 H     1.0000    0     1.008   13.041000    6.672623    3.348595
  85 H     1.0000    0     1.008   13.951848   11.544337    0.672743
  86 H     1.0000    0     1.008   15.900156    8.791006    0.822031
  87 H     1.0000    0     1.008   14.968521   10.034446   -2.173185
  88 H     1.0000    0     1.008    9.983423    0.634948   -0.338261
  89 H     1.0000    0     1.008    7.029781    6.863485   -3.717091

--------------------------------
INTERNAL COORDINATES (ANGSTROEM)
--------------------------------
 C      0   0   0     0.000000000000     0.00000000     0.00000000
 C      1   0   0     5.718570188430     0.00000000     0.00000000
 C      1   2   0     2.413453334954    42.84058821     0.00000000
 C      3   1   2     1.402919812391    87.91363560   240.77120381
 C      4   3   1     1.381117301318   120.16046131     0.12256836
 C      5   4   3     2.447137920102   152.51963054     1.69114818
 C      2   1   3     1.368114030335    14.52770815    21.94820852
 C      7   2   3     1.434084376876   108.05010202     0.84668783
 C      2   1   3     1.434123425651   116.72431571   325.13308786
 C      1   2   3     1.381899417469    36.69536606    47.15350455
 N      1   2   3     1.351847994414   109.90167921   291.93519049
 N      9   2   1     1.376127174356   106.58526707    12.00646056
 N     12   9   2     2.925062050624   168.53581413   171.12065651
 N     13  12   9     2.954513327098    91.55032014    11.12112580
 N     14  13  12     2.925371258490    88.43092389   359.84326247
 C      8   7   2     1.404790019896   127.24786865   181.11170171
 C     13  12   9     1.366535034311    81.72106996   188.00453233
 C     14  13  12     5.758810554272    80.56209567   166.76250791
 C     17  13  12     1.459010623676   111.08861209   183.82872609
 C     18  14  13     2.412235892279    27.27532823    36.33507194
 C     20  18  14     1.402692767501    87.95206320   148.94598259
 C     21  20  18     1.382106725257   120.14573887   359.70382047
 C     18  14  13     2.446510985056   144.15733107    82.80075377
 C     19  17  13     1.353610726908   106.29293361   359.75308708
 C     13  12   9     1.366813447402   172.21332906    33.46711076
 C     18  14  13     1.380960173213    15.08449437   309.23336894
 N     22  21  20     1.352773077792   120.73759875     0.27865223
 C     25  13  17     1.410897586645   125.60330303   182.37774668
 C     14  13  12     1.376642291955    80.24689249   177.85461986
 C     14  13  12     5.764089607215   164.51507311   312.20821879
 C     29  14  13     1.435600919476   106.58649366   178.76395472
 C     30  14  13     2.413316804732    27.10625047    82.12560436
 C     32  30  14     1.403734305344    87.90059683   149.76154742
 C     33  32  30     1.380694028378   120.14881443   359.74174632
 C     34  33  32     2.448777858443   152.49203239     2.45173620
 C     31  29  14     1.368160809262   108.16950133     0.70383075
 C     14  13  12     1.376239804685   169.26375223   353.09862627
 C     30  14  13     1.380907310430    14.68948582   353.70041132
 N     34  33  32     1.352658863128   120.85575621     0.19603406
 C     37  14  29     1.404717053360   126.01551127   180.90772073
 C     15  14  13     1.366491126938    81.61824056   183.09049352
 C      2   1   3     4.249062720177   156.10383173   136.03889910
 C     41  15  14     1.459677704153   111.05201287   175.08990246
 C     42   2   1     2.412953791518    41.78584867   164.48340410
 C     44  42   2     1.403446472082    87.95153797   233.97558675
 C     45  44  42     1.381696421071   120.11137308     0.19721020
 C     42   2   1     2.450019795838   135.97209175    74.79825320
 C     43  41  15     1.354461516618   106.26758155     0.30894352
 C     15  14  13     1.367461151185   171.87382904   332.35056460
 C     42   2   1     1.381886391857    32.59078432   213.33868329
 C      9   2   1     1.404988612053   126.98745415   193.01079809
 N     42   2   1     1.352765315936   113.57249190   102.53484239
 H      1   2   3     1.083538647211   120.41154836   152.12927178
 H      2   1   3     1.079907866440   116.86013394   157.11538307
 H      4   3   1     1.083884218909   121.08046636   179.51578561
 H      5   4   3     1.082399648928   122.78112887   179.41388731
 H      6   5   4     1.091656081374   104.49150654   100.01840373
 H      6   5   4     1.089951375062    84.67856643   209.50241516
 H      6   5   4     1.090052292324   133.85836701   322.29182878
 H      7   2  54     1.079807853278   126.66122480     1.30600390
 H     10   1   2     1.083359127898   118.75571487    98.76986134
 H     12   9   2     1.016297692608   125.29023241   180.00180175
 H     14  13  12     1.014936943854    44.97226959   359.42596618
 H     18  14  13     1.082871645210   128.03556573   234.20482432
 H     19  17  13     1.080893611786   126.41830519   178.11313280
 H     21  20  18     1.083569563987   121.05669627   180.67006309
 H     22  21  20     1.082483256222   122.73097286   180.59748951
 H     23  18  14     1.092105306278   103.92715769   234.93429879
 H     23  18  14     1.088871893291   134.19244188    12.25587044
 H     23  18  14     1.089833473518    84.85857450   125.45241208
 H     24  19  17     1.080075460327   127.28078426   178.44613241
 H     26  18  14     1.083408048706   118.76995697   244.94906660
 H     30  14  13     1.082703098730   127.99711412   279.66882698
 H     31  29  14     1.079759695488   125.22293469   180.92530585
 H     33  32  30     1.083188810873   121.01964473   180.74284758
 H     34  33  32     1.082494341787   122.70821597   180.59516895
 H     35  34  33     1.092652735319   105.73575241    97.19771933
 H     35  34  33     1.089462711615    84.05943581   206.43036958
 H     35  34  33     1.089268102902   133.08365142   318.50306270
 H     36  31  29     1.079439669458   126.61599965   178.98859863
 H     38  30  73     1.083742127999   118.77264435   359.90091293
 H     42   2   1     1.082178358682   119.31790784   319.16637285
 H     43  41  15     1.080281907652   126.36969097   182.06329380
 H     45  44  42     1.083277434455   121.10105945   179.58025624
 H     46  45  44     1.082194529648   122.72144639   179.46906377
 H     47  42   2     1.091546151109   106.65128841   315.16475048
 H     47  42   2     1.088818625851   132.46019523    94.52397119
 H     47  42   2     1.089531091801    83.63838232   206.04504406
 H     48  43  41     1.080402239909   127.23657387   181.62955349
 H     50  42   2     1.083186502870   118.77001737    94.71359229

---------------------------
INTERNAL COORDINATES (A.U.)
---------------------------
 C      0   0   0     0.000000000000     0.00000000     0.00000000
 C      1   0   0    10.806531533739     0.00000000     0.00000000
 C      1   2   0     4.560765840062    42.84058821     0.00000000
 C      3   1   2     2.651134233272    87.91363560   240.77120381
 C      4   3   1     2.609933458311   120.16046131     0.12256836
 C      5   4   3     4.624420480926   152.51963054     1.69114818
 C      2   1   3     2.585360837309    14.52770815    21.94820852
 C      7   2   3     2.710026725231   108.05010202     0.84668783
 C      2   1   3     2.710100516721   116.72431571   325.13308786
 C      1   2   3     2.611411443641    36.69536606    47.15350455
 N      1   2   3     2.554622484132   109.90167921   291.93519049
 N      9   2   1     2.600503484979   106.58526707    12.00646056
 N     12   9   2     5.527566200405   168.53581413   171.12065651
 N     13  12   9     5.583221047236    91.55032014    11.12112580
 N     14  13  12     5.528150518591    88.43092389   359.84326247
 C      8   7   2     2.654668413270   127.24786865   181.11170171
 C     13  12   9     2.582376967257    81.72106996   188.00453233
 C     14  13  12    10.882574804710    80.56209567   166.76250791
 C     17  13  12     2.757130505230   111.08861209   183.82872609
 C     18  14  13     4.558465206823    27.27532823    36.33507194
 C     20  18  14     2.650705180609    87.95206320   148.94598259
 C     21  20  18     2.611803198586   120.14573887   359.70382047
 C     18  14  13     4.623235745386   144.15733107    82.80075377
 C     19  17  13     2.557953565794   106.29293361   359.75308708
 C     13  12   9     2.582903091751   172.21332906    33.46711076
 C     18  14  13     2.609636529225    15.08449437   309.23336894
 N     22  21  20     2.556370638369   120.73759875     0.27865223
 C     25  13  17     2.666210041769   125.60330303   182.37774668
 C     14  13  12     2.601476916169    80.24689249   177.85461986
 C     14  13  12    10.892550769017   164.51507311   312.20821879
 C     29  14  13     2.712892575415   106.58649366   178.76395472
 C     30  14  13     4.560507835333    27.10625047    82.12560436
 C     32  30  14     2.652673401891    87.90059683   149.76154742
 C     33  32  30     2.609133588376   120.14881443   359.74174632
 C     34  33  32     4.627519515267   152.49203239     2.45173620
 C     31  29  14     2.585449236669   108.16950133     0.70383075
 C     14  13  12     2.600716325456   169.26375223   353.09862627
 C     30  14  13     2.609536633043    14.68948582   353.70041132
 N     34  33  32     2.556154803934   120.85575621     0.19603406
 C     37  14  29     2.654530526499   126.01551127   180.90772073
 C     15  14  13     2.582293994346    81.61824056   183.09049352
 C      2   1   3     8.029564866989   156.10383173   136.03889910
 C     41  15  14     2.758391104639   111.05201287   175.08990246
 C     42   2   1     4.559821839776    41.78584867   164.48340410
 C     44  42   2     2.652129475853    87.95153797   233.97558675
 C     45  44  42     2.611027836043   120.11137308     0.19721020
 C     42   2   1     4.629866436820   135.97209175    74.79825320
 C     43  41  15     2.559561325344   106.26758155     0.30894352
 C     15  14  13     2.584127074516   171.87382904   332.35056460
 C     42   2   1     2.611386828803    32.59078432   213.33868329
 C      9   2   1     2.655043698059   126.98745415   193.01079809
 N     42   2   1     2.556355970587   113.57249190   102.53484239
 H      1   2   3     2.047591298748   120.41154836   152.12927178
 H      2   1   3     2.040730117440   116.86013394   157.11538307
 H      4   3   1     2.048244334617   121.08046636   179.51578561
 H      5   4   3     2.045438903927   122.78112887   179.41388731
 H      6   5   4     2.062931026226   104.49150654   100.01840373
 H      6   5   4     2.059709598158    84.67856643   209.50241516
 H      6   5   4     2.059900304145   133.85836701   322.29182878
 H      7   2  54     2.040541119952   126.66122480     1.30600390
 H     10   1   2     2.047252056411   118.75571487    98.76986134
 H     12   9   2     1.920524309565   125.29023241   180.00180175
 H     14  13  12     1.917952867083    44.97226959   359.42596618
 H     18  14  13     2.046330847636   128.03556573   234.20482432
 H     19  17  13     2.042592906181   126.41830519   178.11313280
 H     21  20  18     2.047649722989   121.05669627   180.67006309
 H     22  21  20     2.045596898814   122.73097286   180.59748951
 H     23  18  14     2.063779938267   103.92715769   234.93429879
 H     23  18  14     2.057669673245   134.19244188    12.25587044
 H     23  18  14     2.059486796529    84.85857450   125.45241208
 H     24  19  17     2.041046823986   127.28078426   178.44613241
 H     26  18  14     2.047344503340   118.76995697   244.94906660
 H     30  14  13     2.046012340948   127.99711412   279.66882698
 H     31  29  14     2.040450114918   125.22293469   180.92530585
 H     33  32  30     2.046930203877   121.01964473   180.74284758
 H     34  33  32     2.045617847496   122.70821597   180.59516895
 H     35  34  33     2.064814429233   105.73575241    97.19771933
 H     35  34  33     2.058786158072    84.05943581   206.43036958
 H     35  34  33     2.058418400901   133.08365142   318.50306270
 H     36  31  29     2.039845353366   126.61599965   178.98859863
 H     38  30  73     2.047975821711   118.77264435   359.90091293
 H     42   2   1     2.045020725966   119.31790784   319.16637285
 H     43  41  15     2.041436952892   126.36969097   182.06329380
 H     45  44  42     2.047097678177   121.10105945   179.58025624
 H     46  45  44     2.045051284662   122.72144639   179.46906377
 H     47  42   2     2.062723288131   106.65128841   315.16475048
 H     47  42   2     2.057569012371   132.46019523    94.52397119
 H     47  42   2     2.058915377895    83.63838232   206.04504406
 H     48  43  41     2.041664347903   127.23657387   181.62955349
 H     50  42   2     2.046925842384   118.77001737    94.71359229

---------------------
BASIS SET INFORMATION
---------------------
There are 3 groups of distinct atoms

 Group   1 Type C   : 17s4p1d contracted to 3s2p1d pattern {881/31/1}
 Group   2 Type N   : 17s4p1d contracted to 3s2p1d pattern {881/31/1}
 Group   3 Type H   : 4s1p contracted to 2s1p pattern {31/1}

Atom   0C    basis set group =>   1
Atom   1N    basis set group =>   2
Atom   2C    basis set group =>   1
Atom   3N    basis set group =>   2
Atom   4C    basis set group =>   1
Atom   5N    basis set group =>   2
Atom   6C    basis set group =>   1
Atom   7N    basis set group =>   2
Atom   8C    basis set group =>   1
Atom   9N    basis set group =>   2
Atom  10C    basis set group =>   1
Atom  11N    basis set group =>   2
Atom  12C    basis set group =>   1
Atom  13N    basis set group =>   2
Atom  14C    basis set group =>   1
Atom  15N    basis set group =>   2
Atom  16C    basis set group =>   1
Atom  17C    basis set group =>   1
Atom  18C    basis set group =>   1
Atom  19C    basis set group =>   1
Atom  20C    basis set group =>   1
Atom  21C    basis set group =>   1
Atom  22C    basis set group =>   1
Atom  23C    basis set group =>   1
Atom  24C    basis set group =>   1
Atom  25C    basis set group =>   1
Atom  26C    basis set group =>   1
Atom  27C    basis set group =>   1
Atom  28C    basis set group =>   1
Atom  29C    basis set group =>   1
Atom  30C    basis set group =>   1
Atom  31C    basis set group =>   1
Atom  32C    basis set group =>   1
Atom  33C    basis set group =>   1
Atom  34C    basis set group =>   1
Atom  35C    basis set group =>   1
Atom  36C    basis set group =>   1
Atom  37C    basis set group =>   1
Atom  38C    basis set group =>   1
Atom  39C    basis set group =>   1
Atom  40C    basis set group =>   1
Atom  41C    basis set group =>   1
Atom  42C    basis set group =>   1
Atom  43C    basis set group =>   1
Atom  44C    basis set group =>   1
Atom  45C    basis set group =>   1
Atom  46C    basis set group =>   1
Atom  47C    basis set group =>   1
Atom  48C    basis set group =>   1
Atom  49C    basis set group =>   1
Atom  50C    basis set group =>   1
Atom  51C    basis set group =>   1
Atom  52H    basis set group =>   3
Atom  53H    basis set group =>   3
Atom  54H    basis set group =>   3
Atom  55H    basis set group =>   3
Atom  56H    basis set group =>   3
Atom  57H    basis set group =>   3
Atom  58H    basis set group =>   3
Atom  59H    basis set group =>   3
Atom  60H    basis set group =>   3
Atom  61H    basis set group =>   3
Atom  62H    basis set group =>   3
Atom  63H    basis set group =>   3
Atom  64H    basis set group =>   3
Atom  65H    basis set group =>   3
Atom  66H    basis set group =>   3
Atom  67H    basis set group =>   3
Atom  68H    basis set group =>   3
Atom  69H    basis set group =>   3
Atom  70H    basis set group =>   3
Atom  71H    basis set group =>   3
Atom  72H    basis set group =>   3
Atom  73H    basis set group =>   3
Atom  74H    basis set group =>   3
Atom  75H    basis set group =>   3
Atom  76H    basis set group =>   3
Atom  77H    basis set group =>   3
Atom  78H    basis set group =>   3
Atom  79H    basis set group =>   3
Atom  80H    basis set group =>   3
Atom  81H    basis set group =>   3
Atom  82H    basis set group =>   3
Atom  83H    basis set group =>   3
Atom  84H    basis set group =>   3
Atom  85H    basis set group =>   3
Atom  86H    basis set group =>   3
Atom  87H    basis set group =>   3
Atom  88H    basis set group =>   3
Atom  89H    basis set group =>   3


           ************************************************************
           *        Program running with 8 parallel MPI-processes     *
           *              working on a common directory               *
           ************************************************************
------------------------------------------------------------------------------
                           ORCA GTO INTEGRAL CALCULATION
------------------------------------------------------------------------------
------------------------------------------------------------------------------
                   ___                                                        
                  /   \      - P O W E R E D   B Y -                         
                 /     \                                                     
                 |  |  |   _    _      __       _____    __    __             
                 |  |  |  | |  | |    /  \     |  _  \  |  |  /  |          
                  \  \/   | |  | |   /    \    | | | |  |  | /  /          
                 / \  \   | |__| |  /  /\  \   | |_| |  |  |/  /          
                |  |  |   |  __  | /  /__\  \  |    /   |      \           
                |  |  |   | |  | | |   __   |  |    \   |  |\   \          
                \     /   | |  | | |  |  |  |  | |\  \  |  | \   \       
                 \___/    |_|  |_| |__|  |__|  |_| \__\ |__|  \__/        
                                                                              
                      - O R C A' S   B I G   F R I E N D -                    
                                      &                                       
                       - I N T E G R A L  F E E D E R -                       
                                                                              
 v1 FN, 2020, v2 2021                                                         
------------------------------------------------------------------------------


Reading SHARK input file /scratch/chu_02/allen/tmpyp4_amber_gaff2/conf1/conf1/Conf285.orca.SHARKINP.tmp ... ok
----------------------
SHARK INTEGRAL PACKAGE
----------------------

Number of atoms                             ...     90
Number of basis functions                   ...   1230
Number of shells                            ...    738
Maximum angular momentum                    ...      2
Integral batch strategy                     ... SHARK/LIBINT Hybrid
RI-J (if used) integral strategy            ... SPLIT-RIJ (Revised 2003 algorithm where possible)
Printlevel                                  ...      1
Contraction scheme used                     ... PARTIAL GENERAL contraction
Coulomb Range Separation                    ... NOT USED
Exchange Range Separation                   ... NOT USED
Finite Nucleus Model                        ... NOT USED
Auxiliary Coulomb fitting basis             ... NOT available
Auxiliary J/K fitting basis                 ... NOT available
Auxiliary Correlation fitting basis         ... NOT available
Auxiliary 'external' fitting basis          ... NOT available
Integral threshold                          ...     2.500000e-11
Primitive cut-off                           ...     2.500000e-12
Primitive pair pre-selection threshold      ...     2.500000e-12

Calculating pre-screening integrals         ... done (  0.1 sec) Dimension = 738
Calculating pre-screening integrals (ORCA)  ... done (  0.3 sec) Dimension = 426
Organizing shell pair data                  ... done (  0.6 sec)
Shell pair information
Total number of shell pairs                 ...    272691
Shell pairs after pre-screening             ...     71599
Total number of primitive shell pairs       ...    422091
Primitive shell pairs kept                  ...     92351
          la=0 lb=0:  29414 shell pairs
          la=1 lb=0:  25958 shell pairs
          la=1 lb=1:   4684 shell pairs
          la=2 lb=0:   7889 shell pairs
          la=2 lb=1:   3123 shell pairs
          la=2 lb=2:    531 shell pairs

Calculating one electron integrals          ... done (  0.3 sec)
Calculating Nuclear repulsion               ... done (  0.0 sec) ENN=   6222.385282051662 Eh

SHARK setup successfully completed in   1.8 seconds

Maximum memory used throughout the entire GTOINT-calculation: 99.0 MB


           ************************************************************
           *        Program running with 8 parallel MPI-processes     *
           *              working on a common directory               *
           ************************************************************
-------------------------------------------------------------------------------
                                 ORCA SCF
-------------------------------------------------------------------------------

------------
SCF SETTINGS
------------
Hamiltonian:
 Ab initio Hamiltonian  Method          .... Hartree-Fock(GTOs)


General Settings:
 Integral files         IntName         .... /scratch/chu_02/allen/tmpyp4_amber_gaff2/conf1/conf1/Conf285.orca
 Hartree-Fock type      HFTyp           .... RHF
 Total Charge           Charge          ....    0
 Multiplicity           Mult            ....    1
 Number of Electrons    NEL             ....  358
 Basis Dimension        Dim             ....  918
 Nuclear Repulsion      ENuc            ....   6222.3852820517 Eh

Convergence Acceleration:
 DIIS                   CNVDIIS         .... on
   Start iteration      DIISMaxIt       ....    12
   Startup error        DIISStart       ....  0.200000
   # of expansion vecs  DIISMaxEq       ....     5
   Bias factor          DIISBfac        ....   1.050
   Max. coefficient     DIISMaxC        ....  10.000
 Trust-Rad. Augm. Hess. CNVTRAH         .... auto
   Auto Start mean grad. ratio tolernc. ....  1.125000
   Auto Start start iteration           ....    20
   Auto Start num. interpolation iter.  ....    10
   Max. Number of Micro iterations      ....    16
   Max. Number of Macro iterations      .... Maxiter - #DIIS iter
   Number of Davidson start vectors     ....     2
   Converg. threshold I  (grad. norm)   ....   1.000e-05
   Converg. threshold II (energy diff.) ....   1.000e-08
   Grad. Scal. Fac. for Micro threshold ....   0.100
   Minimum threshold for Micro iter.    ....   0.010
   NR start threshold (gradient norm)   ....   0.001
   Initial trust radius                 ....   0.400
   Minimum AH scaling param. (alpha)    ....   1.000
   Maximum AH scaling param. (alpha)    .... 1000.000
   Orbital update algorithm             .... Taylor
   White noise on init. David. guess    .... on
   Maximum white noise                  ....   0.010
   Quad. conv. algorithm                .... NR
 SOSCF                  CNVSOSCF        .... on
   Start iteration      SOSCFMaxIt      ....   150
   Startup grad/error   SOSCFStart      ....  0.003300
 Level Shifting         CNVShift        .... on
   Level shift para.    LevelShift      ....    0.2500
   Turn off err/grad.   ShiftErr        ....    0.0010
 Zerner damping         CNVZerner       .... off
 Static damping         CNVDamp         .... on
   Fraction old density DampFac         ....    0.7000
   Max. Damping (<1)    DampMax         ....    0.9800
   Min. Damping (>=0)   DampMin         ....    0.0000
   Turn off err/grad.   DampErr         ....    0.1000
 Fernandez-Rico         CNVRico         .... off

SCF Procedure:
 Maximum # iterations   MaxIter         ....   125
 SCF integral mode      SCFMode         .... Direct
   Integral package                     .... SHARK and LIBINT hybrid scheme
 Reset frequency        DirectResetFreq ....    20
 Integral Threshold     Thresh          ....  2.500e-11 Eh
 Primitive CutOff       TCut            ....  2.500e-12 Eh

Convergence Tolerance:
 Convergence Check Mode ConvCheckMode   .... Total+1el-Energy
 Convergence forced     ConvForced      .... 1
 Energy Change          TolE            ....  1.000e-08 Eh
 1-El. energy change                    ....  1.000e-05 Eh
 Orbital Gradient       TolG            ....  1.000e-05
 Orbital Rotation angle TolX            ....  1.000e-05
 DIIS Error             TolErr          ....  5.000e-07


Diagonalization of the overlap matrix:
Smallest eigenvalue                        ... 2.262e-04
Time for diagonalization                   ...    0.216 sec
Threshold for overlap eigenvalues          ... 1.000e-08
Number of eigenvalues below threshold      ... 0
Time for construction of square roots      ...    0.133 sec
Total time needed                          ...    0.354 sec

Time for model grid setup =    1.324 sec

------------------------------
INITIAL GUESS: MODEL POTENTIAL
------------------------------
Loading Hartree-Fock densities                     ... done
Calculating cut-offs                               ... done
Initializing the effective Hamiltonian             ... done
Setting up the integral package (SHARK)            ... done
Starting the Coulomb interaction                   ... done (   1.6 sec)
Reading the grid                                   ... done
Mapping shells                                     ... done
Starting the XC term evaluation                    ... done (   0.3 sec)
Transforming the Hamiltonian                       ... done (   0.1 sec)
Diagonalizing the Hamiltonian                      ... done (   0.2 sec)
Back transforming the eigenvectors                 ... done (   0.0 sec)
Now organizing SCF variables                       ... done
                      ------------------
                      INITIAL GUESS DONE (   3.7 sec)
                      ------------------
--------------
SCF ITERATIONS
--------------
ITER       Energy         Delta-E        Max-DP      RMS-DP      [F,P]     Damp
               ***  Starting incremental Fock matrix formation  ***
  0  -2121.6494412480   0.000000000000 0.06928054  0.00121137  0.2345750 0.7000
  1  -2122.3183580809  -0.668916832859 0.05263951  0.00098174  0.1450684 0.7000
                               ***Turning on DIIS***
  2  -2122.7342500579  -0.415891977000 0.11694302  0.00222073  0.0805481 0.0000
  3  -2117.7015768026   5.032673255313 0.03314898  0.00068693  0.0444218 0.0000
  4  -2123.4021369312  -5.700560128595 0.00896171  0.00023005  0.0071516 0.0000
  5  -2123.5823079053  -0.180170974105 0.00520533  0.00013751  0.0050604 0.0000
  6  -2123.5638649503   0.018442954943 0.00385794  0.00009202  0.0022114 0.0000
  7  -2123.6693241144  -0.105459164008 0.00337477  0.00007560  0.0017079 0.0000
  8  -2123.6962860132  -0.026961898820 0.00317969  0.00007494  0.0015947 0.0000
  9  -2123.6562346540   0.040051359145 0.00268526  0.00005365  0.0012631 0.0000
 10  -2123.6777552244  -0.021520570330 0.00686727  0.00012119  0.0009556 0.0000
                      *** Initiating the SOSCF procedure ***
                           *** Shutting down DIIS ***
                      *** Re-Reading the Fockian *** 
                      *** Removing any level shift *** 
ITER      Energy       Delta-E        Grad      Rot      Max-DP    RMS-DP
 11  -2123.51685879   0.1608964314  0.000199  0.000199  0.000251  0.000006
               *** Restarting incremental Fock matrix formation ***
 12  -2123.61382069  -0.0969618928  0.000915  0.007842  0.001739  0.000043
 13  -2123.61397739  -0.0001567032  0.001178  0.031075  0.009329  0.000159
 14  -2123.61426888  -0.0002914949  0.000357  0.006365  0.001972  0.000031
 15  -2123.61431088  -0.0000419992  0.000439  0.018403  0.004305  0.000069
 16  -2123.61436462  -0.0000537370  0.000247  0.006967  0.001402  0.000031
 17  -2123.61438685  -0.0000222295  0.000351  0.010451  0.001793  0.000036
 18  -2123.61440803  -0.0000211755  0.000220  0.007348  0.001354  0.000024
 19  -2123.61441750  -0.0000094723  0.000140  0.003493  0.000601  0.000011
 20  -2123.61442058  -0.0000030787  0.000110  0.002447  0.000427  0.000009
 21  -2123.61442290  -0.0000023210  0.000077  0.002803  0.000432  0.000010
 22  -2123.61442462  -0.0000017183  0.000056  0.002107  0.000368  0.000007
 23  -2123.61442547  -0.0000008573  0.000050  0.001373  0.000258  0.000005
 24  -2123.61442591  -0.0000004335  0.000022  0.000574  0.000146  0.000003
 25  -2123.61442610  -0.0000001960  0.000021  0.000573  0.000126  0.000002
 26  -2123.61442622  -0.0000001152  0.000018  0.000725  0.000153  0.000003
 27  -2123.61442631  -0.0000000923  0.000017  0.000571  0.000118  0.000002
 28  -2123.61442637  -0.0000000570  0.000011  0.000319  0.000060  0.000001
 29  -2123.61442640  -0.0000000324  0.000006  0.000099  0.000022  0.000001
 30  -2123.61442641  -0.0000000120  0.000003  0.000041  0.000013  0.000000
 31  -2123.61442642  -0.0000000043  0.000003  0.000047  0.000017  0.000000
               *** Restarting incremental Fock matrix formation ***
                  ***Gradient check signals convergence***
              ***Rediagonalizing the Fockian in SOSCF/NRSCF***

               *****************************************************
               *                     SUCCESS                       *
               *           SCF CONVERGED AFTER  32 CYCLES          *
               *****************************************************


----------------
TOTAL SCF ENERGY
----------------

Total Energy       :        -2123.61442641 Eh          -57786.48635 eV

Components:
Nuclear Repulsion  :         6222.38528205 Eh          169319.71157 eV
Electronic Energy  :        -8345.99970846 Eh         -227106.19792 eV
One Electron Energy:       -15286.21802363 Eh         -415959.13938 eV
Two Electron Energy:         6940.21831517 Eh          188852.94145 eV

Virial components:
Potential Energy   :        -4245.59532974 Eh         -115528.52228 eV
Kinetic Energy     :         2121.98090333 Eh           57742.03593 eV
Virial Ratio       :            2.00076981


---------------
SCF CONVERGENCE
---------------

  Last Energy change         ...    5.4206e-09  Tolerance :   1.0000e-08
  Last MAX-Density change    ...    1.4509e-05  Tolerance :   1.0000e-07
  Last RMS-Density change    ...    1.9500e-07  Tolerance :   5.0000e-09
  Last Orbital Gradient      ...    1.5584e-06  Tolerance :   1.0000e-05
  Last Orbital Rotation      ...    4.1602e-05  Tolerance :   1.0000e-05

             **** THE GBW FILE WAS UPDATED (/scratch/chu_02/allen/tmpyp4_amber_gaff2/conf1/conf1/Conf285.orca.gbw) ****
             **** DENSITY /scratch/chu_02/allen/tmpyp4_amber_gaff2/conf1/conf1/Conf285.orca.scfp WAS UPDATED ****
             **** ENERGY FILE WAS UPDATED (/scratch/chu_02/allen/tmpyp4_amber_gaff2/conf1/conf1/Conf285.orca.en.tmp) ****
             **** THE GBW FILE WAS UPDATED (/scratch/chu_02/allen/tmpyp4_amber_gaff2/conf1/conf1/Conf285.orca.gbw) ****
             **** DENSITY /scratch/chu_02/allen/tmpyp4_amber_gaff2/conf1/conf1/Conf285.orca.scfp WAS UPDATED ****
----------------
ORBITAL ENERGIES
----------------

  NO   OCC          E(Eh)            E(eV) 
   0   2.0000     -15.683637      -426.7735 
   1   2.0000     -15.635109      -425.4529 
   2   2.0000     -15.623682      -425.1420 
   3   2.0000     -15.596674      -424.4071 
   4   2.0000     -15.518096      -422.2689 
   5   2.0000     -15.509143      -422.0252 
   6   2.0000     -15.448458      -420.3739 
   7   2.0000     -15.432312      -419.9346 
   8   2.0000     -11.329768      -308.2987 
   9   2.0000     -11.329038      -308.2788 
  10   2.0000     -11.329016      -308.2782 
  11   2.0000     -11.300197      -307.4940 
  12   2.0000     -11.294281      -307.3330 
  13   2.0000     -11.292683      -307.2895 
  14   2.0000     -11.287680      -307.1534 
  15   2.0000     -11.284024      -307.0539 
  16   2.0000     -11.281338      -306.9808 
  17   2.0000     -11.277673      -306.8811 
  18   2.0000     -11.275938      -306.8339 
  19   2.0000     -11.263997      -306.5089 
  20   2.0000     -11.263829      -306.5044 
  21   2.0000     -11.260167      -306.4047 
  22   2.0000     -11.256722      -306.3110 
  23   2.0000     -11.238560      -305.8168 
  24   2.0000     -11.231275      -305.6185 
  25   2.0000     -11.230446      -305.5960 
  26   2.0000     -11.227824      -305.5246 
  27   2.0000     -11.222428      -305.3778 
  28   2.0000     -11.222240      -305.3727 
  29   2.0000     -11.203860      -304.8725 
  30   2.0000     -11.203600      -304.8655 
  31   2.0000     -11.203504      -304.8628 
  32   2.0000     -11.202750      -304.8423 
  33   2.0000     -11.201858      -304.8181 
  34   2.0000     -11.186837      -304.4093 
  35   2.0000     -11.186784      -304.4079 
  36   2.0000     -11.185592      -304.3754 
  37   2.0000     -11.185151      -304.3634 
  38   2.0000     -11.183720      -304.3245 
  39   2.0000     -11.168041      -303.8978 
  40   2.0000     -11.167633      -303.8867 
  41   2.0000     -11.162351      -303.7430 
  42   2.0000     -11.159946      -303.6776 
  43   2.0000     -11.159415      -303.6631 
  44   2.0000     -11.154368      -303.5258 
  45   2.0000     -11.153250      -303.4954 
  46   2.0000     -11.152664      -303.4794 
  47   2.0000     -11.148668      -303.3707 
  48   2.0000     -11.147398      -303.3361 
  49   2.0000     -11.140472      -303.1477 
  50   2.0000     -11.124694      -302.7183 
  51   2.0000     -11.121208      -302.6234 
  52   2.0000      -1.362382       -37.0723 
  53   2.0000      -1.322249       -35.9802 
  54   2.0000      -1.311977       -35.7007 
  55   2.0000      -1.289173       -35.0802 
  56   2.0000      -1.219472       -33.1835 
  57   2.0000      -1.205853       -32.8129 
  58   2.0000      -1.169974       -31.8366 
  59   2.0000      -1.144170       -31.1345 
  60   2.0000      -1.142890       -31.0996 
  61   2.0000      -1.110476       -30.2176 
  62   2.0000      -1.101248       -29.9665 
  63   2.0000      -1.082831       -29.4653 
  64   2.0000      -1.081177       -29.4203 
  65   2.0000      -1.046255       -28.4701 
  66   2.0000      -1.039156       -28.2769 
  67   2.0000      -1.036609       -28.2076 
  68   2.0000      -1.015446       -27.6317 
  69   2.0000      -1.013651       -27.5829 
  70   2.0000      -1.005447       -27.3596 
  71   2.0000      -0.988543       -26.8996 
  72   2.0000      -0.984959       -26.8021 
  73   2.0000      -0.977977       -26.6121 
  74   2.0000      -0.968587       -26.3566 
  75   2.0000      -0.959560       -26.1110 
  76   2.0000      -0.951330       -25.8870 
  77   2.0000      -0.944779       -25.7087 
  78   2.0000      -0.926207       -25.2034 
  79   2.0000      -0.918295       -24.9881 
  80   2.0000      -0.909626       -24.7522 
  81   2.0000      -0.888751       -24.1841 
  82   2.0000      -0.874995       -23.8098 
  83   2.0000      -0.870615       -23.6906 
  84   2.0000      -0.863762       -23.5042 
  85   2.0000      -0.851482       -23.1700 
  86   2.0000      -0.842262       -22.9191 
  87   2.0000      -0.831303       -22.6209 
  88   2.0000      -0.822237       -22.3742 
  89   2.0000      -0.795951       -21.6589 
  90   2.0000      -0.791740       -21.5443 
  91   2.0000      -0.752996       -20.4901 
  92   2.0000      -0.733757       -19.9665 
  93   2.0000      -0.726981       -19.7821 
  94   2.0000      -0.721543       -19.6342 
  95   2.0000      -0.716582       -19.4992 
  96   2.0000      -0.714638       -19.4463 
  97   2.0000      -0.708035       -19.2666 
  98   2.0000      -0.699214       -19.0266 
  99   2.0000      -0.695321       -18.9206 
 100   2.0000      -0.693831       -18.8801 
 101   2.0000      -0.686704       -18.6862 
 102   2.0000      -0.681813       -18.5531 
 103   2.0000      -0.677031       -18.4230 
 104   2.0000      -0.672060       -18.2877 
 105   2.0000      -0.669062       -18.2061 
 106   2.0000      -0.666245       -18.1294 
 107   2.0000      -0.655625       -17.8405 
 108   2.0000      -0.653626       -17.7861 
 109   2.0000      -0.650474       -17.7003 
 110   2.0000      -0.646782       -17.5998 
 111   2.0000      -0.646443       -17.5906 
 112   2.0000      -0.645775       -17.5724 
 113   2.0000      -0.639028       -17.3888 
 114   2.0000      -0.634022       -17.2526 
 115   2.0000      -0.627359       -17.0713 
 116   2.0000      -0.622627       -16.9425 
 117   2.0000      -0.615895       -16.7594 
 118   2.0000      -0.613099       -16.6833 
 119   2.0000      -0.612859       -16.6767 
 120   2.0000      -0.608981       -16.5712 
 121   2.0000      -0.604450       -16.4479 
 122   2.0000      -0.594187       -16.1686 
 123   2.0000      -0.588306       -16.0086 
 124   2.0000      -0.584727       -15.9112 
 125   2.0000      -0.582016       -15.8375 
 126   2.0000      -0.575783       -15.6679 
 127   2.0000      -0.573615       -15.6089 
 128   2.0000      -0.571424       -15.5492 
 129   2.0000      -0.558925       -15.2091 
 130   2.0000      -0.555492       -15.1157 
 131   2.0000      -0.547843       -14.9076 
 132   2.0000      -0.545255       -14.8371 
 133   2.0000      -0.538570       -14.6552 
 134   2.0000      -0.534725       -14.5506 
 135   2.0000      -0.531457       -14.4617 
 136   2.0000      -0.520497       -14.1634 
 137   2.0000      -0.518213       -14.1013 
 138   2.0000      -0.514001       -13.9867 
 139   2.0000      -0.512563       -13.9475 
 140   2.0000      -0.509539       -13.8653 
 141   2.0000      -0.508292       -13.8313 
 142   2.0000      -0.502104       -13.6629 
 143   2.0000      -0.500219       -13.6116 
 144   2.0000      -0.495673       -13.4879 
 145   2.0000      -0.494090       -13.4449 
 146   2.0000      -0.493451       -13.4275 
 147   2.0000      -0.483120       -13.1464 
 148   2.0000      -0.480948       -13.0873 
 149   2.0000      -0.463987       -12.6257 
 150   2.0000      -0.462937       -12.5972 
 151   2.0000      -0.456590       -12.4244 
 152   2.0000      -0.449823       -12.2403 
 153   2.0000      -0.442014       -12.0278 
 154   2.0000      -0.438451       -11.9309 
 155   2.0000      -0.436929       -11.8894 
 156   2.0000      -0.426185       -11.5971 
 157   2.0000      -0.419261       -11.4087 
 158   2.0000      -0.402293       -10.9470 
 159   2.0000      -0.387998       -10.5580 
 160   2.0000      -0.383779       -10.4431 
 161   2.0000      -0.372235       -10.1290 
 162   2.0000      -0.359467        -9.7816 
 163   2.0000      -0.357203        -9.7200 
 164   2.0000      -0.348931        -9.4949 
 165   2.0000      -0.339208        -9.2303 
 166   2.0000      -0.337424        -9.1818 
 167   2.0000      -0.330865        -9.0033 
 168   2.0000      -0.317909        -8.6507 
 169   2.0000      -0.299306        -8.1445 
 170   2.0000      -0.298402        -8.1199 
 171   2.0000      -0.284915        -7.7529 
 172   2.0000      -0.281664        -7.6645 
 173   2.0000      -0.262007        -7.1296 
 174   2.0000      -0.236118        -6.4251 
 175   2.0000      -0.184872        -5.0306 
 176   2.0000      -0.174677        -4.7532 
 177   2.0000      -0.062262        -1.6942 
 178   2.0000      -0.051684        -1.4064 
 179   0.0000       0.033964         0.9242 
 180   0.0000       0.062263         1.6943 
 181   0.0000       0.090760         2.4697 
 182   0.0000       0.096918         2.6373 
 183   0.0000       0.107172         2.9163 
 184   0.0000       0.137101         3.7307 
 185   0.0000       0.140568         3.8250 
 186   0.0000       0.145747         3.9660 
 187   0.0000       0.162236         4.4147 
 188   0.0000       0.164292         4.4706 
 189   0.0000       0.165922         4.5150 
 190   0.0000       0.170723         4.6456 
 191   0.0000       0.179900         4.8953 
 192   0.0000       0.183355         4.9893 
 193   0.0000       0.184952         5.0328 
 194   0.0000       0.203277         5.5314 
 195   0.0000       0.208660         5.6779 
 196   0.0000       0.210421         5.7259 
 197   0.0000       0.214847         5.8463 
 198   0.0000       0.216408         5.8888 
 199   0.0000       0.225623         6.1395 
 200   0.0000       0.228782         6.2255 
 201   0.0000       0.233517         6.3543 
 202   0.0000       0.238635         6.4936 
 203   0.0000       0.243443         6.6244 
 204   0.0000       0.245946         6.6925 
 205   0.0000       0.253775         6.9056 
 206   0.0000       0.255591         6.9550 
 207   0.0000       0.257987         7.0202 
 208   0.0000       0.260373         7.0851 
 209   0.0000       0.262459         7.1419 
 210   0.0000       0.264336         7.1929 
 211   0.0000       0.266100         7.2410 
 212   0.0000       0.267446         7.2776 
 213   0.0000       0.272426         7.4131 
 214   0.0000       0.276309         7.5187 
 215   0.0000       0.277053         7.5390 
 216   0.0000       0.280127         7.6226 
 217   0.0000       0.284939         7.7536 
 218   0.0000       0.286929         7.8077 
 219   0.0000       0.288037         7.8379 
 220   0.0000       0.292299         7.9539 
 221   0.0000       0.294485         8.0133 
 222   0.0000       0.296529         8.0690 
 223   0.0000       0.297374         8.0919 
 224   0.0000       0.297837         8.1046 
 225   0.0000       0.303022         8.2457 
 226   0.0000       0.304393         8.2830 
 227   0.0000       0.305061         8.3011 
 228   0.0000       0.310713         8.4549 
 229   0.0000       0.314034         8.5453 
 230   0.0000       0.320121         8.7109 
 231   0.0000       0.323511         8.8032 
 232   0.0000       0.324805         8.8384 
 233   0.0000       0.331007         9.0072 
 234   0.0000       0.335419         9.1272 
 235   0.0000       0.349199         9.5022 
 236   0.0000       0.358633         9.7589 
 237   0.0000       0.369669        10.0592 
 238   0.0000       0.393326        10.7029 
 239   0.0000       0.396041        10.7768 
 240   0.0000       0.403877        10.9901 
 241   0.0000       0.408385        11.1127 
 242   0.0000       0.410141        11.1605 
 243   0.0000       0.417484        11.3603 
 244   0.0000       0.424212        11.5434 
 245   0.0000       0.431073        11.7301 
 246   0.0000       0.435008        11.8372 
 247   0.0000       0.439711        11.9652 
 248   0.0000       0.440878        11.9969 
 249   0.0000       0.446145        12.1402 
 250   0.0000       0.448183        12.1957 
 251   0.0000       0.455550        12.3962 
 252   0.0000       0.459570        12.5055 
 253   0.0000       0.466048        12.6818 
 254   0.0000       0.470295        12.7974 
 255   0.0000       0.476984        12.9794 
 256   0.0000       0.477778        13.0010 
 257   0.0000       0.485514        13.2115 
 258   0.0000       0.487922        13.2770 
 259   0.0000       0.494939        13.4680 
 260   0.0000       0.500398        13.6165 
 261   0.0000       0.503607        13.7038 
 262   0.0000       0.506001        13.7690 
 263   0.0000       0.507183        13.8012 
 264   0.0000       0.513266        13.9667 
 265   0.0000       0.517241        14.0748 
 266   0.0000       0.522778        14.2255 
 267   0.0000       0.528122        14.3709 
 268   0.0000       0.528849        14.3907 
 269   0.0000       0.537025        14.6132 
 270   0.0000       0.543406        14.7868 
 271   0.0000       0.545252        14.8371 
 272   0.0000       0.547145        14.8886 
 273   0.0000       0.555374        15.1125 
 274   0.0000       0.560286        15.2462 
 275   0.0000       0.565870        15.3981 
 276   0.0000       0.566804        15.4235 
 277   0.0000       0.568706        15.4753 
 278   0.0000       0.578532        15.7427 
 279   0.0000       0.581437        15.8217 
 280   0.0000       0.588458        16.0128 
 281   0.0000       0.592145        16.1131 
 282   0.0000       0.593064        16.1381 
 283   0.0000       0.597958        16.2713 
 284   0.0000       0.600629        16.3439 
 285   0.0000       0.602065        16.3830 
 286   0.0000       0.607377        16.5276 
 287   0.0000       0.613785        16.7020 
 288   0.0000       0.615949        16.7608 
 289   0.0000       0.619147        16.8478 
 290   0.0000       0.621494        16.9117 
 291   0.0000       0.626052        17.0357 
 292   0.0000       0.630679        17.1616 
 293   0.0000       0.631433        17.1822 
 294   0.0000       0.645303        17.5596 
 295   0.0000       0.649019        17.6607 
 296   0.0000       0.655211        17.8292 
 297   0.0000       0.658627        17.9221 
 298   0.0000       0.665376        18.1058 
 299   0.0000       0.665692        18.1144 
 300   0.0000       0.671462        18.2714 
 301   0.0000       0.671983        18.2856 
 302   0.0000       0.674202        18.3460 
 303   0.0000       0.677093        18.4246 
 304   0.0000       0.682353        18.5678 
 305   0.0000       0.682676        18.5766 
 306   0.0000       0.684140        18.6164 
 307   0.0000       0.687685        18.7129 
 308   0.0000       0.690786        18.7973 
 309   0.0000       0.694236        18.8911 
 310   0.0000       0.701500        19.0888 
 311   0.0000       0.703118        19.1328 
 312   0.0000       0.708573        19.2812 
 313   0.0000       0.710365        19.3300 
 314   0.0000       0.712086        19.3768 
 315   0.0000       0.714559        19.4441 
 316   0.0000       0.715209        19.4618 
 317   0.0000       0.717805        19.5325 
 318   0.0000       0.722048        19.6479 
 319   0.0000       0.723402        19.6848 
 320   0.0000       0.726103        19.7583 
 321   0.0000       0.727622        19.7996 
 322   0.0000       0.729647        19.8547 
 323   0.0000       0.732608        19.9353 
 324   0.0000       0.738293        20.0900 
 325   0.0000       0.740903        20.1610 
 326   0.0000       0.741756        20.1842 
 327   0.0000       0.743208        20.2237 
 328   0.0000       0.751219        20.4417 
 329   0.0000       0.752591        20.4791 
 330   0.0000       0.755761        20.5653 
 331   0.0000       0.757658        20.6169 
 332   0.0000       0.759622        20.6704 
 333   0.0000       0.763583        20.7781 
 334   0.0000       0.764623        20.8064 
 335   0.0000       0.767283        20.8788 
 336   0.0000       0.774985        21.0884 
 337   0.0000       0.779905        21.2223 
 338   0.0000       0.783269        21.3138 
 339   0.0000       0.786390        21.3988 
 340   0.0000       0.789056        21.4713 
 341   0.0000       0.792041        21.5525 
 342   0.0000       0.794735        21.6258 
 343   0.0000       0.798953        21.7406 
 344   0.0000       0.800667        21.7872 
 345   0.0000       0.803168        21.8553 
 346   0.0000       0.809527        22.0284 
 347   0.0000       0.811375        22.0786 
 348   0.0000       0.812771        22.1166 
 349   0.0000       0.814668        22.1682 
 350   0.0000       0.817713        22.2511 
 351   0.0000       0.819245        22.2928 
 352   0.0000       0.822238        22.3742 
 353   0.0000       0.823489        22.4083 
 354   0.0000       0.828106        22.5339 
 355   0.0000       0.828823        22.5534 
 356   0.0000       0.833631        22.6842 
 357   0.0000       0.834158        22.6986 
 358   0.0000       0.838101        22.8059 
 359   0.0000       0.838523        22.8174 
 360   0.0000       0.842538        22.9266 
 361   0.0000       0.843467        22.9519 
 362   0.0000       0.845942        23.0192 
 363   0.0000       0.848588        23.0913 
 364   0.0000       0.850679        23.1482 
 365   0.0000       0.852881        23.2081 
 366   0.0000       0.856263        23.3001 
 367   0.0000       0.859175        23.3794 
 368   0.0000       0.861493        23.4424 
 369   0.0000       0.865314        23.5464 
 370   0.0000       0.866244        23.5717 
 371   0.0000       0.867862        23.6157 
 372   0.0000       0.873600        23.7719 
 373   0.0000       0.874334        23.7918 
 374   0.0000       0.877660        23.8823 
 375   0.0000       0.880969        23.9724 
 376   0.0000       0.882490        24.0138 
 377   0.0000       0.885913        24.1069 
 378   0.0000       0.889204        24.1965 
 379   0.0000       0.891473        24.2582 
 380   0.0000       0.892806        24.2945 
 381   0.0000       0.896587        24.3974 
 382   0.0000       0.899459        24.4755 
 383   0.0000       0.904324        24.6079 
 384   0.0000       0.905553        24.6414 
 385   0.0000       0.906583        24.6694 
 386   0.0000       0.907974        24.7072 
 387   0.0000       0.912750        24.8372 
 388   0.0000       0.915299        24.9065 
 389   0.0000       0.917402        24.9638 
 390   0.0000       0.920056        25.0360 
 391   0.0000       0.923079        25.1183 
 392   0.0000       0.924904        25.1679 
 393   0.0000       0.925636        25.1878 
 394   0.0000       0.930406        25.3176 
 395   0.0000       0.932090        25.3634 
 396   0.0000       0.933766        25.4091 
 397   0.0000       0.934490        25.4288 
 398   0.0000       0.939554        25.5666 
 399   0.0000       0.941020        25.6065 
 400   0.0000       0.945215        25.7206 
 401   0.0000       0.949952        25.8495 
 402   0.0000       0.953460        25.9450 
 403   0.0000       0.955501        26.0005 
 404   0.0000       0.957957        26.0673 
 405   0.0000       0.959800        26.1175 
 406   0.0000       0.960430        26.1346 
 407   0.0000       0.962708        26.1966 
 408   0.0000       0.965827        26.2815 
 409   0.0000       0.966830        26.3088 
 410   0.0000       0.976246        26.5650 
 411   0.0000       0.982246        26.7283 
 412   0.0000       0.985530        26.8176 
 413   0.0000       0.989169        26.9167 
 414   0.0000       0.995036        27.0763 
 415   0.0000       0.995123        27.0787 
 416   0.0000       1.002998        27.2930 
 417   0.0000       1.005869        27.3711 
 418   0.0000       1.009137        27.4600 
 419   0.0000       1.017084        27.6763 
 420   0.0000       1.019341        27.7377 
 421   0.0000       1.026413        27.9301 
 422   0.0000       1.034637        28.1539 
 423   0.0000       1.035680        28.1823 
 424   0.0000       1.041692        28.3459 
 425   0.0000       1.049438        28.5567 
 426   0.0000       1.054031        28.6817 
 427   0.0000       1.061169        28.8759 
 428   0.0000       1.069053        29.0904 
 429   0.0000       1.071904        29.1680 
 430   0.0000       1.081228        29.4217 
 431   0.0000       1.084496        29.5106 
 432   0.0000       1.087393        29.5895 
 433   0.0000       1.089636        29.6505 
 434   0.0000       1.091208        29.6933 
 435   0.0000       1.100815        29.9547 
 436   0.0000       1.106479        30.1088 
 437   0.0000       1.110051        30.2060 
 438   0.0000       1.114489        30.3268 
 439   0.0000       1.115849        30.3638 
 440   0.0000       1.118766        30.4432 
 441   0.0000       1.121839        30.5268 
 442   0.0000       1.126423        30.6515 
 443   0.0000       1.128661        30.7124 
 444   0.0000       1.134009        30.8580 
 445   0.0000       1.136260        30.9192 
 446   0.0000       1.139477        31.0068 
 447   0.0000       1.142336        31.0845 
 448   0.0000       1.145504        31.1707 
 449   0.0000       1.149574        31.2815 
 450   0.0000       1.154728        31.4217 
 451   0.0000       1.157153        31.4877 
 452   0.0000       1.158797        31.5325 
 453   0.0000       1.159337        31.5472 
 454   0.0000       1.163312        31.6553 
 455   0.0000       1.166773        31.7495 
 456   0.0000       1.170172        31.8420 
 457   0.0000       1.176545        32.0154 
 458   0.0000       1.179493        32.0956 
 459   0.0000       1.188437        32.3390 
 460   0.0000       1.189062        32.3560 
 461   0.0000       1.192594        32.4521 
 462   0.0000       1.202847        32.7311 
 463   0.0000       1.205998        32.8169 
 464   0.0000       1.207247        32.8508 
 465   0.0000       1.210087        32.9281 
 466   0.0000       1.210924        32.9509 
 467   0.0000       1.217121        33.1195 
 468   0.0000       1.224105        33.3096 
 469   0.0000       1.226632        33.3783 
 470   0.0000       1.227201        33.3938 
 471   0.0000       1.231741        33.5174 
 472   0.0000       1.237566        33.6759 
 473   0.0000       1.241734        33.7893 
 474   0.0000       1.243146        33.8277 
 475   0.0000       1.244913        33.8758 
 476   0.0000       1.247043        33.9338 
 477   0.0000       1.248253        33.9667 
 478   0.0000       1.255154        34.1545 
 479   0.0000       1.256001        34.1775 
 480   0.0000       1.259877        34.2830 
 481   0.0000       1.262204        34.3463 
 482   0.0000       1.264999        34.4224 
 483   0.0000       1.268813        34.5262 
 484   0.0000       1.274111        34.6703 
 485   0.0000       1.277131        34.7525 
 486   0.0000       1.279934        34.8288 
 487   0.0000       1.285097        34.9693 
 488   0.0000       1.288027        35.0490 
 489   0.0000       1.292395        35.1679 
 490   0.0000       1.296704        35.2851 
 491   0.0000       1.298556        35.3355 
 492   0.0000       1.303574        35.4720 
 493   0.0000       1.309392        35.6304 
 494   0.0000       1.310950        35.6728 
 495   0.0000       1.313410        35.7397 
 496   0.0000       1.315831        35.8056 
 497   0.0000       1.319671        35.9101 
 498   0.0000       1.331236        36.2248 
 499   0.0000       1.331994        36.2454 
[...]
 76 H s       :     0.898392  s :     0.898392
      pz      :     0.021814  p :     0.079341
      px      :     0.042958
      py      :     0.014569
 77 H s       :     0.894050  s :     0.894050
      pz      :     0.047242  p :     0.078467
      px      :     0.015004
      py      :     0.016221
 78 H s       :     0.894463  s :     0.894463
      pz      :     0.025506  p :     0.078383
      px      :     0.020671
      py      :     0.032206
 79 H s       :     0.907532  s :     0.907532
      pz      :     0.022461  p :     0.087128
      px      :     0.021872
      py      :     0.042795
 80 H s       :     0.877658  s :     0.877658
      pz      :     0.038320  p :     0.083399
      px      :     0.029585
      py      :     0.015493
 81 H s       :     0.888054  s :     0.888054
      pz      :     0.037625  p :     0.083445
      px      :     0.016078
      py      :     0.029743
 82 H s       :     0.914498  s :     0.914498
      pz      :     0.022399  p :     0.087068
      px      :     0.031019
      py      :     0.033650
 83 H s       :     0.872099  s :     0.872099
      pz      :     0.039208  p :     0.083762
      px      :     0.015241
      py      :     0.029314
 84 H s       :     0.888094  s :     0.888094
      pz      :     0.035816  p :     0.084221
      px      :     0.031778
      py      :     0.016627
 85 H s       :     0.895195  s :     0.895195
      pz      :     0.022510  p :     0.079642
      px      :     0.014128
      py      :     0.043004
 86 H s       :     0.890594  s :     0.890594
      pz      :     0.024711  p :     0.078895
      px      :     0.033004
      py      :     0.021180
 87 H s       :     0.890814  s :     0.890814
      pz      :     0.047865  p :     0.078634
      px      :     0.015644
      py      :     0.015124
 88 H s       :     0.917487  s :     0.917487
      pz      :     0.022479  p :     0.086871
      px      :     0.042077
      py      :     0.022315
 89 H s       :     0.874084  s :     0.874084
      pz      :     0.037852  p :     0.084020
      px      :     0.030501
      py      :     0.015667


                      *****************************
                      * MAYER POPULATION ANALYSIS *
                      *****************************

  NA   - Mulliken gross atomic population
  ZA   - Total nuclear charge
  QA   - Mulliken gross atomic charge
  VA   - Mayer's total valence
  BVA  - Mayer's bonded valence
  FA   - Mayer's free valence

  ATOM       NA         ZA         QA         VA         BVA        FA
  0 C      5.7771     6.0000     0.2229     3.8122     3.8122    -0.0000
  1 N      7.4232     7.0000    -0.4232     3.4396     3.4396     0.0000
  2 C      6.0674     6.0000    -0.0674     3.9181     3.9181    -0.0000
  3 N      7.3422     7.0000    -0.3422     3.4285     3.4285     0.0000
  4 C      6.0816     6.0000    -0.0816     3.9712     3.9712    -0.0000
  5 N      7.5645     7.0000    -0.5645     3.0730     3.0730    -0.0000
  6 C      6.0329     6.0000    -0.0329     3.9736     3.9736    -0.0000
  7 N      7.3372     7.0000    -0.3372     3.4443     3.4443     0.0000
  8 C      5.7779     6.0000     0.2221     3.8109     3.8109    -0.0000
  9 N      7.5650     7.0000    -0.5650     3.0900     3.0900    -0.0000
 10 C      5.8924     6.0000     0.1076     3.8719     3.8719     0.0000
 11 N      7.4385     7.0000    -0.4385     3.3794     3.3794    -0.0000
 12 C      6.0597     6.0000    -0.0597     3.9118     3.9118    -0.0000
 13 N      7.4479     7.0000    -0.4479     3.3356     3.3356    -0.0000
 14 C      5.7767     6.0000     0.2233     3.8071     3.8071     0.0000
 15 N      7.4410     7.0000    -0.4410     3.3677     3.3677     0.0000
 16 C      5.7497     6.0000     0.2503     3.8021     3.8021    -0.0000
 17 C      6.0340     6.0000    -0.0340     3.9720     3.9720     0.0000
 18 C      6.1787     6.0000    -0.1787     3.6978     3.6978     0.0000
 19 C      5.7738     6.0000     0.2262     3.8977     3.8977     0.0000
 20 C      5.8047     6.0000     0.1953     3.8219     3.8219     0.0000
 21 C      6.0669     6.0000    -0.0669     3.8955     3.8955    -0.0000
 22 C      6.0877     6.0000    -0.0877     3.9850     3.9850     0.0000
 23 C      6.0618     6.0000    -0.0618     3.9882     3.9882    -0.0000
 24 C      5.7844     6.0000     0.2156     3.8278     3.8278    -0.0000
 25 C      5.8857     6.0000     0.1143     3.8916     3.8916     0.0000
 26 C      6.0697     6.0000    -0.0697     3.9056     3.9056     0.0000
 27 C      5.7598     6.0000     0.2402     3.8987     3.8987    -0.0000
 28 C      6.0430     6.0000    -0.0430     3.9893     3.9893     0.0000
 29 C      6.1936     6.0000    -0.1936     3.7285     3.7285    -0.0000
 30 C      5.7748     6.0000     0.2252     3.7834     3.7834     0.0000
 31 C      5.8056     6.0000     0.1944     3.8322     3.8322    -0.0000
 32 C      6.0651     6.0000    -0.0651     3.9141     3.9141    -0.0000
 33 C      6.0969     6.0000    -0.0969     3.9857     3.9857    -0.0000
 34 C      6.0501     6.0000    -0.0501     3.9976     3.9976    -0.0000
 35 C      5.8146     6.0000     0.1854     3.8289     3.8289    -0.0000
 36 C      5.8809     6.0000     0.1191     3.9052     3.9052     0.0000
 37 C      6.0692     6.0000    -0.0692     3.9154     3.9154     0.0000
 38 C      5.7574     6.0000     0.2426     3.7964     3.7964    -0.0000
 39 C      6.0644     6.0000    -0.0644     3.9969     3.9969    -0.0000
 40 C      6.1995     6.0000    -0.1995     3.7498     3.7498    -0.0000
 41 C      5.7831     6.0000     0.2169     3.8759     3.8759    -0.0000
 42 C      5.7899     6.0000     0.2101     3.8308     3.8308    -0.0000
 43 C      6.0762     6.0000    -0.0762     3.9050     3.9050     0.0000
 44 C      6.0900     6.0000    -0.0900     3.9843     3.9843     0.0000
 45 C      6.0426     6.0000    -0.0426     3.9946     3.9946    -0.0000
 46 C      5.8091     6.0000     0.1909     3.8217     3.8217    -0.0000
 47 C      5.8838     6.0000     0.1162     3.8956     3.8956     0.0000
 48 C      6.0808     6.0000    -0.0808     3.8988     3.8988    -0.0000
 49 C      5.7870     6.0000     0.2130     3.8701     3.8701    -0.0000
 50 C      6.0625     6.0000    -0.0625     3.9899     3.9899    -0.0000
 51 C      6.1897     6.0000    -0.1897     3.7393     3.7393    -0.0000
 52 H      0.9268     1.0000     0.0732     0.9833     0.9833    -0.0000
 53 H      1.0098     1.0000    -0.0098     1.0013     1.0013     0.0000
 54 H      0.9416     1.0000     0.0584     1.0066     1.0066    -0.0000
 55 H      0.9286     1.0000     0.0714     0.9840     0.9840     0.0000
 56 H      0.9242     1.0000     0.0758     0.9727     0.9727    -0.0000
 57 H      0.9305     1.0000     0.0695     0.9841     0.9841     0.0000
 58 H      0.9315     1.0000     0.0685     0.9869     0.9869     0.0000
 59 H      1.0249     1.0000    -0.0249     0.9969     0.9969     0.0000
 60 H      0.9408     1.0000     0.0592     1.0053     1.0053    -0.0000
 61 H      0.8243     1.0000     0.1757     1.0434     1.0434     0.0000
 62 H      0.8305     1.0000     0.1695     1.0433     1.0433    -0.0000
 63 H      0.9453     1.0000     0.0547     0.9860     0.9860     0.0000
 64 H      1.0306     1.0000    -0.0306     0.9932     0.9932    -0.0000
 65 H      0.9570     1.0000     0.0430     1.0083     1.0083    -0.0000
 66 H      0.9436     1.0000     0.0564     0.9847     0.9847    -0.0000
 67 H      0.9396     1.0000     0.0604     0.9717     0.9717    -0.0000
 68 H      0.9430     1.0000     0.0570     0.9865     0.9865    -0.0000
 69 H      0.9405     1.0000     0.0595     0.9831     0.9831     0.0000
 70 H      1.0176     1.0000    -0.0176     0.9968     0.9968    -0.0000
 71 H      0.9521     1.0000     0.0479     1.0073     1.0073     0.0000
 72 H      0.9572     1.0000     0.0428     0.9858     0.9858    -0.0000
 73 H      1.0182     1.0000    -0.0182     0.9968     0.9968    -0.0000
 74 H      0.9657     1.0000     0.0343     1.0094     1.0094    -0.0000
 75 H      0.9584     1.0000     0.0416     0.9865     0.9865    -0.0000
 76 H      0.9494     1.0000     0.0506     0.9706     0.9706     0.0000
 77 H      0.9506     1.0000     0.0494     0.9845     0.9845    -0.0000
 78 H      0.9514     1.0000     0.0486     0.9839     0.9839    -0.0000
 79 H      1.0121     1.0000    -0.0121     1.0012     1.0012    -0.0000
 80 H      0.9658     1.0000     0.0342     1.0065     1.0065    -0.0000
 81 H      0.9482     1.0000     0.0518     0.9853     0.9853    -0.0000
 82 H      1.0233     1.0000    -0.0233     0.9949     0.9949     0.0000
 83 H      0.9568     1.0000     0.0432     1.0104     1.0104     0.0000
 84 H      0.9491     1.0000     0.0509     0.9861     0.9861     0.0000
 85 H      0.9439     1.0000     0.0561     0.9714     0.9714     0.0000
 86 H      0.9434     1.0000     0.0566     0.9841     0.9841    -0.0000
 87 H      0.9446     1.0000     0.0554     0.9853     0.9853    -0.0000
 88 H      1.0286     1.0000    -0.0286     0.9920     0.9920     0.0000
 89 H      0.9585     1.0000     0.0415     1.0061     1.0061     0.0000

  Mayer bond orders larger than 0.100000
B(  0-C ,  1-N ) :   1.1697 B(  0-C , 17-C ) :   1.5623 B(  0-C , 52-H ) :   0.9678 
B(  1-N ,  8-C ) :   1.1662 B(  1-N , 10-C ) :   0.9394 B(  2-C , 12-C ) :   1.5634 
B(  2-C , 16-C ) :   1.2905 B(  2-C , 53-H ) :   0.9788 B(  3-N , 14-C ) :   1.1830 
B(  3-N , 16-C ) :   1.2011 B(  3-N , 61-H ) :   0.8965 B(  4-C ,  6-C ) :   1.3263 
B(  4-C , 17-C ) :   1.3257 B(  4-C , 18-C ) :   1.1204 B(  5-N , 19-C ) :   1.3802 
B(  5-N , 27-C ) :   1.4368 B(  6-C ,  8-C ) :   1.5621 B(  6-C , 54-H ) :   0.9710 
B(  7-N , 30-C ) :   1.1866 B(  7-N , 38-C ) :   1.2115 B(  7-N , 62-H ) :   0.9003 
B(  8-C , 55-H ) :   0.9689 B(  9-N , 41-C ) :   1.4255 B(  9-N , 49-C ) :   1.4015 
B( 10-C , 56-H ) :   0.9764 B( 10-C , 57-H ) :   0.9814 B( 10-C , 58-H ) :   0.9821 
B( 11-N , 20-C ) :   1.1082 B( 11-N , 24-C ) :   1.1338 B( 11-N , 25-C ) :   0.9597 
B( 12-C , 14-C ) :   1.2916 B( 12-C , 59-H ) :   0.9777 B( 13-N , 31-C ) :   1.0950 
B( 13-N , 35-C ) :   1.0851 B( 13-N , 36-C ) :   0.9753 B( 14-C , 18-C ) :   1.2434 
B( 15-N , 42-C ) :   1.1240 B( 15-N , 46-C ) :   1.0993 B( 15-N , 47-C ) :   0.9644 
B( 16-C , 51-C ) :   1.2309 B( 17-C , 60-H ) :   0.9713 B( 18-C , 19-C ) :   1.2804 
B( 19-C , 21-C ) :   1.1810 B( 20-C , 28-C ) :   1.6245 B( 20-C , 63-H ) :   0.9706 
B( 21-C , 26-C ) :   1.6664 B( 21-C , 64-H ) :   0.9731 B( 22-C , 23-C ) :   1.2662 
B( 22-C , 28-C ) :   1.2805 B( 22-C , 29-C ) :   1.2462 B( 23-C , 24-C ) :   1.6270 
B( 23-C , 65-H ) :   0.9718 B( 24-C , 66-H ) :   0.9690 B( 25-C , 67-H ) :   0.9763 
B( 25-C , 68-H ) :   0.9832 B( 25-C , 69-H ) :   0.9819 B( 26-C , 27-C ) :   1.1857 
B( 26-C , 70-H ) :   0.9748 B( 27-C , 29-C ) :   1.2348 B( 28-C , 71-H ) :   0.9710 
B( 29-C , 30-C ) :   1.1894 B( 30-C , 32-C ) :   1.3369 B( 31-C , 39-C ) :   1.6674 
B( 31-C , 72-H ) :   0.9705 B( 32-C , 37-C ) :   1.5221 B( 32-C , 73-H ) :   0.9773 
B( 33-C , 34-C ) :   1.2462 B( 33-C , 39-C ) :   1.2383 B( 33-C , 40-C ) :   1.3214 
B( 34-C , 35-C ) :   1.6653 B( 34-C , 74-H ) :   0.9708 B( 35-C , 75-H ) :   0.9706 
B( 36-C , 76-H ) :   0.9758 B( 36-C , 77-H ) :   0.9824 B( 36-C , 78-H ) :   0.9836 
B( 37-C , 38-C ) :   1.3338 B( 37-C , 79-H ) :   0.9788 B( 38-C , 40-C ) :   1.1890 
B( 39-C , 80-H ) :   0.9720 B( 40-C , 41-C ) :   1.1838 B( 41-C , 43-C ) :   1.2439 
B( 42-C , 50-C ) :   1.6378 B( 42-C , 81-H ) :   0.9696 B( 43-C , 48-C ) :   1.6072 
B( 43-C , 82-H ) :   0.9750 B( 44-C , 45-C ) :   1.2784 B( 44-C , 50-C ) :   1.2564 
B( 44-C , 51-C ) :   1.2502 B( 45-C , 46-C ) :   1.6315 B( 45-C , 83-H ) :   0.9705 
B( 46-C , 84-H ) :   0.9706 B( 47-C , 85-H ) :   0.9761 B( 47-C , 86-H ) :   0.9826 
B( 47-C , 87-H ) :   0.9828 B( 48-C , 49-C ) :   1.2397 B( 48-C , 88-H ) :   0.9729 
B( 49-C , 51-C ) :   1.1980 B( 50-C , 89-H ) :   0.9719 

-------
TIMINGS
-------

Total SCF time: 0 days 0 hours 49 min 9 sec 

Total time                  ....    2949.425 sec
Sum of individual times     ....    2946.296 sec  ( 99.9%)

Fock matrix formation       ....    2927.486 sec  ( 99.3%)
Diagonalization             ....       4.643 sec  (  0.2%)
Density matrix formation    ....       0.537 sec  (  0.0%)
Population analysis         ....       0.308 sec  (  0.0%)
Initial guess               ....       2.360 sec  (  0.1%)
Orbital Transformation      ....       0.000 sec  (  0.0%)
Orbital Orthonormalization  ....       0.000 sec  (  0.0%)
DIIS solution               ....       2.419 sec  (  0.1%)
SOSCF solution              ....       7.220 sec  (  0.2%)

Maximum memory used throughout the entire SCF-calculation: 304.2 MB


           ************************************************************
           *        Program running with 8 parallel MPI-processes     *
           *              working on a common directory               *
           ************************************************************

------------------------------------------------------------------------------
                                ORCA  MP2 
------------------------------------------------------------------------------

Freezing NCore=104 chemical core electrons

----------
MP2 ENERGY (disk based algorithm)
----------

Dimension of the basis                    ...  918
Memory devoted to MP2                     ... 7000 MB   
Data format for buffers                   ... DOUBLE
Compression type for matrix containers    ... UNCOMPRESSED

-------------------------------
PARTIAL EXCHANGE TRANSFORMATION
-------------------------------

Transformation type                        ... one-operator
Generation of integrals (i,mue|j,nue)      ... ON
Generation of integrals (mue,kappa|nue,tau)... OFF
Generation of integrals (i,mue|a,nue)      ... OFF
Dimension of the basis                     ...  918
Number of internal MOs                     ...  127 (  52- 178)
Pair cutoff                                ... 2.500e-12 Eh
Number of AO pairs in the trafo            ... 421821
Total Number of distinct AO pairs          ... 421821
Memory devoted for trafo                   ... 7000.0 MB 
Max. Number of MO pairs treated together   ... 1088      
Number Format for Storage                  ... Double (8 Byte)
Integral package used                      ... LIBINT

Starting integral evaluation:
    ... done with AO integral generation
Closing buffer AOK     (37.93 GB; CompressionRatio= 1.34)
Collecting buffer AOK 
Number of MO pairs included in the trafo   ... 8128
------------------------
SORTING OF (i,mue|j,nue)
------------------------

IBATCH = 1 of  1
Closing buffer KAO     (51.03 GB; CompressionRatio= 1.00)
Collecting buffer KAO 
N(AO-Batches) Done                         ... 174000405 
N(AO-Batches) Skipped                      ... 166627210 
N(IJ)-pairs Skipped                        ...         0 
TOTAL TIME for half transformation         ...  1258.473 sec
AO-integral generation                     ...   262.381 sec
Half transformation                        ...   499.662 sec
K-integral sorting                         ...   232.080 sec

Finished integral transformation - now doing MP2 part

OPERATOR COMBINATION   0   0: ij=( 52..178, 52..178)
Process 2:   Internal MO  84
Process 5:   Internal MO 132
Process 0:   Internal MO  54
Process 1:   Internal MO  69
Process 0:   Internal MO  57
Process 1:   Internal MO  72
Process 3:   Internal MO 102
Process 1:   Internal MO  75
Process 5:   Internal MO 135
Process 3:   Internal MO 105
Process 0:   Internal MO  60
Process 3:   Internal MO 108
Process 5:   Internal MO 138
Process 3:   Internal MO 111
Process 5:   Internal MO 141
Process 3:   Internal MO 114
Process 0:   Internal MO  63
Process 4:   Internal MO 117
Process 2:   Internal MO  87
Process 7:   Internal MO 165
Process 1:   Internal MO  78
Process 0:   Internal MO  66
Process 6:   Internal MO 150
Process 2:   Internal MO  90
Process 1:   Internal MO  81
Process 4:   Internal MO 120
Process 2:   Internal MO  93
Process 5:   Internal MO 144
Process 6:   Internal MO 153
Process 2:   Internal MO  96
Process 7:   Internal MO 168
Process 4:   Internal MO 123
Process 2:   Internal MO  99
Process 5:   Internal MO 147
Process 4:   Internal MO 126
Process 6:   Internal MO 156
Process 7:   Internal MO 171
Process 4:   Internal MO 129
Process 6:   Internal MO 159
Process 7:   Internal MO 174
Process 6:   Internal MO 162
Process 7:   Internal MO 177
-----------------------------------------------
 MP2 CORRELATION ENERGY   :     -7.278327643 Eh
-----------------------------------------------


-------
TIMINGS
-------
Total time                : 1923.818 sec
Integral trafo            : 1264.906 sec ( 65.7%)
K(i,j)                    :    8.730 sec (  0.5%)
T(i,j)                    :    0.105 sec (  0.0%)

---------------------------------------
MP2 TOTAL ENERGY:    -2130.892754053 Eh
---------------------------------------

Maximum memory used throughout the entire MP2-calculation: 6735.7 MB

-------------------------   --------------------
FINAL SINGLE POINT ENERGY     -2130.892754052582
-------------------------   --------------------


                            ***************************************
                            *     ORCA property calculations      *
                            ***************************************


  WARNING: The energy has been calculated at the MP2 level but the densities
           used in the property calculations are still SCF densities
           MP2 response densities have not been calculated 
           use %mp2 Density relaxed end
           or  %mp2 Density unrelaxed end

                                    ---------------------
                                    Active property flags
                                    ---------------------
   (+) Dipole Moment


------------------------------------------------------------------------------
                       ORCA ELECTRIC PROPERTIES CALCULATION
------------------------------------------------------------------------------

Dipole Moment Calculation                       ... on
Quadrupole Moment Calculation                   ... off
Polarizability Calculation                      ... off
GBWName                                         ... /scratch/chu_02/allen/tmpyp4_amber_gaff2/conf1/conf1/Conf285.orca.gbw
Electron density                                ... /scratch/chu_02/allen/tmpyp4_amber_gaff2/conf1/conf1/Conf285.orca.scfp
The origin for moment calculation is the CENTER OF MASS  = (-0.000239, -0.004218 -0.001328)

-------------
DIPOLE MOMENT
-------------
                                X             Y             Z
Electronic contribution:     -3.17332       3.12008      -0.05908
Nuclear contribution   :      0.04389       0.21733       0.07854
                        -----------------------------------------
Total Dipole Moment    :     -3.12943       3.33741       0.01947
                        -----------------------------------------
Magnitude (a.u.)       :      4.57516
Magnitude (Debye)      :     11.62912



--------------------
Rotational spectrum 
--------------------
 
Rotational constants in cm-1:     0.001499     0.001472     0.000763 
Rotational constants in MHz :    44.926093    44.129189    22.864288 

 Dipole components along the rotational axes: 
x,y,z [a.u.] :    -4.142078    -1.942881     0.021427 
x,y,z [Debye]:   -10.528327    -4.938410     0.054463 

 

Timings for individual modules:

Sum of individual times         ...     4883.075 sec (=  81.385 min)
GTO integral calculation        ...        5.584 sec (=   0.093 min)   0.1 %
SCF iterations                  ...     2952.257 sec (=  49.204 min)  60.5 %
MP2 module                      ...     1925.234 sec (=  32.087 min)  39.4 %
                             ****ORCA TERMINATED NORMALLY****
TOTAL RUN TIME: 0 days 1 hours 21 minutes 30 seconds 304 msec
# of primitive gaussian functions

