
                                 *****************
                                 * O   R   C   A *
                                 *****************

                                            #,                                       
                                            ###                                      
                                            ####                                     
                                            #####                                    
                                            ######                                   
                                           ########,                                 
                                     ,,################,,,,,                         
                               ,,#################################,,                 
                          ,,##########################################,,             
                       ,#########################################, ''#####,          
                    ,#############################################,,   '####,        
                  ,##################################################,,,,####,       
                ,###########''''           ''''###############################       
              ,#####''   ,,,,##########,,,,          '''####'''          '####       
            ,##' ,,,,###########################,,,                        '##       
           ' ,,###''''                  '''############,,,                           
         ,,##''                                '''############,,,,        ,,,,,,###''
      ,#''                                            '''#######################'''  
     '                                                          ''''####''''         
             ,#######,   #######,   ,#######,      ##                                
            ,#'     '#,  ##    ##  ,#'     '#,    #''#        ######   ,####,        
            ##       ##  ##   ,#'  ##            #'  '#       #        #'  '#        
            ##       ##  #######   ##           ,######,      #####,   #    #        
            '#,     ,#'  ##    ##  '#,     ,#' ,#      #,         ##   #,  ,#        
             '#######'   ##     ##  '#######'  #'      '#     #####' # '####'        



                  #######################################################
                  #                        -***-                        #
                  #          Department of theory and spectroscopy      #
                  #    Directorship and core code : Frank Neese         #
                  #        Max Planck Institute fuer Kohlenforschung    #
                  #                Kaiser Wilhelm Platz 1               #
                  #                 D-45470 Muelheim/Ruhr               #
                  #                      Germany                        #
                  #                                                     #
                  #                  All rights reserved                #
                  #                        -***-                        #
                  #######################################################


                         Program Version 5.0.4 -  RELEASE  -


 With contributions from (in alphabetic order):
   Daniel Aravena         : Magnetic Suceptibility
   Michael Atanasov       : Ab Initio Ligand Field Theory (pilot matlab implementation)
   Alexander A. Auer      : GIAO ZORA, VPT2 properties, NMR spectrum
   Ute Becker             : Parallelization
   Giovanni Bistoni       : ED, misc. LED, open-shell LED, HFLD
   Martin Brehm           : Molecular dynamics
   Dmytro Bykov           : SCF Hessian
   Vijay G. Chilkuri      : MRCI spin determinant printing, contributions to CSF-ICE
   Dipayan Datta          : RHF DLPNO-CCSD density
   Achintya Kumar Dutta   : EOM-CC, STEOM-CC
   Dmitry Ganyushin       : Spin-Orbit,Spin-Spin,Magnetic field MRCI
   Miquel Garcia          : C-PCM and meta-GGA Hessian, CC/C-PCM, Gaussian charge scheme
   Yang Guo               : DLPNO-NEVPT2, F12-NEVPT2, CIM, IAO-localization
   Andreas Hansen         : Spin unrestricted coupled pair/coupled cluster methods
   Benjamin Helmich-Paris : MC-RPA, TRAH-SCF, COSX integrals
   Lee Huntington         : MR-EOM, pCC
   Robert Izsak           : Overlap fitted RIJCOSX, COSX-SCS-MP3, EOM
   Marcus Kettner         : VPT2
   Christian Kollmar      : KDIIS, OOCD, Brueckner-CCSD(T), CCSD density, CASPT2, CASPT2-K
   Simone Kossmann        : Meta GGA functionals, TD-DFT gradient, OOMP2, MP2 Hessian
   Martin Krupicka        : Initial AUTO-CI
   Lucas Lang             : DCDCAS
   Marvin Lechner         : AUTO-CI (C++ implementation), FIC-MRCC
   Dagmar Lenk            : GEPOL surface, SMD
   Dimitrios Liakos       : Extrapolation schemes; Compound Job, initial MDCI parallelization
   Dimitrios Manganas     : Further ROCIS development; embedding schemes
   Dimitrios Pantazis     : SARC Basis sets
   Anastasios Papadopoulos: AUTO-CI, single reference methods and gradients
   Taras Petrenko         : DFT Hessian,TD-DFT gradient, ASA, ECA, R-Raman, ABS, FL, XAS/XES, NRVS
   Peter Pinski           : DLPNO-MP2, DLPNO-MP2 Gradient
   Christoph Reimann      : Effective Core Potentials
   Marius Retegan         : Local ZFS, SOC
   Christoph Riplinger    : Optimizer, TS searches, QM/MM, DLPNO-CCSD(T), (RO)-DLPNO pert. Triples
   Tobias Risthaus        : Range-separated hybrids, TD-DFT gradient, RPA, STAB
   Michael Roemelt        : Original ROCIS implementation
   Masaaki Saitow         : Open-shell DLPNO-CCSD energy and density
   Barbara Sandhoefer     : DKH picture change effects
   Avijit Sen             : IP-ROCIS
   Kantharuban Sivalingam : CASSCF convergence, NEVPT2, FIC-MRCI
   Bernardo de Souza      : ESD, SOC TD-DFT
   Georgi Stoychev        : AutoAux, RI-MP2 NMR, DLPNO-MP2 response
   Willem Van den Heuvel  : Paramagnetic NMR
   Boris Wezisla          : Elementary symmetry handling
   Frank Wennmohs         : Technical directorship


 We gratefully acknowledge several colleagues who have allowed us to
 interface, adapt or use parts of their codes:
   Stefan Grimme, W. Hujo, H. Kruse, P. Pracht,  : VdW corrections, initial TS optimization,
                  C. Bannwarth, S. Ehlert          DFT functionals, gCP, sTDA/sTD-DF
   Ed Valeev, F. Pavosevic, A. Kumar             : LibInt (2-el integral package), F12 methods
   Garnet Chan, S. Sharma, J. Yang, R. Olivares  : DMRG
   Ulf Ekstrom                                   : XCFun DFT Library
   Mihaly Kallay                                 : mrcc  (arbitrary order and MRCC methods)
   Jiri Pittner, Ondrej Demel                    : Mk-CCSD
   Frank Weinhold                                : gennbo (NPA and NBO analysis)
   Christopher J. Cramer and Donald G. Truhlar   : smd solvation model
   Lars Goerigk                                  : TD-DFT with DH, B97 family of functionals
   V. Asgeirsson, H. Jonsson                     : NEB implementation
   FAccTs GmbH                                   : IRC, NEB, NEB-TS, DLPNO-Multilevel, CI-OPT
                                                   MM, QMMM, 2- and 3-layer-ONIOM, Crystal-QMMM,
                                                   LR-CPCM, SF, NACMEs, symmetry and pop. for TD-DFT,
                                                   nearIR, NL-DFT gradient (VV10), updates on ESD,
                                                   ML-optimized integration grids
   S Lehtola, MJT Oliveira, MAL Marques          : LibXC Library
   Liviu Ungur et al                             : ANISO software


 Your calculation uses the libint2 library for the computation of 2-el integrals
 For citations please refer to: http://libint.valeyev.net

 Your ORCA version has been built with support for libXC version: 5.1.0
 For citations please refer to: https://tddft.org/programs/libxc/

 This ORCA versions uses:
   CBLAS   interface :  Fast vector & matrix operations
   LAPACKE interface :  Fast linear algebra routines
   SCALAPACK package :  Parallel linear algebra routines
   Shared memory     :  Shared parallel matrices
   BLAS/LAPACK       :  OpenBLAS 0.3.15  USE64BITINT DYNAMIC_ARCH NO_AFFINITY Sandybridge SINGLE_THREADED
        Core in use  :  Sandybridge
   Copyright (c) 2011-2014, The OpenBLAS Project


================================================================================

----- Orbital basis set information -----
Your calculation utilizes the basis: cc-pVDZ 
       H, B-Ne : Obtained from the ccRepo (grant-hill.group.shef.ac.uk/ccrepo) Feb. 2017
                 T. H. Dunning, Jr., J. Chem. Phys. 90, 1007 (1989)
            He : Obtained from the ccRepo (grant-hill.group.shef.ac.uk/ccrepo) Feb. 2017
                 D. E. Woon, T. H. Dunning, Jr., J. Chem. Phys. 100, 2975 (1994)
  Li-Be, Na-Mg : Obtained from the ccRepo (grant-hill.group.shef.ac.uk/ccrepo) Feb. 2017
                 B. P. Prascher, D. E. Woon, K. A. Peterson, T. H. Dunning, Jr., A. K. Wilson, Theor. Chem. Acc. 128, 69 (2011)
         Al-Ar : Obtained from the ccRepo (grant-hill.group.shef.ac.uk/ccrepo) Feb. 2017
                 D. E. Woon, T. H. Dunning, Jr., J. Chem. Phys. 98, 1358 (1993)
            Ca : Obtained from the Peterson Research Group Website (tyr0.chem.wsu.edu/~kipeters) Feb. 2017
                 J. Koput, K. A. Peterson, J. Phys. Chem. 106, 9595 (2002)
         Sc-Zn : Obtained from the ccRepo (grant-hill.group.shef.ac.uk/ccrepo) Feb. 2017
                 N. B. Balabanov, K. A. Peterson, J. Chem. Phys. 123, 064107 (2005)
                 N. B. Balabanov, K. A. Peterson, J. Chem. Phys. 125, 074110 (2006)
         Ga-Kr : Obtained from the ccRepo (grant-hill.group.shef.ac.uk/ccrepo) Feb. 2017
                 A. K. Wilson, D. E. Woon, K. A. Peterson, T. H. Dunning, Jr., J. Chem. Phys. 110, 7667 (1999)

================================================================================
                                        WARNINGS
                       Please study these warnings very carefully!
================================================================================


WARNING: No MP2 level density has been requested!
         To caclulate MP2 level properties use
         %mp2 Density relaxed end
         or
         %mp2 Density unrelaxed end

WARNING: Post HF methods need fully converged wavefunctions
  ===> : Setting SCFConvForced true
         You can overwrite this default with %scf ConvForced false 


INFO   : the flag for use of the SHARK integral package has been found!

================================================================================
                                       INPUT FILE
================================================================================
NAME = /scratch/allen/tmpyp4_amber_gaff2/2.Mdgx/conf11/conf11/Conf131.orca
|  1> ! PAL2
|  2> ! mp2 cc-pvdz TightSCF  NoKeepInts
|  3> 
|  4> %scf
|  5>   MaxCore 2000
|  6> end
|  7> %mp2
|  8>   MaxCore 2000
|  9> end
| 10> * xyz 0 1
| 11>    C       -4.59400         5.44700        -0.83400
| 12>    C        1.47400         4.04100         0.05700
| 13>    C       -2.80200         4.09300         0.04900
| 14>    C       -2.57800         5.10000         1.00100
| 15>    C       -3.36300         6.23600         1.00600
| 16>    C       -5.20000         7.61000         0.15200
| 17>    C        0.13200         4.30700         0.06100
| 18>    C       -0.56900         3.05600         0.04700
| 19>    C        1.64900         2.61800         0.02300
| 20>    C       -3.83900         4.29100        -0.87600
| 21>    N       -4.35200         6.39900         0.09600
| 22>    N        0.38800         2.06700         0.02500
| 23>    N       -2.01000         0.39500        -0.07500
| 24>    N       -0.38800        -2.07400        -0.02700
| 25>    N        2.01000        -0.40100         0.06500
| 26>    C       -1.96000         2.86100         0.02400
| 27>    C       -2.62300         1.61500        -0.01800
| 28>    C       -5.57300        -4.32900         1.06600
| 29>    C       -4.07300         1.47100         0.05600
| 30>    C       -4.10600        -2.75600        -0.02600
| 31>    C       -4.99500        -2.75700        -1.11100
| 32>    C       -6.13200        -3.54200        -1.07600
| 33>    C       -7.65100        -5.11300         0.04000
| 34>    C       -4.32400         0.14100         0.03700
| 35>    C       -3.02500        -0.52000        -0.04800
| 36>    C       -4.42200        -3.56600         1.07500
| 37>    N       -6.40700        -4.31300         0.00100
| 38>    C       -2.86700        -1.92200        -0.04000
| 39>    C       -1.65000        -2.62400        -0.02700
| 40>    C        3.56800        -6.14200        -1.04000
| 41>    C       -1.47600        -4.04900        -0.03400
| 42>    C        2.80300        -4.09900        -0.00800
| 43>    C        3.65700        -4.38400         1.06900
| 44>    C        4.42700        -5.53000         1.05900
| 45>    C        5.24500        -7.58800         0.01400
| 46>    C       -0.13400        -4.31500        -0.02200
| 47>    C        0.56800        -3.06400        -0.02700
| 48>    C        2.77500        -5.01200        -1.07400
| 49>    N        4.37600        -6.39100         0.01700
| 50>    C        1.95900        -2.86900        -0.00900
| 51>    C        2.62100        -1.62200         0.00900
| 52>    C        5.54300         4.33900        -1.13000
| 53>    C        4.07000        -1.47900        -0.09400
| 54>    C        4.10400         2.75100        -0.02100
| 55>    C        5.02700         2.72900         1.03600
| 56>    C        6.16600         3.50900         0.97800
| 57>    C        7.61900         5.15300        -0.11500
| 58>    C        4.32100        -0.14800        -0.09200
| 59>    C        3.02500         0.51400         0.01500
| 60>    C        4.38700         3.58200        -1.11500
| 61>    C        2.86600         1.91600         0.01300
| 62>    N        6.41300         4.29600        -0.09500
| 63>    H       -5.39500         5.64800        -1.53500
| 64>    H        2.27400         4.76600         0.08100
| 65>    H       -1.79900         5.00100         1.74700
| 66>    H       -3.23500         7.03400         1.72500
| 67>    H       -6.01800         7.43900         0.85600
| 68>    H       -4.59000         8.45100         0.48400
| 69>    H       -5.59700         7.80600        -0.84300
| 70>    H       -0.33200         5.28200         0.06900
| 71>    H       -4.05200         3.55700        -1.64400
| 72>    H        0.18200         1.07200         0.00500
| 73>    H       -0.18300        -1.08000        -0.02100
| 74>    H       -5.86400        -4.96200         1.89500
| 75>    H       -4.79400         2.27200         0.13900
| 76>    H       -4.80000        -2.16000        -1.99400
| 77>    H       -6.84100        -3.58200        -1.89300
| 78>    H       -8.42800        -4.53600         0.54600
| 79>    H       -7.95600        -5.33700        -0.98100
| 80>    H       -7.45600        -6.03700         0.58400
| 81>    H       -5.28700        -0.34400         0.10000
| 82>    H       -3.78000        -3.60100         1.94700
| 83>    H        3.58700        -6.86800        -1.84300
| 84>    H       -2.27600        -4.77400        -0.05000
| 85>    H        3.71400        -3.72400         1.92600
| 86>    H        5.09200        -5.79500         1.87100
| 87>    H        6.20500        -7.32900        -0.43900
| 88>    H        5.39300        -7.91700         1.04200
| 89>    H        4.75900        -8.37300        -0.56400
| 90>    H        0.32900        -5.29000        -0.00800
| 91>    H        2.14600        -4.84200        -1.94000
| 92>    H        5.80800         4.98600        -1.95600
| 93>    H        4.78800        -2.28100        -0.18500
| 94>    H        4.86000         2.11400         1.91200
| 95>    H        6.90100         3.53100         1.77200
| 96>    H        7.38300         6.10900         0.35600
| 97>    H        8.41400         4.65200         0.43500
| 98>    H        7.92100         5.31000        -1.15000
| 99>    H        5.28300         0.33600        -0.17900
|100>    H        3.72000         3.63200        -1.96700
|101> *
|102> 
|103>                          ****END OF INPUT****
================================================================================

                       ****************************
                       * Single Point Calculation *
                       ****************************

---------------------------------
CARTESIAN COORDINATES (ANGSTROEM)
---------------------------------
  C     -4.594000    5.447000   -0.834000
  C      1.474000    4.041000    0.057000
  C     -2.802000    4.093000    0.049000
  C     -2.578000    5.100000    1.001000
  C     -3.363000    6.236000    1.006000
  C     -5.200000    7.610000    0.152000
  C      0.132000    4.307000    0.061000
  C     -0.569000    3.056000    0.047000
  C      1.649000    2.618000    0.023000
  C     -3.839000    4.291000   -0.876000
  N     -4.352000    6.399000    0.096000
  N      0.388000    2.067000    0.025000
  N     -2.010000    0.395000   -0.075000
  N     -0.388000   -2.074000   -0.027000
  N      2.010000   -0.401000    0.065000
  C     -1.960000    2.861000    0.024000
  C     -2.623000    1.615000   -0.018000
  C     -5.573000   -4.329000    1.066000
  C     -4.073000    1.471000    0.056000
  C     -4.106000   -2.756000   -0.026000
  C     -4.995000   -2.757000   -1.111000
  C     -6.132000   -3.542000   -1.076000
  C     -7.651000   -5.113000    0.040000
  C     -4.324000    0.141000    0.037000
  C     -3.025000   -0.520000   -0.048000
  C     -4.422000   -3.566000    1.075000
  N     -6.407000   -4.313000    0.001000
  C     -2.867000   -1.922000   -0.040000
  C     -1.650000   -2.624000   -0.027000
  C      3.568000   -6.142000   -1.040000
  C     -1.476000   -4.049000   -0.034000
  C      2.803000   -4.099000   -0.008000
  C      3.657000   -4.384000    1.069000
  C      4.427000   -5.530000    1.059000
  C      5.245000   -7.588000    0.014000
  C     -0.134000   -4.315000   -0.022000
  C      0.568000   -3.064000   -0.027000
  C      2.775000   -5.012000   -1.074000
  N      4.376000   -6.391000    0.017000
  C      1.959000   -2.869000   -0.009000
  C      2.621000   -1.622000    0.009000
  C      5.543000    4.339000   -1.130000
  C      4.070000   -1.479000   -0.094000
  C      4.104000    2.751000   -0.021000
  C      5.027000    2.729000    1.036000
  C      6.166000    3.509000    0.978000
  C      7.619000    5.153000   -0.115000
  C      4.321000   -0.148000   -0.092000
  C      3.025000    0.514000    0.015000
  C      4.387000    3.582000   -1.115000
  C      2.866000    1.916000    0.013000
  N      6.413000    4.296000   -0.095000
  H     -5.395000    5.648000   -1.535000
  H      2.274000    4.766000    0.081000
  H     -1.799000    5.001000    1.747000
  H     -3.235000    7.034000    1.725000
  H     -6.018000    7.439000    0.856000
  H     -4.590000    8.451000    0.484000
  H     -5.597000    7.806000   -0.843000
  H     -0.332000    5.282000    0.069000
  H     -4.052000    3.557000   -1.644000
  H      0.182000    1.072000    0.005000
  H     -0.183000   -1.080000   -0.021000
  H     -5.864000   -4.962000    1.895000
  H     -4.794000    2.272000    0.139000
  H     -4.800000   -2.160000   -1.994000
  H     -6.841000   -3.582000   -1.893000
  H     -8.428000   -4.536000    0.546000
  H     -7.956000   -5.337000   -0.981000
  H     -7.456000   -6.037000    0.584000
  H     -5.287000   -0.344000    0.100000
  H     -3.780000   -3.601000    1.947000
  H      3.587000   -6.868000   -1.843000
  H     -2.276000   -4.774000   -0.050000
  H      3.714000   -3.724000    1.926000
  H      5.092000   -5.795000    1.871000
  H      6.205000   -7.329000   -0.439000
  H      5.393000   -7.917000    1.042000
  H      4.759000   -8.373000   -0.564000
  H      0.329000   -5.290000   -0.008000
  H      2.146000   -4.842000   -1.940000
  H      5.808000    4.986000   -1.956000
  H      4.788000   -2.281000   -0.185000
  H      4.860000    2.114000    1.912000
  H      6.901000    3.531000    1.772000
  H      7.383000    6.109000    0.356000
  H      8.414000    4.652000    0.435000
  H      7.921000    5.310000   -1.150000
  H      5.283000    0.336000   -0.179000
  H      3.720000    3.632000   -1.967000

----------------------------
CARTESIAN COORDINATES (A.U.)
----------------------------
  NO LB      ZA    FRAG     MASS         X           Y           Z
   0 C     6.0000    0    12.011   -8.681402   10.293338   -1.576032
   1 C     6.0000    0    12.011    2.785456    7.636383    0.107714
   2 C     6.0000    0    12.011   -5.295013    7.734649    0.092597
   3 C     6.0000    0    12.011   -4.871714    9.637603    1.891616
   4 C     6.0000    0    12.011   -6.355149   11.784332    1.901064
   5 C     6.0000    0    12.011   -9.826576   14.380816    0.287238
   6 C     6.0000    0    12.011    0.249444    8.139050    0.115273
   7 C     6.0000    0    12.011   -1.075254    5.775003    0.088817
   8 C     6.0000    0    12.011    3.116158    4.947303    0.043464
   9 C     6.0000    0    12.011   -7.254659    8.108815   -1.655400
  10 N     7.0000    0    14.007   -8.224088   12.092358    0.181414
  11 N     7.0000    0    14.007    0.733214    3.906064    0.047243
  12 N     7.0000    0    14.007   -3.798350    0.746442   -0.141729
  13 N     7.0000    0    14.007   -0.733214   -3.919292   -0.051023
  14 N     7.0000    0    14.007    3.798350   -0.757780    0.122832
  15 C     6.0000    0    12.011   -3.703863    5.406506    0.045353
  16 C     6.0000    0    12.011   -4.956752    3.051908   -0.034015
  17 C     6.0000    0    12.011  -10.531444   -8.180624    2.014448
  18 C     6.0000    0    12.011   -7.696855    2.779787    0.105825
  19 C     6.0000    0    12.011   -7.759216   -5.208085   -0.049133
  20 C     6.0000    0    12.011   -9.439182   -5.209975   -2.099486
  21 C     6.0000    0    12.011  -11.587801   -6.693410   -2.033345
  22 C     6.0000    0    12.011  -14.458295   -9.662170    0.075589
  23 C     6.0000    0    12.011   -8.171176    0.266451    0.069920
  24 C     6.0000    0    12.011   -5.716422   -0.982658   -0.090707
  25 C     6.0000    0    12.011   -8.356369   -6.738763    2.031456
  26 N     7.0000    0    14.007  -12.107475   -8.150389    0.001890
  27 C     6.0000    0    12.011   -5.417845   -3.632054   -0.075589
  28 C     6.0000    0    12.011   -3.118048   -4.958641   -0.051023
  29 C     6.0000    0    12.011    6.742543  -11.606698   -1.965315
  30 C     6.0000    0    12.011   -2.789236   -7.651501   -0.064251
  31 C     6.0000    0    12.011    5.296902   -7.745987   -0.015118
  32 C     6.0000    0    12.011    6.910728   -8.284559    2.020117
  33 C     6.0000    0    12.011    8.365818  -10.450186    2.001220
  34 C     6.0000    0    12.011    9.911614  -14.339242    0.026456
  35 C     6.0000    0    12.011   -0.253223   -8.154168   -0.041574
  36 C     6.0000    0    12.011    1.073364   -5.790121   -0.051023
  37 C     6.0000    0    12.011    5.243990   -9.471307   -2.029566
  38 N     7.0000    0    14.007    8.269442  -12.077240    0.032125
  39 C     6.0000    0    12.011    3.701973   -5.421624   -0.017008
  40 C     6.0000    0    12.011    4.952972   -3.065136    0.017008
  41 C     6.0000    0    12.011   10.474752    8.199522   -2.135391
  42 C     6.0000    0    12.011    7.691185   -2.794905   -0.177634
  43 C     6.0000    0    12.011    7.755436    5.198637   -0.039684
  44 C     6.0000    0    12.011    9.499653    5.157063    1.957756
  45 C     6.0000    0    12.011   11.652051    6.631049    1.848152
  46 C     6.0000    0    12.011   14.397823    9.737759   -0.217319
  47 C     6.0000    0    12.011    8.165507   -0.279679   -0.173855
  48 C     6.0000    0    12.011    5.716422    0.971319    0.028346
  49 C     6.0000    0    12.011    8.290229    6.768999   -2.107045
  50 C     6.0000    0    12.011    5.415955    3.620715    0.024566
  51 N     7.0000    0    14.007   12.118814    8.118263   -0.179524
  52 H     1.0000    0     1.008  -10.195072   10.673173   -2.900730
  53 H     1.0000    0     1.008    4.297237    9.006435    0.153068
  54 H     1.0000    0     1.008   -3.399617    9.450520    3.301352
  55 H     1.0000    0     1.008   -6.113264   13.292334    3.259778
  56 H     1.0000    0     1.008  -11.372372   14.057673    1.617606
  57 H     1.0000    0     1.008   -8.673843   15.970076    0.914627
  58 H     1.0000    0     1.008  -10.576797   14.751202   -1.593039
  59 H     1.0000    0     1.008   -0.627389    9.981533    0.130391
  60 H     1.0000    0     1.008   -7.657170    6.721756   -3.106710
  61 H     1.0000    0     1.008    0.343930    2.025786    0.009449
  62 H     1.0000    0     1.008   -0.345820   -2.040904   -0.039684
  63 H     1.0000    0     1.008  -11.081354   -9.376821    3.581031
  64 H     1.0000    0     1.008   -9.059347    4.293458    0.262672
  65 H     1.0000    0     1.008   -9.070685   -4.081808   -3.768114
  66 H     1.0000    0     1.008  -12.927616   -6.768999   -3.577252
  67 H     1.0000    0     1.008  -15.926612   -8.571798    1.031790
  68 H     1.0000    0     1.008  -15.034661  -10.085468   -1.853821
  69 H     1.0000    0     1.008  -14.089798  -11.408277    1.103600
  70 H     1.0000    0     1.008   -9.990982   -0.650066    0.188973
  71 H     1.0000    0     1.008   -7.143165   -6.804904    3.679297
  72 H     1.0000    0     1.008    6.778448  -12.978639   -3.482765
  73 H     1.0000    0     1.008   -4.301017   -9.021553   -0.094486
  74 H     1.0000    0     1.008    7.018443   -7.037340    3.639613
  75 H     1.0000    0     1.008    9.622485  -10.950963    3.535678
  76 H     1.0000    0     1.008   11.725751  -13.849803   -0.829590
  77 H     1.0000    0     1.008   10.191293  -14.960962    1.969095
  78 H     1.0000    0     1.008    8.993207  -15.822677   -1.065806
  79 H     1.0000    0     1.008    0.621720   -9.996651   -0.015118
  80 H     1.0000    0     1.008    4.055352   -9.150054   -3.666069
  81 H     1.0000    0     1.008   10.975529    9.422175   -3.696304
  82 H     1.0000    0     1.008    9.048009   -4.310465   -0.349599
  83 H     1.0000    0     1.008    9.184069    3.994881    3.613156
  84 H     1.0000    0     1.008   13.041000    6.672623    3.348595
  85 H     1.0000    0     1.008   13.951848   11.544337    0.672743
  86 H     1.0000    0     1.008   15.900156    8.791006    0.822031
  87 H     1.0000    0     1.008   14.968521   10.034446   -2.173185
  88 H     1.0000    0     1.008    9.983423    0.634948   -0.338261
  89 H     1.0000    0     1.008    7.029781    6.863485   -3.717091

--------------------------------
INTERNAL COORDINATES (ANGSTROEM)
--------------------------------
 C      0   0   0     0.000000000000     0.00000000     0.00000000
 C      1   0   0     6.292165048693     0.00000000     0.00000000
 C      1   2   0     2.413352232891    26.71426917     0.00000000
 C      3   1   2     1.403755320560    87.94545621    74.28931927
 C      4   3   1     1.380849738386   120.12583419     0.10076817
 C      5   4   3     2.447807386213   152.51815230     1.71456482
 C      2   1   3     1.368114030335     8.50699701   315.03998605
 C      7   2   3     1.434084376876   108.05010202     0.84668783
 C      2   1   3     1.434123425651   109.63583250    36.92921156
 C      1   2   7     1.381348978354    44.78226690   271.67523779
 N      1   2   7     1.352689173462    83.53345129    59.43716685
 N      9   2   1     1.376127174356   106.58526707   350.36818752
 N     12   9   2     2.925062050624   168.53581413   171.12065651
 N     13  12   9     2.954513327098    91.55032014    11.12112580
 N     14  13  12     2.925371258490    88.43092389   359.84326247
 C      8   7   2     1.404790019896   127.24786865   181.11170171
 C     13  12   9     1.366535034311    81.72106996   188.00453233
 C     14  13  12     5.758810554272    80.56209567   166.76250791
 C     17  13  12     1.459010623676   111.08861209   183.82872609
 C     18  14  13     2.412235892279    27.27532823    36.33507194
 C     20  18  14     1.402692767501    87.95206320   148.94598259
 C     21  20  18     1.382106725257   120.14573887   359.70382047
 C     18  14  13     2.446510985056   144.15733107    82.80075377
 C     19  17  13     1.353610726908   106.29293361   359.75308708
 C     13  12   9     1.366813447402   172.21332906    33.46711076
 C     18  14  13     1.380960173213    15.08449437   309.23336894
 N     22  21  20     1.352773077792   120.73759875     0.27865223
 C     25  13  17     1.410897586645   125.60330303   182.37774668
 C     14  13  12     1.376642291955    80.24689249   177.85461986
 C     14  13  12     5.764089607215   164.51507311   312.20821879
 C     29  14  13     1.435600919476   106.58649366   178.76395472
 C     30  14  13     2.413316804732    27.10625047    82.12560436
 C     32  30  14     1.403734305344    87.90059683   149.76154742
 C     33  32  30     1.380694028378   120.14881443   359.74174632
 C     34  33  32     2.448777858443   152.49203239     2.45173620
 C     31  29  14     1.368160809262   108.16950133     0.70383075
 C     14  13  12     1.376239804685   169.26375223   353.09862627
 C     30  14  13     1.380907310430    14.68948582   353.70041132
 N     34  33  32     1.352658863128   120.85575621     0.19603406
 C     37  14  29     1.404717053360   126.01551127   180.90772073
 C     15  14  13     1.366491126938    81.61824056   183.09049352
 C      2   1   3     4.249062720177   150.25904349   157.53604201
 C     41  15  14     1.459677704153   111.05201287   175.08990246
 C     42   2   1     2.412953791518    41.78584867   210.62887839
 C     44  42   2     1.403446472082    87.95153797   233.97558675
 C     45  44  42     1.381696421071   120.11137308     0.19721020
 C     42   2   1     2.450019795838   135.97209175   120.94372749
 C     43  41  15     1.354461516618   106.26758155     0.30894352
 C     15  14  13     1.367461151185   171.87382904   332.35056460
 C     42   2   1     1.381886391857    32.59078432   259.48415758
 C      9   2   1     1.404988612053   126.98745415   171.37252505
 N     42   2   1     1.352765315936   113.57249190   148.68031668
 H      1   2   7     1.083237277793   147.80142690   191.00657640
 H      2   1   3     1.079907866440   124.57909796   208.45303950
 H      4   3   1     1.083124184939   121.08399848   179.54479030
 H      5   4   3     1.081734255721   122.82221233   179.38770999
 H      6   5   4     1.092694376301   104.42927984   100.06425650
 H      6   5   4     1.090690148484    84.65790453   209.44838154
 H      6   5   4     1.089059227040   133.89544836   322.30253816
 H      7   2  54     1.079807853278   126.66122480     1.30600390
 H     10   1   2     1.083489270828   118.75263169   218.98938718
 H     12   9   2     1.016297692608   125.29023241   180.00180175
 H     14  13  12     1.014936943854    44.97226959   359.42596618
 H     18  14  13     1.082871645210   128.03556573   234.20482432
 H     19  17  13     1.080893611786   126.41830519   178.11313280
 H     21  20  18     1.083569563987   121.05669627   180.67006309
 H     22  21  20     1.082483256222   122.73097286   180.59748951
 H     23  18  14     1.092105306278   103.92715769   234.93429879
 H     23  18  14     1.088871893291   134.19244188    12.25587044
 H     23  18  14     1.089833473518    84.85857450   125.45241208
 H     24  19  17     1.080075460327   127.28078426   178.44613241
 H     26  18  14     1.083408048706   118.76995697   244.94906660
 H     30  14  13     1.082703098730   127.99711412   279.66882698
 H     31  29  14     1.079759695488   125.22293469   180.92530585
 H     33  32  30     1.083188810873   121.01964473   180.74284758
 H     34  33  32     1.082494341787   122.70821597   180.59516895
 H     35  34  33     1.092652735319   105.73575241    97.19771933
 H     35  34  33     1.089462711615    84.05943581   206.43036958
 H     35  34  33     1.089268102902   133.08365142   318.50306270
 H     36  31  29     1.079439669458   126.61599965   178.98859863
 H     38  30  73     1.083742127999   118.77264435   359.90091293
 H     42   2   1     1.082178358682   119.31790784     5.31184714
 H     43  41  15     1.080281907652   126.36969097   182.06329380
 H     45  44  42     1.083277434455   121.10105945   179.58025624
 H     46  45  44     1.082194529648   122.72144639   179.46906377
 H     47  42   2     1.091546151109   106.65128841   315.16475048
 H     47  42   2     1.088818625851   132.46019523    94.52397119
 H     47  42   2     1.089531091801    83.63838232   206.04504406
 H     48  43  41     1.080402239909   127.23657387   181.62955349
 H     50  42   2     1.083186502870   118.77001737    94.71359229

---------------------------
INTERNAL COORDINATES (A.U.)
---------------------------
 C      0   0   0     0.000000000000     0.00000000     0.00000000
 C      1   0   0    11.890468731462     0.00000000     0.00000000
 C      1   2   0     4.560574784851    26.71426917     0.00000000
 C      3   1   2     2.652713114893    87.94545621    74.28931927
 C      4   3   1     2.609427837646   120.12583419     0.10076817
 C      5   4   3     4.625685588533   152.51815230     1.71456482
 C      2   1   3     2.585360837309     8.50699701   315.03998605
 C      7   2   3     2.710026725231   108.05010202     0.84668783
 C      2   1   3     2.710100516721   109.63583250    36.92921156
 C      1   2   7     2.610371264461    44.78226690   271.67523779
 N      1   2   7     2.556212082163    83.53345129    59.43716685
 N      9   2   1     2.600503484979   106.58526707   350.36818752
 N     12   9   2     5.527566200405   168.53581413   171.12065651
 N     13  12   9     5.583221047236    91.55032014    11.12112580
 N     14  13  12     5.528150518591    88.43092389   359.84326247
 C      8   7   2     2.654668413270   127.24786865   181.11170171
 C     13  12   9     2.582376967257    81.72106996   188.00453233
 C     14  13  12    10.882574804710    80.56209567   166.76250791
 C     17  13  12     2.757130505230   111.08861209   183.82872609
 C     18  14  13     4.558465206823    27.27532823    36.33507194
 C     20  18  14     2.650705180609    87.95206320   148.94598259
 C     21  20  18     2.611803198586   120.14573887   359.70382047
 C     18  14  13     4.623235745386   144.15733107    82.80075377
 C     19  17  13     2.557953565794   106.29293361   359.75308708
 C     13  12   9     2.582903091751   172.21332906    33.46711076
 C     18  14  13     2.609636529225    15.08449437   309.23336894
 N     22  21  20     2.556370638369   120.73759875     0.27865223
 C     25  13  17     2.666210041769   125.60330303   182.37774668
 C     14  13  12     2.601476916169    80.24689249   177.85461986
 C     14  13  12    10.892550769017   164.51507311   312.20821879
 C     29  14  13     2.712892575415   106.58649366   178.76395472
 C     30  14  13     4.560507835333    27.10625047    82.12560436
 C     32  30  14     2.652673401891    87.90059683   149.76154742
 C     33  32  30     2.609133588376   120.14881443   359.74174632
 C     34  33  32     4.627519515267   152.49203239     2.45173620
 C     31  29  14     2.585449236669   108.16950133     0.70383075
 C     14  13  12     2.600716325456   169.26375223   353.09862627
 C     30  14  13     2.609536633043    14.68948582   353.70041132
 N     34  33  32     2.556154803934   120.85575621     0.19603406
 C     37  14  29     2.654530526499   126.01551127   180.90772073
 C     15  14  13     2.582293994346    81.61824056   183.09049352
 C      2   1   3     8.029564866989   150.25904349   157.53604201
 C     41  15  14     2.758391104639   111.05201287   175.08990246
 C     42   2   1     4.559821839776    41.78584867   210.62887839
 C     44  42   2     2.652129475853    87.95153797   233.97558675
 C     45  44  42     2.611027836043   120.11137308     0.19721020
 C     42   2   1     4.629866436820   135.97209175   120.94372749
 C     43  41  15     2.559561325344   106.26758155     0.30894352
 C     15  14  13     2.584127074516   171.87382904   332.35056460
 C     42   2   1     2.611386828803    32.59078432   259.48415758
 C      9   2   1     2.655043698059   126.98745415   171.37252505
 N     42   2   1     2.556355970587   113.57249190   148.68031668
 H      1   2   7     2.047021793083   147.80142690   191.00657640
 H      2   1   3     2.040730117440   124.57909796   208.45303950
 H      4   3   1     2.046808078562   121.08399848   179.54479030
 H      5   4   3     2.044181492994   122.82221233   179.38770999
 H      6   5   4     2.064893119285   104.42927984   100.06425650
 H      6   5   4     2.061105677601    84.65790453   209.44838154
 H      6   5   4     2.058023682725   133.89544836   322.30253816
 H      7   2  54     2.040541119952   126.66122480     1.30600390
 H     10   1   2     2.047497990907   118.75263169   218.98938718
 H     12   9   2     1.920524309565   125.29023241   180.00180175
 H     14  13  12     1.917952867083    44.97226959   359.42596618
 H     18  14  13     2.046330847636   128.03556573   234.20482432
 H     19  17  13     2.042592906181   126.41830519   178.11313280
 H     21  20  18     2.047649722989   121.05669627   180.67006309
 H     22  21  20     2.045596898814   122.73097286   180.59748951
 H     23  18  14     2.063779938267   103.92715769   234.93429879
 H     23  18  14     2.057669673245   134.19244188    12.25587044
 H     23  18  14     2.059486796529    84.85857450   125.45241208
 H     24  19  17     2.041046823986   127.28078426   178.44613241
 H     26  18  14     2.047344503340   118.76995697   244.94906660
 H     30  14  13     2.046012340948   127.99711412   279.66882698
 H     31  29  14     2.040450114918   125.22293469   180.92530585
 H     33  32  30     2.046930203877   121.01964473   180.74284758
 H     34  33  32     2.045617847496   122.70821597   180.59516895
 H     35  34  33     2.064814429233   105.73575241    97.19771933
 H     35  34  33     2.058786158072    84.05943581   206.43036958
 H     35  34  33     2.058418400901   133.08365142   318.50306270
 H     36  31  29     2.039845353366   126.61599965   178.98859863
 H     38  30  73     2.047975821711   118.77264435   359.90091293
 H     42   2   1     2.045020725966   119.31790784     5.31184714
 H     43  41  15     2.041436952892   126.36969097   182.06329380
 H     45  44  42     2.047097678177   121.10105945   179.58025624
 H     46  45  44     2.045051284662   122.72144639   179.46906377
 H     47  42   2     2.062723288131   106.65128841   315.16475048
 H     47  42   2     2.057569012371   132.46019523    94.52397119
 H     47  42   2     2.058915377895    83.63838232   206.04504406
 H     48  43  41     2.041664347903   127.23657387   181.62955349
 H     50  42   2     2.046925842384   118.77001737    94.71359229

---------------------
BASIS SET INFORMATION
---------------------
There are 3 groups of distinct atoms

 Group   1 Type C   : 17s4p1d contracted to 3s2p1d pattern {881/31/1}
 Group   2 Type N   : 17s4p1d contracted to 3s2p1d pattern {881/31/1}
 Group   3 Type H   : 4s1p contracted to 2s1p pattern {31/1}

Atom   0C    basis set group =>   1
Atom   1N    basis set group =>   2
Atom   2C    basis set group =>   1
Atom   3N    basis set group =>   2
Atom   4C    basis set group =>   1
Atom   5N    basis set group =>   2
Atom   6C    basis set group =>   1
Atom   7N    basis set group =>   2
Atom   8C    basis set group =>   1
Atom   9N    basis set group =>   2
Atom  10C    basis set group =>   1
Atom  11N    basis set group =>   2
Atom  12C    basis set group =>   1
Atom  13N    basis set group =>   2
Atom  14C    basis set group =>   1
Atom  15N    basis set group =>   2
Atom  16C    basis set group =>   1
Atom  17C    basis set group =>   1
Atom  18C    basis set group =>   1
Atom  19C    basis set group =>   1
Atom  20C    basis set group =>   1
Atom  21C    basis set group =>   1
Atom  22C    basis set group =>   1
Atom  23C    basis set group =>   1
Atom  24C    basis set group =>   1
Atom  25C    basis set group =>   1
Atom  26C    basis set group =>   1
Atom  27C    basis set group =>   1
Atom  28C    basis set group =>   1
Atom  29C    basis set group =>   1
Atom  30C    basis set group =>   1
Atom  31C    basis set group =>   1
Atom  32C    basis set group =>   1
Atom  33C    basis set group =>   1
Atom  34C    basis set group =>   1
Atom  35C    basis set group =>   1
Atom  36C    basis set group =>   1
Atom  37C    basis set group =>   1
Atom  38C    basis set group =>   1
Atom  39C    basis set group =>   1
Atom  40C    basis set group =>   1
Atom  41C    basis set group =>   1
Atom  42C    basis set group =>   1
Atom  43C    basis set group =>   1
Atom  44C    basis set group =>   1
Atom  45C    basis set group =>   1
Atom  46C    basis set group =>   1
Atom  47C    basis set group =>   1
Atom  48C    basis set group =>   1
Atom  49C    basis set group =>   1
Atom  50C    basis set group =>   1
Atom  51C    basis set group =>   1
Atom  52H    basis set group =>   3
Atom  53H    basis set group =>   3
Atom  54H    basis set group =>   3
Atom  55H    basis set group =>   3
Atom  56H    basis set group =>   3
Atom  57H    basis set group =>   3
Atom  58H    basis set group =>   3
Atom  59H    basis set group =>   3
Atom  60H    basis set group =>   3
Atom  61H    basis set group =>   3
Atom  62H    basis set group =>   3
Atom  63H    basis set group =>   3
Atom  64H    basis set group =>   3
Atom  65H    basis set group =>   3
Atom  66H    basis set group =>   3
Atom  67H    basis set group =>   3
Atom  68H    basis set group =>   3
Atom  69H    basis set group =>   3
Atom  70H    basis set group =>   3
Atom  71H    basis set group =>   3
Atom  72H    basis set group =>   3
Atom  73H    basis set group =>   3
Atom  74H    basis set group =>   3
Atom  75H    basis set group =>   3
Atom  76H    basis set group =>   3
Atom  77H    basis set group =>   3
Atom  78H    basis set group =>   3
Atom  79H    basis set group =>   3
Atom  80H    basis set group =>   3
Atom  81H    basis set group =>   3
Atom  82H    basis set group =>   3
Atom  83H    basis set group =>   3
Atom  84H    basis set group =>   3
Atom  85H    basis set group =>   3
Atom  86H    basis set group =>   3
Atom  87H    basis set group =>   3
Atom  88H    basis set group =>   3
Atom  89H    basis set group =>   3


           ************************************************************
           *        Program running with 16 parallel MPI-processes    *
           *              working on a common directory               *
           ************************************************************
------------------------------------------------------------------------------
                           ORCA GTO INTEGRAL CALCULATION
------------------------------------------------------------------------------
------------------------------------------------------------------------------
                   ___                                                        
                  /   \      - P O W E R E D   B Y -                         
                 /     \                                                     
                 |  |  |   _    _      __       _____    __    __             
                 |  |  |  | |  | |    /  \     |  _  \  |  |  /  |          
                  \  \/   | |  | |   /    \    | | | |  |  | /  /          
                 / \  \   | |__| |  /  /\  \   | |_| |  |  |/  /          
                |  |  |   |  __  | /  /__\  \  |    /   |      \           
                |  |  |   | |  | | |   __   |  |    \   |  |\   \          
                \     /   | |  | | |  |  |  |  | |\  \  |  | \   \       
                 \___/    |_|  |_| |__|  |__|  |_| \__\ |__|  \__/        
                                                                              
                      - O R C A' S   B I G   F R I E N D -                    
                                      &                                       
                       - I N T E G R A L  F E E D E R -                       
                                                                              
 v1 FN, 2020, v2 2021                                                         
------------------------------------------------------------------------------


Reading SHARK input file /scratch/allen/tmpyp4_amber_gaff2/conf1/conf1/Conf131.orca.SHARKINP.tmp ... ok
----------------------
SHARK INTEGRAL PACKAGE
----------------------

Number of atoms                             ...     90
Number of basis functions                   ...   1230
Number of shells                            ...    738
Maximum angular momentum                    ...      2
Integral batch strategy                     ... SHARK/LIBINT Hybrid
RI-J (if used) integral strategy            ... SPLIT-RIJ (Revised 2003 algorithm where possible)
Printlevel                                  ...      1
Contraction scheme used                     ... PARTIAL GENERAL contraction
Coulomb Range Separation                    ... NOT USED
Exchange Range Separation                   ... NOT USED
Finite Nucleus Model                        ... NOT USED
Auxiliary Coulomb fitting basis             ... NOT available
Auxiliary J/K fitting basis                 ... NOT available
Auxiliary Correlation fitting basis         ... NOT available
Auxiliary 'external' fitting basis          ... NOT available
Integral threshold                          ...     2.500000e-11
Primitive cut-off                           ...     2.500000e-12
Primitive pair pre-selection threshold      ...     2.500000e-12

Calculating pre-screening integrals         ... done (  0.1 sec) Dimension = 738
Calculating pre-screening integrals (ORCA)  ... done (  0.3 sec) Dimension = 426
Organizing shell pair data                  ... done (  0.8 sec)
Shell pair information
Total number of shell pairs                 ...    272691
Shell pairs after pre-screening             ...     71601
Total number of primitive shell pairs       ...    422091
Primitive shell pairs kept                  ...     92386
          la=0 lb=0:  29410 shell pairs
          la=1 lb=0:  25969 shell pairs
          la=1 lb=1:   4702 shell pairs
          la=2 lb=0:   7865 shell pairs
          la=2 lb=1:   3124 shell pairs
          la=2 lb=2:    531 shell pairs

Calculating one electron integrals          ... done (  0.3 sec)
Calculating Nuclear repulsion               ... done (  0.0 sec) ENN=   6226.451534350051 Eh

SHARK setup successfully completed in   2.1 seconds

Maximum memory used throughout the entire GTOINT-calculation: 98.9 MB


           ************************************************************
           *        Program running with 16 parallel MPI-processes    *
           *              working on a common directory               *
           ************************************************************
-------------------------------------------------------------------------------
                                 ORCA SCF
-------------------------------------------------------------------------------

------------
SCF SETTINGS
------------
Hamiltonian:
 Ab initio Hamiltonian  Method          .... Hartree-Fock(GTOs)


General Settings:
 Integral files         IntName         .... /scratch/allen/tmpyp4_amber_gaff2/conf1/conf1/Conf131.orca
 Hartree-Fock type      HFTyp           .... RHF
 Total Charge           Charge          ....    0
 Multiplicity           Mult            ....    1
 Number of Electrons    NEL             ....  358
 Basis Dimension        Dim             ....  918
 Nuclear Repulsion      ENuc            ....   6226.4515343501 Eh

Convergence Acceleration:
 DIIS                   CNVDIIS         .... on
   Start iteration      DIISMaxIt       ....    12
   Startup error        DIISStart       ....  0.200000
   # of expansion vecs  DIISMaxEq       ....     5
   Bias factor          DIISBfac        ....   1.050
   Max. coefficient     DIISMaxC        ....  10.000
 Trust-Rad. Augm. Hess. CNVTRAH         .... auto
   Auto Start mean grad. ratio tolernc. ....  1.125000
   Auto Start start iteration           ....    20
   Auto Start num. interpolation iter.  ....    10
   Max. Number of Micro iterations      ....    16
   Max. Number of Macro iterations      .... Maxiter - #DIIS iter
   Number of Davidson start vectors     ....     2
   Converg. threshold I  (grad. norm)   ....   1.000e-05
   Converg. threshold II (energy diff.) ....   1.000e-08
   Grad. Scal. Fac. for Micro threshold ....   0.100
   Minimum threshold for Micro iter.    ....   0.010
   NR start threshold (gradient norm)   ....   0.001
   Initial trust radius                 ....   0.400
   Minimum AH scaling param. (alpha)    ....   1.000
   Maximum AH scaling param. (alpha)    .... 1000.000
   Orbital update algorithm             .... Taylor
   White noise on init. David. guess    .... on
   Maximum white noise                  ....   0.010
   Quad. conv. algorithm                .... NR
 SOSCF                  CNVSOSCF        .... on
   Start iteration      SOSCFMaxIt      ....   150
   Startup grad/error   SOSCFStart      ....  0.003300
 Level Shifting         CNVShift        .... on
   Level shift para.    LevelShift      ....    0.2500
   Turn off err/grad.   ShiftErr        ....    0.0010
 Zerner damping         CNVZerner       .... off
 Static damping         CNVDamp         .... on
   Fraction old density DampFac         ....    0.7000
   Max. Damping (<1)    DampMax         ....    0.9800
   Min. Damping (>=0)   DampMin         ....    0.0000
   Turn off err/grad.   DampErr         ....    0.1000
 Fernandez-Rico         CNVRico         .... off

SCF Procedure:
 Maximum # iterations   MaxIter         ....   125
 SCF integral mode      SCFMode         .... Direct
   Integral package                     .... SHARK and LIBINT hybrid scheme
 Reset frequency        DirectResetFreq ....    20
 Integral Threshold     Thresh          ....  2.500e-11 Eh
 Primitive CutOff       TCut            ....  2.500e-12 Eh

Convergence Tolerance:
 Convergence Check Mode ConvCheckMode   .... Total+1el-Energy
 Convergence forced     ConvForced      .... 1
 Energy Change          TolE            ....  1.000e-08 Eh
 1-El. energy change                    ....  1.000e-05 Eh
 Orbital Gradient       TolG            ....  1.000e-05
 Orbital Rotation angle TolX            ....  1.000e-05
 DIIS Error             TolErr          ....  5.000e-07


Diagonalization of the overlap matrix:
Smallest eigenvalue                        ... 2.248e-04
Time for diagonalization                   ...    0.360 sec
Threshold for overlap eigenvalues          ... 1.000e-08
Number of eigenvalues below threshold      ... 0
Time for construction of square roots      ...    0.244 sec
Total time needed                          ...    0.609 sec

Time for model grid setup =    1.050 sec

------------------------------
INITIAL GUESS: MODEL POTENTIAL
------------------------------
Loading Hartree-Fock densities                     ... done
Calculating cut-offs                               ... done
Initializing the effective Hamiltonian             ... done
Setting up the integral package (SHARK)            ... done
Starting the Coulomb interaction                   ... done (   1.2 sec)
Reading the grid                                   ... done
Mapping shells                                     ... done
Starting the XC term evaluation                    ... done (   0.2 sec)
Transforming the Hamiltonian                       ... done (   0.2 sec)
Diagonalizing the Hamiltonian                      ... done (   0.3 sec)
Back transforming the eigenvectors                 ... done (   0.1 sec)
Now organizing SCF variables                       ... done
                      ------------------
                      INITIAL GUESS DONE (   3.1 sec)
                      ------------------
--------------
SCF ITERATIONS
--------------
ITER       Energy         Delta-E        Max-DP      RMS-DP      [F,P]     Damp
               ***  Starting incremental Fock matrix formation  ***
  0  -2121.6864605010   0.000000000000 0.06885110  0.00120734  0.2327274 0.7000
  1  -2122.3486191018  -0.662158600764 0.05221110  0.00097998  0.1440445 0.7000
                               ***Turning on DIIS***
  2  -2122.7598380379  -0.411218936104 0.11657845  0.00222184  0.0802411 0.0000
  3  -2117.7986976192   4.961140418662 0.03016437  0.00067594  0.0441669 0.0000
  4  -2123.4257469216  -5.627049302393 0.00881513  0.00022681  0.0072009 0.0000
  5  -2123.5988115702  -0.173064648608 0.00510799  0.00013379  0.0049740 0.0000
  6  -2123.5813844131   0.017427157169 0.00342288  0.00008650  0.0019368 0.0000
  7  -2123.6840867327  -0.102702319595 0.00289627  0.00006806  0.0015192 0.0000
  8  -2123.6995580270  -0.015471294319 0.00298788  0.00006376  0.0014115 0.0000
  9  -2123.6655767578   0.033981269205 0.00240564  0.00004370  0.0011156 0.0000
 10  -2123.6777430585  -0.012166300687 0.00494550  0.00008679  0.0008526 0.0000
                      *** Initiating the SOSCF procedure ***
                           *** Shutting down DIIS ***
                      *** Re-Reading the Fockian *** 
                      *** Removing any level shift *** 
ITER      Energy       Delta-E        Grad      Rot      Max-DP    RMS-DP
 11  -2123.56484971   0.1128933478  0.000265  0.000265  0.000276  0.000006
               *** Restarting incremental Fock matrix formation ***
 12  -2123.62906189  -0.0642121808  0.000864  0.005825  0.001148  0.000028
 13  -2123.62913322  -0.0000713299  0.000958  0.025700  0.005360  0.000102
 14  -2123.62923685  -0.0001036328  0.000443  0.002040  0.000524  0.000011
 15  -2123.62925065  -0.0000137954  0.000183  0.003367  0.000851  0.000015
 16  -2123.62925868  -0.0000080348  0.000137  0.004410  0.000772  0.000016
 17  -2123.62926300  -0.0000043148  0.000139  0.003322  0.000452  0.000010
 18  -2123.62926515  -0.0000021549  0.000069  0.001535  0.000236  0.000005
 19  -2123.62926623  -0.0000010737  0.000060  0.000493  0.000170  0.000003
 20  -2123.62926656  -0.0000003303  0.000026  0.000508  0.000131  0.000002
 21  -2123.62926671  -0.0000001486  0.000020  0.000185  0.000064  0.000001
 22  -2123.62926679  -0.0000000829  0.000016  0.000394  0.000100  0.000002
 23  -2123.62926685  -0.0000000616  0.000010  0.000118  0.000046  0.000001
 24  -2123.62926687  -0.0000000171  0.000005  0.000060  0.000025  0.000000
 25  -2123.62926688  -0.0000000091  0.000003  0.000031  0.000015  0.000000
                  ***Gradient check signals convergence***
              ***Rediagonalizing the Fockian in SOSCF/NRSCF***

               *****************************************************
               *                     SUCCESS                       *
               *           SCF CONVERGED AFTER  26 CYCLES          *
               *****************************************************


----------------
TOTAL SCF ENERGY
----------------

Total Energy       :        -2123.62926688 Eh          -57786.89018 eV

Components:
Nuclear Repulsion  :         6226.45153435 Eh          169430.35992 eV
Electronic Energy  :        -8350.08080123 Eh         -227217.25010 eV
One Electron Energy:       -15293.94747511 Eh         -416169.46844 eV
Two Electron Energy:         6943.86667388 Eh          188952.21834 eV

Virial components:
Potential Energy   :        -4245.64275463 Eh         -115529.81278 eV
Kinetic Energy     :         2122.01348774 Eh           57742.92259 eV
Virial Ratio       :            2.00076144


---------------
SCF CONVERGENCE
---------------

  Last Energy change         ...   -4.2783e-09  Tolerance :   1.0000e-08
  Last MAX-Density change    ...    9.2855e-06  Tolerance :   1.0000e-07
  Last RMS-Density change    ...    1.4919e-07  Tolerance :   5.0000e-09
  Last Orbital Gradient      ...    1.6445e-06  Tolerance :   1.0000e-05
  Last Orbital Rotation      ...    2.9973e-05  Tolerance :   1.0000e-05

             **** THE GBW FILE WAS UPDATED (/scratch/allen/tmpyp4_amber_gaff2/conf1/conf1/Conf131.orca.gbw) ****
             **** DENSITY /scratch/allen/tmpyp4_amber_gaff2/conf1/conf1/Conf131.orca.scfp WAS UPDATED ****
             **** ENERGY FILE WAS UPDATED (/scratch/allen/tmpyp4_amber_gaff2/conf1/conf1/Conf131.orca.en.tmp) ****
             **** THE GBW FILE WAS UPDATED (/scratch/allen/tmpyp4_amber_gaff2/conf1/conf1/Conf131.orca.gbw) ****
             **** DENSITY /scratch/allen/tmpyp4_amber_gaff2/conf1/conf1/Conf131.orca.scfp WAS UPDATED ****
----------------
ORBITAL ENERGIES
----------------

  NO   OCC          E(Eh)            E(eV) 
   0   2.0000     -15.653704      -425.9589 
   1   2.0000     -15.639347      -425.5683 
   2   2.0000     -15.628501      -425.2731 
   3   2.0000     -15.607850      -424.7112 
   4   2.0000     -15.521834      -422.3706 
   5   2.0000     -15.515648      -422.2022 
   6   2.0000     -15.447316      -420.3428 
   7   2.0000     -15.443755      -420.2459 
   8   2.0000     -11.311761      -307.8087 
   9   2.0000     -11.308197      -307.7117 
  10   2.0000     -11.305674      -307.6430 
  11   2.0000     -11.302593      -307.5592 
  12   2.0000     -11.296008      -307.3800 
  13   2.0000     -11.295859      -307.3760 
  14   2.0000     -11.292897      -307.2954 
  15   2.0000     -11.286709      -307.1270 
  16   2.0000     -11.284659      -307.0712 
  17   2.0000     -11.284021      -307.0538 
  18   2.0000     -11.270139      -306.6761 
  19   2.0000     -11.269799      -306.6668 
  20   2.0000     -11.257411      -306.3297 
  21   2.0000     -11.244873      -305.9885 
  22   2.0000     -11.243975      -305.9641 
  23   2.0000     -11.242792      -305.9319 
  24   2.0000     -11.234818      -305.7149 
  25   2.0000     -11.234222      -305.6987 
  26   2.0000     -11.233038      -305.6665 
  27   2.0000     -11.226779      -305.4962 
  28   2.0000     -11.226594      -305.4911 
  29   2.0000     -11.216733      -305.2228 
  30   2.0000     -11.211761      -305.0875 
  31   2.0000     -11.211039      -305.0679 
  32   2.0000     -11.205142      -304.9074 
  33   2.0000     -11.204252      -304.8832 
  34   2.0000     -11.191830      -304.5452 
  35   2.0000     -11.191413      -304.5338 
  36   2.0000     -11.179270      -304.2034 
  37   2.0000     -11.176734      -304.1344 
  38   2.0000     -11.176401      -304.1253 
  39   2.0000     -11.173600      -304.0491 
  40   2.0000     -11.167308      -303.8779 
  41   2.0000     -11.166685      -303.8609 
  42   2.0000     -11.165991      -303.8421 
  43   2.0000     -11.165658      -303.8330 
  44   2.0000     -11.163598      -303.7769 
  45   2.0000     -11.163129      -303.7642 
  46   2.0000     -11.150387      -303.4174 
  47   2.0000     -11.149227      -303.3859 
  48   2.0000     -11.147251      -303.3321 
  49   2.0000     -11.146009      -303.2983 
  50   2.0000     -11.138782      -303.1017 
  51   2.0000     -11.134580      -302.9873 
  52   2.0000      -1.338132       -36.4124 
  53   2.0000      -1.325799       -36.0768 
  54   2.0000      -1.316527       -35.8245 
  55   2.0000      -1.299611       -35.3642 
  56   2.0000      -1.221407       -33.2362 
  57   2.0000      -1.211410       -32.9642 
  58   2.0000      -1.164534       -31.6886 
  59   2.0000      -1.156080       -31.4585 
  60   2.0000      -1.124771       -30.6066 
  61   2.0000      -1.113848       -30.3093 
  62   2.0000      -1.105914       -30.0934 
  63   2.0000      -1.092476       -29.7278 
  64   2.0000      -1.061365       -28.8812 
  65   2.0000      -1.049681       -28.5633 
  66   2.0000      -1.041195       -28.3324 
  67   2.0000      -1.030044       -28.0289 
  68   2.0000      -1.026242       -27.9255 
  69   2.0000      -1.012465       -27.5506 
  70   2.0000      -1.009306       -27.4646 
  71   2.0000      -0.994598       -27.0644 
  72   2.0000      -0.985787       -26.8246 
  73   2.0000      -0.974306       -26.5122 
  74   2.0000      -0.972850       -26.4726 
  75   2.0000      -0.958723       -26.0882 
  76   2.0000      -0.951407       -25.8891 
  77   2.0000      -0.946028       -25.7427 
  78   2.0000      -0.938179       -25.5291 
  79   2.0000      -0.922540       -25.1036 
  80   2.0000      -0.895738       -24.3743 
  81   2.0000      -0.885977       -24.1087 
  82   2.0000      -0.876466       -23.8498 
  83   2.0000      -0.868956       -23.6455 
  84   2.0000      -0.862601       -23.4726 
  85   2.0000      -0.855067       -23.2676 
  86   2.0000      -0.848218       -23.0812 
  87   2.0000      -0.840703       -22.8767 
  88   2.0000      -0.821801       -22.3624 
  89   2.0000      -0.798759       -21.7353 
  90   2.0000      -0.796469       -21.6730 
  91   2.0000      -0.741234       -20.1700 
  92   2.0000      -0.734293       -19.9811 
  93   2.0000      -0.730667       -19.8825 
  94   2.0000      -0.722371       -19.6567 
  95   2.0000      -0.719450       -19.5772 
  96   2.0000      -0.712806       -19.3964 
  97   2.0000      -0.705759       -19.2047 
  98   2.0000      -0.700274       -19.0554 
  99   2.0000      -0.695058       -18.9135 
 100   2.0000      -0.689976       -18.7752 
 101   2.0000      -0.681380       -18.5413 
 102   2.0000      -0.678786       -18.4707 
 103   2.0000      -0.673589       -18.3293 
 104   2.0000      -0.670179       -18.2365 
 105   2.0000      -0.667223       -18.1561 
 106   2.0000      -0.664350       -18.0779 
 107   2.0000      -0.660211       -17.9653 
 108   2.0000      -0.657552       -17.8929 
 109   2.0000      -0.656632       -17.8679 
 110   2.0000      -0.651303       -17.7229 
 111   2.0000      -0.648788       -17.6544 
 112   2.0000      -0.644597       -17.5404 
 113   2.0000      -0.637563       -17.3490 
 114   2.0000      -0.634299       -17.2601 
 115   2.0000      -0.627086       -17.0639 
 116   2.0000      -0.622817       -16.9477 
 117   2.0000      -0.616433       -16.7740 
 118   2.0000      -0.612345       -16.6628 
 119   2.0000      -0.610771       -16.6199 
 120   2.0000      -0.608438       -16.5564 
 121   2.0000      -0.602666       -16.3994 
 122   2.0000      -0.594661       -16.1816 
 123   2.0000      -0.594224       -16.1696 
 124   2.0000      -0.590900       -16.0792 
 125   2.0000      -0.585030       -15.9195 
 126   2.0000      -0.578280       -15.7358 
 127   2.0000      -0.575151       -15.6507 
 128   2.0000      -0.565746       -15.3947 
 129   2.0000      -0.558975       -15.2105 
 130   2.0000      -0.553860       -15.0713 
 131   2.0000      -0.548773       -14.9329 
 132   2.0000      -0.541998       -14.7485 
 133   2.0000      -0.537163       -14.6170 
 134   2.0000      -0.534093       -14.5334 
 135   2.0000      -0.529541       -14.4096 
 136   2.0000      -0.525509       -14.2998 
 137   2.0000      -0.522825       -14.2268 
 138   2.0000      -0.518845       -14.1185 
 139   2.0000      -0.517428       -14.0799 
 140   2.0000      -0.509604       -13.8670 
 141   2.0000      -0.507493       -13.8096 
 142   2.0000      -0.506900       -13.7934 
 143   2.0000      -0.501254       -13.6398 
 144   2.0000      -0.500186       -13.6107 
 145   2.0000      -0.498063       -13.5530 
 146   2.0000      -0.494145       -13.4464 
 147   2.0000      -0.490488       -13.3469 
 148   2.0000      -0.488646       -13.2967 
 149   2.0000      -0.469348       -12.7716 
 150   2.0000      -0.462013       -12.5720 
 151   2.0000      -0.453680       -12.3452 
 152   2.0000      -0.448308       -12.1991 
 153   2.0000      -0.446497       -12.1498 
 154   2.0000      -0.446224       -12.1424 
 155   2.0000      -0.439369       -11.9558 
 156   2.0000      -0.434945       -11.8355 
 157   2.0000      -0.430365       -11.7108 
 158   2.0000      -0.395522       -10.7627 
 159   2.0000      -0.384001       -10.4492 
 160   2.0000      -0.379344       -10.3225 
 161   2.0000      -0.371430       -10.1071 
 162   2.0000      -0.369929       -10.0663 
 163   2.0000      -0.360063        -9.7978 
 164   2.0000      -0.352997        -9.6055 
 165   2.0000      -0.339429        -9.2363 
 166   2.0000      -0.337218        -9.1762 
 167   2.0000      -0.334764        -9.1094 
 168   2.0000      -0.329015        -8.9530 
 169   2.0000      -0.300152        -8.1676 
 170   2.0000      -0.299406        -8.1473 
 171   2.0000      -0.287836        -7.8324 
 172   2.0000      -0.286106        -7.7854 
 173   2.0000      -0.257061        -6.9950 
 174   2.0000      -0.247107        -6.7241 
 175   2.0000      -0.188821        -5.1381 
 176   2.0000      -0.178861        -4.8670 
 177   2.0000      -0.069157        -1.8818 
 178   2.0000      -0.056006        -1.5240 
 179   0.0000       0.029893         0.8134 
 180   0.0000       0.069436         1.8895 
 181   0.0000       0.092776         2.5246 
 182   0.0000       0.101055         2.7498 
 183   0.0000       0.123904         3.3716 
 184   0.0000       0.133795         3.6408 
 185   0.0000       0.141766         3.8576 
 186   0.0000       0.154583         4.2064 
 187   0.0000       0.156030         4.2458 
 188   0.0000       0.162045         4.4095 
 189   0.0000       0.162620         4.4251 
 190   0.0000       0.167801         4.5661 
 191   0.0000       0.177748         4.8368 
 192   0.0000       0.194245         5.2857 
 193   0.0000       0.197649         5.3783 
 194   0.0000       0.201981         5.4962 
 195   0.0000       0.205569         5.5938 
 196   0.0000       0.207914         5.6576 
 197   0.0000       0.210942         5.7400 
 198   0.0000       0.217524         5.9191 
 199   0.0000       0.222179         6.0458 
 200   0.0000       0.229274         6.2389 
 201   0.0000       0.237012         6.4494 
 202   0.0000       0.241871         6.5816 
 203   0.0000       0.246921         6.7191 
 204   0.0000       0.251396         6.8408 
 205   0.0000       0.253710         6.9038 
 206   0.0000       0.255313         6.9474 
 207   0.0000       0.259818         7.0700 
 208   0.0000       0.262934         7.1548 
 209   0.0000       0.264394         7.1945 
 210   0.0000       0.267178         7.2703 
 211   0.0000       0.269322         7.3286 
 212   0.0000       0.271224         7.3804 
 213   0.0000       0.274635         7.4732 
 214   0.0000       0.277253         7.5444 
 215   0.0000       0.279061         7.5936 
 216   0.0000       0.281720         7.6660 
 217   0.0000       0.282110         7.6766 
 218   0.0000       0.284181         7.7330 
 219   0.0000       0.288581         7.8527 
 220   0.0000       0.290094         7.8938 
 221   0.0000       0.292242         7.9523 
 222   0.0000       0.293598         7.9892 
 223   0.0000       0.295938         8.0529 
 224   0.0000       0.298649         8.1266 
 225   0.0000       0.300552         8.1784 
 226   0.0000       0.305667         8.3176 
 227   0.0000       0.307432         8.3656 
 228   0.0000       0.309154         8.4125 
 229   0.0000       0.313428         8.5288 
 230   0.0000       0.314882         8.5684 
 231   0.0000       0.320963         8.7338 
 232   0.0000       0.324939         8.8420 
 233   0.0000       0.329785         8.9739 
 234   0.0000       0.332837         9.0570 
 235   0.0000       0.339890         9.2489 
 236   0.0000       0.355346         9.6695 
 237   0.0000       0.384440        10.4611 
 238   0.0000       0.395058        10.7501 
 239   0.0000       0.399311        10.8658 
 240   0.0000       0.404613        11.0101 
 241   0.0000       0.414495        11.2790 
 242   0.0000       0.419092        11.4041 
 243   0.0000       0.424509        11.5515 
 244   0.0000       0.427930        11.6446 
 245   0.0000       0.431050        11.7295 
 246   0.0000       0.434027        11.8105 
 247   0.0000       0.438120        11.9218 
 248   0.0000       0.441184        12.0052 
 249   0.0000       0.444045        12.0831 
 250   0.0000       0.449364        12.2278 
 251   0.0000       0.456506        12.4222 
 252   0.0000       0.458093        12.4653 
 253   0.0000       0.463194        12.6041 
 254   0.0000       0.469988        12.7890 
 255   0.0000       0.474792        12.9197 
 256   0.0000       0.482929        13.1412 
 257   0.0000       0.485102        13.2003 
 258   0.0000       0.492818        13.4103 
 259   0.0000       0.496129        13.5003 
 260   0.0000       0.500871        13.6294 
 261   0.0000       0.502824        13.6825 
 262   0.0000       0.507316        13.8048 
 263   0.0000       0.509868        13.8742 
 264   0.0000       0.511092        13.9075 
 265   0.0000       0.515177        14.0187 
 266   0.0000       0.518854        14.1187 
 267   0.0000       0.523146        14.2355 
 268   0.0000       0.535776        14.5792 
 269   0.0000       0.537694        14.6314 
 270   0.0000       0.541790        14.7429 
 271   0.0000       0.545073        14.8322 
 272   0.0000       0.545842        14.8531 
 273   0.0000       0.553918        15.0729 
 274   0.0000       0.559561        15.2264 
 275   0.0000       0.563949        15.3458 
 276   0.0000       0.573570        15.6076 
 277   0.0000       0.577654        15.7188 
 278   0.0000       0.579914        15.7803 
 279   0.0000       0.584119        15.8947 
 280   0.0000       0.586142        15.9497 
 281   0.0000       0.590668        16.0729 
 282   0.0000       0.593358        16.1461 
 283   0.0000       0.597095        16.2478 
 284   0.0000       0.599185        16.3047 
 285   0.0000       0.600147        16.3308 
 286   0.0000       0.608047        16.5458 
 287   0.0000       0.610366        16.6089 
 288   0.0000       0.613143        16.6845 
 289   0.0000       0.615940        16.7606 
 290   0.0000       0.622911        16.9503 
 291   0.0000       0.627653        17.0793 
 292   0.0000       0.636601        17.3228 
 293   0.0000       0.637291        17.3416 
 294   0.0000       0.645366        17.5613 
 295   0.0000       0.650406        17.6985 
 296   0.0000       0.655643        17.8410 
 297   0.0000       0.658670        17.9233 
 298   0.0000       0.662765        18.0347 
 299   0.0000       0.665828        18.1181 
 300   0.0000       0.669540        18.2191 
 301   0.0000       0.672259        18.2931 
 302   0.0000       0.679156        18.4808 
 303   0.0000       0.682047        18.5595 
 304   0.0000       0.683761        18.6061 
 305   0.0000       0.688780        18.7427 
 306   0.0000       0.689452        18.7609 
 307   0.0000       0.690875        18.7997 
 308   0.0000       0.697007        18.9665 
 309   0.0000       0.697975        18.9929 
 310   0.0000       0.702286        19.1102 
 311   0.0000       0.704917        19.1818 
 312   0.0000       0.705929        19.2093 
 313   0.0000       0.709510        19.3067 
 314   0.0000       0.711816        19.3695 
 315   0.0000       0.713760        19.4224 
 316   0.0000       0.716054        19.4848 
 317   0.0000       0.717854        19.5338 
 318   0.0000       0.720097        19.5948 
 319   0.0000       0.724128        19.7045 
 320   0.0000       0.727181        19.7876 
 321   0.0000       0.730514        19.8783 
 322   0.0000       0.733318        19.9546 
 323   0.0000       0.735906        20.0250 
 324   0.0000       0.737605        20.0713 
 325   0.0000       0.741449        20.1759 
 326   0.0000       0.742560        20.2061 
 327   0.0000       0.744617        20.2621 
 328   0.0000       0.746508        20.3135 
 329   0.0000       0.750118        20.4118 
 330   0.0000       0.752824        20.4854 
 331   0.0000       0.753992        20.5172 
 332   0.0000       0.757434        20.6108 
 333   0.0000       0.763247        20.7690 
 334   0.0000       0.768783        20.9196 
 335   0.0000       0.774187        21.0667 
 336   0.0000       0.776414        21.1273 
 337   0.0000       0.780337        21.2341 
 338   0.0000       0.784795        21.3554 
 339   0.0000       0.787473        21.4282 
 340   0.0000       0.791186        21.5293 
 341   0.0000       0.792126        21.5549 
 342   0.0000       0.795059        21.6347 
 343   0.0000       0.800429        21.7808 
 344   0.0000       0.804620        21.8948 
 345   0.0000       0.806837        21.9552 
 346   0.0000       0.807797        21.9813 
 347   0.0000       0.810190        22.0464 
 348   0.0000       0.815691        22.1961 
 349   0.0000       0.816117        22.2077 
 350   0.0000       0.820990        22.3403 
 351   0.0000       0.824683        22.4408 
 352   0.0000       0.826890        22.5008 
 353   0.0000       0.827865        22.5274 
 354   0.0000       0.830275        22.5929 
 355   0.0000       0.830629        22.6026 
 356   0.0000       0.834169        22.6989 
 357   0.0000       0.834581        22.7101 
 358   0.0000       0.836645        22.7663 
 359   0.0000       0.839683        22.8489 
 360   0.0000       0.840252        22.8644 
 361   0.0000       0.841653        22.9025 
 362   0.0000       0.843551        22.9542 
 363   0.0000       0.844342        22.9757 
 364   0.0000       0.847635        23.0653 
 365   0.0000       0.850540        23.1444 
 366   0.0000       0.851794        23.1785 
 367   0.0000       0.854946        23.2643 
 368   0.0000       0.860604        23.4182 
 369   0.0000       0.862591        23.4723 
 370   0.0000       0.864576        23.5263 
 371   0.0000       0.870624        23.6909 
 372   0.0000       0.873409        23.7667 
 373   0.0000       0.875939        23.8355 
 374   0.0000       0.878895        23.9160 
 375   0.0000       0.883217        24.0336 
 376   0.0000       0.885456        24.0945 
 377   0.0000       0.890635        24.2354 
 378   0.0000       0.892340        24.2818 
 379   0.0000       0.893450        24.3120 
 380   0.0000       0.897684        24.4272 
 381   0.0000       0.899363        24.4729 
 382   0.0000       0.901968        24.5438 
 383   0.0000       0.903883        24.5959 
 384   0.0000       0.904411        24.6103 
 385   0.0000       0.905749        24.6467 
 386   0.0000       0.909350        24.7447 
 387   0.0000       0.910694        24.7812 
 388   0.0000       0.911175        24.7943 
 389   0.0000       0.913294        24.8520 
 390   0.0000       0.918880        25.0040 
 391   0.0000       0.921093        25.0642 
 392   0.0000       0.923135        25.1198 
 393   0.0000       0.924654        25.1611 
 394   0.0000       0.926754        25.2183 
 395   0.0000       0.930402        25.3175 
 396   0.0000       0.933981        25.4149 
 397   0.0000       0.935749        25.4630 
 398   0.0000       0.937398        25.5079 
 399   0.0000       0.942014        25.6335 
 400   0.0000       0.943102        25.6631 
 401   0.0000       0.947120        25.7725 
 402   0.0000       0.949655        25.8414 
 403   0.0000       0.954151        25.9638 
 404   0.0000       0.955257        25.9939 
 405   0.0000       0.958700        26.0876 
 406   0.0000       0.960256        26.1299 
 407   0.0000       0.964041        26.2329 
 408   0.0000       0.965303        26.2672 
 409   0.0000       0.972135        26.4531 
 410   0.0000       0.976166        26.5628 
 411   0.0000       0.978164        26.6172 
 412   0.0000       0.981167        26.6989 
 413   0.0000       0.985121        26.8065 
 414   0.0000       0.988180        26.8897 
 415   0.0000       0.991172        26.9712 
 416   0.0000       1.000379        27.2217 
 417   0.0000       1.001392        27.2493 
 418   0.0000       1.006153        27.3788 
 419   0.0000       1.015127        27.6230 
 420   0.0000       1.022384        27.8205 
 421   0.0000       1.026694        27.9378 
 422   0.0000       1.031904        28.0795 
 423   0.0000       1.040304        28.3081 
 424   0.0000       1.045490        28.4492 
 425   0.0000       1.049396        28.5555 
 426   0.0000       1.055880        28.7319 
 427   0.0000       1.062165        28.9030 
 428   0.0000       1.064394        28.9636 
 429   0.0000       1.070466        29.1289 
 430   0.0000       1.076736        29.2995 
 431   0.0000       1.081452        29.4278 
 432   0.0000       1.084828        29.5197 
 433   0.0000       1.089300        29.6414 
 434   0.0000       1.099770        29.9263 
 435   0.0000       1.102570        30.0024 
 436   0.0000       1.107463        30.1356 
 437   0.0000       1.108926        30.1754 
 438   0.0000       1.115658        30.3586 
 439   0.0000       1.116693        30.3867 
 440   0.0000       1.121418        30.5153 
 441   0.0000       1.124298        30.5937 
 442   0.0000       1.128620        30.7113 
 443   0.0000       1.130193        30.7541 
 444   0.0000       1.133319        30.8392 
 445   0.0000       1.133537        30.8451 
 446   0.0000       1.135363        30.8948 
 447   0.0000       1.141469        31.0609 
 448   0.0000       1.144716        31.1493 
 449   0.0000       1.146640        31.2017 
 450   0.0000       1.151311        31.3288 
 451   0.0000       1.153309        31.3831 
 452   0.0000       1.155634        31.4464 
 453   0.0000       1.156783        31.4777 
 454   0.0000       1.159647        31.5556 
 455   0.0000       1.168668        31.8011 
 456   0.0000       1.173213        31.9248 
 457   0.0000       1.177230        32.0341 
 458   0.0000       1.180885        32.1335 
 459   0.0000       1.185865        32.2690 
 460   0.0000       1.187946        32.3257 
 461   0.0000       1.191474        32.4216 
 462   0.0000       1.200842        32.6766 
 463   0.0000       1.202964        32.7343 
 464   0.0000       1.206803        32.8388 
 465   0.0000       1.208603        32.8878 
 466   0.0000       1.213929        33.0327 
 467   0.0000       1.215164        33.0663 
 468   0.0000       1.221526        33.2394 
 469   0.0000       1.229189        33.4479 
 470   0.0000       1.230578        33.4857 
 471   0.0000       1.233290        33.5595 
 472   0.0000       1.235159        33.6104 
 473   0.0000       1.237729        33.6803 
 474   0.0000       1.242061        33.7982 
 475   0.0000       1.247444        33.9447 
 476   0.0000       1.251749        34.0618 
 477   0.0000       1.253011        34.0962 
 478   0.0000       1.253451        34.1081 
 479   0.0000       1.255854        34.1735 
 480   0.0000       1.260553        34.3014 
 481   0.0000       1.265028        34.4232 
 482   0.0000       1.268959        34.5301 
 483   0.0000       1.270903        34.5830 
 484   0.0000       1.274338        34.6765 
 485   0.0000       1.276193        34.7270 
 486   0.0000       1.280491        34.8439 
 487   0.0000       1.283852        34.9354 
 488   0.0000       1.288809        35.0703 
 489   0.0000       1.291205        35.1355 
 490   0.0000       1.293764        35.2051 
 491   0.0000       1.299974        35.3741 
 492   0.0000       1.301536        35.4166 
 493   0.0000       1.309387        35.6302 
 494   0.0000       1.311134        35.6778 
 495   0.0000       1.314835        35.7785 
 496   0.0000       1.316013        35.8105 
 497   0.0000       1.322623        35.9904 
 498   0.0000       1.325063        36.0568 
 499   0.0000       1.329661        36.1819 
 500   0.0000       1.333688        36.2915 
 501   0.0000       1.336869        36.3780 
 502   0.0000       1.341651        36.5082 
 503   0.0000       1.347382        36.6641 
 504   0.0000       1.350679        36.7539 
 505   0.0000       1.351842        36.7855 
 506   0.0000       1.353697        36.8360 
 507   0.0000       1.358150        36.9571 
 508   0.0000       1.361717        37.0542 
 509   0.0000       1.361848        37.0578 
 510   0.0000       1.364365        37.1263 
 511   0.0000       1.366937        37.1963 
 512   0.0000       1.370244        37.2862 
[...]
      pz      :     0.022021  p :     0.079647
      px      :     0.043416
      py      :     0.014210
 77 H s       :     0.887495  s :     0.887495
      pz      :     0.047754  p :     0.079031
      px      :     0.015016
      py      :     0.016261
 78 H s       :     0.887917  s :     0.887917
      pz      :     0.025765  p :     0.078973
      px      :     0.020520
      py      :     0.032688
 79 H s       :     0.909440  s :     0.909440
      pz      :     0.021995  p :     0.086584
      px      :     0.021731
      py      :     0.042859
 80 H s       :     0.868626  s :     0.868626
      pz      :     0.039052  p :     0.084370
      px      :     0.030057
      py      :     0.015262
 81 H s       :     0.887187  s :     0.887187
      pz      :     0.037774  p :     0.083969
      px      :     0.016167
      py      :     0.030028
 82 H s       :     0.915649  s :     0.915649
      pz      :     0.022077  p :     0.086803
      px      :     0.031453
      py      :     0.033274
 83 H s       :     0.873219  s :     0.873219
      pz      :     0.039235  p :     0.084006
      px      :     0.015268
      py      :     0.029503
 84 H s       :     0.887201  s :     0.887201
      pz      :     0.035765  p :     0.083612
      px      :     0.031704
      py      :     0.016143
 85 H s       :     0.893594  s :     0.893594
      pz      :     0.022490  p :     0.079744
      px      :     0.014089
      py      :     0.043164
 86 H s       :     0.890995  s :     0.890995
      pz      :     0.024721  p :     0.078836
      px      :     0.032979
      py      :     0.021135
 87 H s       :     0.890146  s :     0.890146
      pz      :     0.047979  p :     0.078709
      px      :     0.015599
      py      :     0.015132
 88 H s       :     0.912685  s :     0.912685
      pz      :     0.021932  p :     0.086993
      px      :     0.042658
      py      :     0.022403
 89 H s       :     0.871820  s :     0.871820
      pz      :     0.037929  p :     0.083870
      px      :     0.030483
      py      :     0.015458


                      *****************************
                      * MAYER POPULATION ANALYSIS *
                      *****************************

  NA   - Mulliken gross atomic population
  ZA   - Total nuclear charge
  QA   - Mulliken gross atomic charge
  VA   - Mayer's total valence
  BVA  - Mayer's bonded valence
  FA   - Mayer's free valence

  ATOM       NA         ZA         QA         VA         BVA        FA
  0 C      5.7962     6.0000     0.2038     3.8351     3.8351     0.0000
  1 N      7.4492     7.0000    -0.4492     3.3443     3.3443     0.0000
  2 C      6.0642     6.0000    -0.0642     3.9197     3.9197    -0.0000
  3 N      7.3364     7.0000    -0.3364     3.4523     3.4523     0.0000
  4 C      6.0627     6.0000    -0.0627     3.9844     3.9844     0.0000
  5 N      7.5611     7.0000    -0.5611     3.0905     3.0905     0.0000
  6 C      6.0870     6.0000    -0.0870     4.0046     4.0046     0.0000
  7 N      7.3391     7.0000    -0.3391     3.4378     3.4378    -0.0000
  8 C      5.7967     6.0000     0.2033     3.8355     3.8355    -0.0000
  9 N      7.5628     7.0000    -0.5628     3.0817     3.0817    -0.0000
 10 C      5.8831     6.0000     0.1169     3.9023     3.9023     0.0000
 11 N      7.4373     7.0000    -0.4373     3.3845     3.3845     0.0000
 12 C      6.0752     6.0000    -0.0752     3.9176     3.9176    -0.0000
 13 N      7.4355     7.0000    -0.4355     3.3996     3.3996     0.0000
 14 C      5.7654     6.0000     0.2346     3.7846     3.7846     0.0000
 15 N      7.4411     7.0000    -0.4411     3.3704     3.3704    -0.0000
 16 C      5.7685     6.0000     0.2315     3.7848     3.7848    -0.0000
 17 C      6.0848     6.0000    -0.0848     4.0046     4.0046     0.0000
 18 C      6.1913     6.0000    -0.1913     3.7649     3.7649     0.0000
 19 C      5.7777     6.0000     0.2223     3.8696     3.8696     0.0000
 20 C      5.7884     6.0000     0.2116     3.8265     3.8265     0.0000
 21 C      6.0830     6.0000    -0.0830     3.9090     3.9090     0.0000
 22 C      6.0869     6.0000    -0.0869     3.9826     3.9826     0.0000
 23 C      6.0449     6.0000    -0.0449     3.9910     3.9910     0.0000
 24 C      5.7982     6.0000     0.2018     3.8223     3.8223     0.0000
 25 C      5.8862     6.0000     0.1138     3.8896     3.8896     0.0000
 26 C      6.0736     6.0000    -0.0736     3.9047     3.9047     0.0000
 27 C      5.7831     6.0000     0.2169     3.8744     3.8744    -0.0000
 28 C      6.0559     6.0000    -0.0559     3.9882     3.9882     0.0000
 29 C      6.1824     6.0000    -0.1824     3.7394     3.7394    -0.0000
 30 C      5.7602     6.0000     0.2398     3.7951     3.7951     0.0000
 31 C      5.7803     6.0000     0.2197     3.8235     3.8235    -0.0000
 32 C      6.0633     6.0000    -0.0633     3.9204     3.9204    -0.0000
 33 C      6.0728     6.0000    -0.0728     3.9800     3.9800     0.0000
 34 C      6.0496     6.0000    -0.0496     3.9887     3.9887    -0.0000
 35 C      5.7866     6.0000     0.2134     3.8216     3.8216     0.0000
 36 C      5.8883     6.0000     0.1117     3.8846     3.8846     0.0000
 37 C      6.0656     6.0000    -0.0656     3.9176     3.9176    -0.0000
 38 C      5.7646     6.0000     0.2354     3.8007     3.8007    -0.0000
 39 C      6.0606     6.0000    -0.0606     3.9878     3.9878     0.0000
 40 C      6.1852     6.0000    -0.1852     3.7352     3.7352     0.0000
 41 C      5.7782     6.0000     0.2218     3.8830     3.8830     0.0000
 42 C      5.7999     6.0000     0.2001     3.8270     3.8270     0.0000
 43 C      6.0734     6.0000    -0.0734     3.9017     3.9017     0.0000
 44 C      6.0901     6.0000    -0.0901     3.9856     3.9856    -0.0000
 45 C      6.0567     6.0000    -0.0567     3.9924     3.9924     0.0000
 46 C      5.7938     6.0000     0.2062     3.8272     3.8272    -0.0000
 47 C      5.8843     6.0000     0.1157     3.8939     3.8939     0.0000
 48 C      6.0719     6.0000    -0.0719     3.9063     3.9063     0.0000
 49 C      5.7689     6.0000     0.2311     3.8888     3.8888     0.0000
 50 C      6.0500     6.0000    -0.0500     3.9905     3.9905     0.0000
 51 C      6.1914     6.0000    -0.1914     3.7370     3.7370     0.0000
 52 H      0.9529     1.0000     0.0471     0.9856     0.9856    -0.0000
 53 H      1.0152     1.0000    -0.0152     0.9987     0.9987     0.0000
 54 H      0.9529     1.0000     0.0471     1.0084     1.0084     0.0000
 55 H      0.9543     1.0000     0.0457     0.9863     0.9863    -0.0000
 56 H      0.9461     1.0000     0.0539     0.9706     0.9706     0.0000
 57 H      0.9478     1.0000     0.0522     0.9826     0.9826    -0.0000
 58 H      0.9487     1.0000     0.0513     0.9857     0.9857     0.0000
 59 H      1.0060     1.0000    -0.0060     1.0014     1.0014     0.0000
 60 H      0.9553     1.0000     0.0447     1.0115     1.0115     0.0000
 61 H      0.8282     1.0000     0.1718     1.0421     1.0421     0.0000
 62 H      0.8258     1.0000     0.1742     1.0435     1.0435     0.0000
 63 H      0.9429     1.0000     0.0571     0.9853     0.9853    -0.0000
 64 H      1.0134     1.0000    -0.0134     0.9964     0.9964     0.0000
 65 H      0.9531     1.0000     0.0469     1.0095     1.0095    -0.0000
 66 H      0.9425     1.0000     0.0575     0.9851     0.9851    -0.0000
 67 H      0.9364     1.0000     0.0636     0.9720     0.9720     0.0000
 68 H      0.9418     1.0000     0.0582     0.9868     0.9868    -0.0000
 69 H      0.9416     1.0000     0.0584     0.9830     0.9830    -0.0000
 70 H      1.0263     1.0000    -0.0263     0.9932     0.9932     0.0000
 71 H      0.9524     1.0000     0.0476     1.0063     1.0063     0.0000
 72 H      0.9373     1.0000     0.0627     0.9844     0.9844     0.0000
 73 H      1.0115     1.0000    -0.0115     0.9995     0.9995    -0.0000
 74 H      0.9475     1.0000     0.0525     1.0101     1.0101    -0.0000
 75 H      0.9382     1.0000     0.0618     0.9849     0.9849     0.0000
 76 H      0.9326     1.0000     0.0674     0.9719     0.9719    -0.0000
 77 H      0.9378     1.0000     0.0622     0.9853     0.9853    -0.0000
 78 H      0.9386     1.0000     0.0614     0.9850     0.9850    -0.0000
 79 H      1.0146     1.0000    -0.0146     0.9988     0.9988     0.0000
 80 H      0.9471     1.0000     0.0529     1.0071     1.0071     0.0000
 81 H      0.9464     1.0000     0.0536     0.9856     0.9856     0.0000
 82 H      1.0245     1.0000    -0.0245     0.9937     0.9937     0.0000
 83 H      0.9581     1.0000     0.0419     1.0089     1.0089     0.0000
 84 H      0.9470     1.0000     0.0530     0.9854     0.9854    -0.0000
 85 H      0.9407     1.0000     0.0593     0.9716     0.9716     0.0000
 86 H      0.9444     1.0000     0.0556     0.9839     0.9839     0.0000
 87 H      0.9433     1.0000     0.0567     0.9856     0.9856     0.0000
 88 H      1.0188     1.0000    -0.0188     0.9955     0.9955     0.0000
 89 H      0.9543     1.0000     0.0457     1.0069     1.0069     0.0000

  Mayer bond orders larger than 0.100000
B(  0-C ,  1-N ) :   1.0995 B(  0-C , 17-C ) :   1.6722 B(  0-C , 52-H ) :   0.9689 
B(  1-N ,  8-C ) :   1.0973 B(  1-N , 10-C ) :   0.9709 B(  2-C , 12-C ) :   1.5259 
B(  2-C , 16-C ) :   1.3362 B(  2-C , 53-H ) :   0.9773 B(  3-N , 14-C ) :   1.2109 
B(  3-N , 16-C ) :   1.1937 B(  3-N , 61-H ) :   0.8991 B(  4-C ,  6-C ) :   1.2339 
B(  4-C , 17-C ) :   1.2354 B(  4-C , 18-C ) :   1.3491 B(  5-N , 19-C ) :   1.4363 
B(  5-N , 27-C ) :   1.3926 B(  6-C ,  8-C ) :   1.6730 B(  6-C , 54-H ) :   0.9691 
B(  7-N , 30-C ) :   1.1932 B(  7-N , 38-C ) :   1.1976 B(  7-N , 62-H ) :   0.8975 
B(  8-C , 55-H ) :   0.9699 B(  9-N , 41-C ) :   1.3999 B(  9-N , 49-C ) :   1.4227 
B( 10-C , 56-H ) :   0.9764 B( 10-C , 57-H ) :   0.9828 B( 10-C , 58-H ) :   0.9832 
B( 11-N , 20-C ) :   1.1294 B( 11-N , 24-C ) :   1.1182 B( 11-N , 25-C ) :   0.9579 
B( 12-C , 14-C ) :   1.3389 B( 12-C , 59-H ) :   0.9757 B( 13-N , 31-C ) :   1.1402 
B( 13-N , 35-C ) :   1.1333 B( 13-N , 36-C ) :   0.9521 B( 14-C , 18-C ) :   1.1674 
B( 15-N , 42-C ) :   1.1110 B( 15-N , 46-C ) :   1.1176 B( 15-N , 47-C ) :   0.9624 
B( 16-C , 51-C ) :   1.1880 B( 17-C , 60-H ) :   0.9689 B( 18-C , 19-C ) :   1.1771 
B( 19-C , 21-C ) :   1.2267 B( 20-C , 28-C ) :   1.6230 B( 20-C , 63-H ) :   0.9702 
B( 21-C , 26-C ) :   1.6313 B( 21-C , 64-H ) :   0.9720 B( 22-C , 23-C ) :   1.2884 
B( 22-C , 28-C ) :   1.2723 B( 22-C , 29-C ) :   1.2222 B( 23-C , 24-C ) :   1.6163 
B( 23-C , 65-H ) :   0.9707 B( 24-C , 66-H ) :   0.9692 B( 25-C , 67-H ) :   0.9761 
B( 25-C , 68-H ) :   0.9828 B( 25-C , 69-H ) :   0.9822 B( 26-C , 27-C ) :   1.2214 
B( 26-C , 70-H ) :   0.9723 B( 27-C , 29-C ) :   1.2232 B( 28-C , 71-H ) :   0.9716 
B( 29-C , 30-C ) :   1.2268 B( 30-C , 32-C ) :   1.2969 B( 31-C , 39-C ) :   1.6130 
B( 31-C , 72-H ) :   0.9690 B( 32-C , 37-C ) :   1.5618 B( 32-C , 73-H ) :   0.9781 
B( 33-C , 34-C ) :   1.2895 B( 33-C , 39-C ) :   1.2822 B( 33-C , 40-C ) :   1.2170 
B( 34-C , 35-C ) :   1.6096 B( 34-C , 74-H ) :   0.9701 B( 35-C , 75-H ) :   0.9691 
B( 36-C , 76-H ) :   0.9765 B( 36-C , 77-H ) :   0.9819 B( 36-C , 78-H ) :   0.9828 
B( 37-C , 38-C ) :   1.2996 B( 37-C , 79-H ) :   0.9773 B( 38-C , 40-C ) :   1.2202 
B( 39-C , 80-H ) :   0.9712 B( 40-C , 41-C ) :   1.2316 B( 41-C , 43-C ) :   1.2037 
B( 42-C , 50-C ) :   1.6348 B( 42-C , 81-H ) :   0.9696 B( 43-C , 48-C ) :   1.6478 
B( 43-C , 82-H ) :   0.9730 B( 44-C , 45-C ) :   1.2661 B( 44-C , 50-C ) :   1.2682 
B( 44-C , 51-C ) :   1.2608 B( 45-C , 46-C ) :   1.6350 B( 45-C , 83-H ) :   0.9715 
B( 46-C , 84-H ) :   0.9702 B( 47-C , 85-H ) :   0.9761 B( 47-C , 86-H ) :   0.9829 
B( 47-C , 87-H ) :   0.9825 B( 48-C , 49-C ) :   1.2054 B( 48-C , 88-H ) :   0.9743 
B( 49-C , 51-C ) :   1.2251 B( 50-C , 89-H ) :   0.9711 

-------
TIMINGS
-------

Total SCF time: 0 days 0 hours 28 min 5 sec 

Total time                  ....    1685.594 sec
Sum of individual times     ....    1681.173 sec  ( 99.7%)

Fock matrix formation       ....    1659.208 sec  ( 98.4%)
Diagonalization             ....       6.850 sec  (  0.4%)
Density matrix formation    ....       0.629 sec  (  0.0%)
Population analysis         ....       0.526 sec  (  0.0%)
Initial guess               ....       2.049 sec  (  0.1%)
Orbital Transformation      ....       0.000 sec  (  0.0%)
Orbital Orthonormalization  ....       0.000 sec  (  0.0%)
DIIS solution               ....       3.493 sec  (  0.2%)
SOSCF solution              ....       7.368 sec  (  0.4%)

Maximum memory used throughout the entire SCF-calculation: 302.6 MB


           ************************************************************
           *        Program running with 16 parallel MPI-processes    *
           *              working on a common directory               *
           ************************************************************

------------------------------------------------------------------------------
                                ORCA  MP2 
------------------------------------------------------------------------------

Freezing NCore=104 chemical core electrons

----------
MP2 ENERGY (disk based algorithm)
----------

Dimension of the basis                    ...  918
Memory devoted to MP2                     ... 2000 MB   
Data format for buffers                   ... DOUBLE
Compression type for matrix containers    ... UNCOMPRESSED

-------------------------------
PARTIAL EXCHANGE TRANSFORMATION
-------------------------------

Transformation type                        ... one-operator
Generation of integrals (i,mue|j,nue)      ... ON
Generation of integrals (mue,kappa|nue,tau)... OFF
Generation of integrals (i,mue|a,nue)      ... OFF
Dimension of the basis                     ...  918
Number of internal MOs                     ...  127 (  52- 178)
Pair cutoff                                ... 2.500e-12 Eh
Number of AO pairs in the trafo            ... 421821
Total Number of distinct AO pairs          ... 421821
Memory devoted for trafo                   ... 2000.0 MB 
Max. Number of MO pairs treated together   ...  311      
Number Format for Storage                  ... Double (8 Byte)
Integral package used                      ... LIBINT

Starting integral evaluation:
    ... done with AO integral generation
Closing buffer AOK     (38.22 GB; CompressionRatio= 1.33)
Collecting buffer AOK 
Number of MO pairs included in the trafo   ... 8128
------------------------
SORTING OF (i,mue|j,nue)
------------------------

IBATCH = 1 of  2
IBATCH = 2 of  2
Closing buffer KAO     (51.03 GB; CompressionRatio= 1.00)
Collecting buffer KAO 
N(AO-Batches) Done                         ...  85583159 
N(AO-Batches) Skipped                      ...  82232504 
N(IJ)-pairs Skipped                        ...         0 
TOTAL TIME for half transformation         ...  3167.454 sec
AO-integral generation                     ...   211.588 sec
Half transformation                        ...   374.417 sec
K-integral sorting                         ...  2409.536 sec
Process 10:   Internal MO 132

Finished integral transformation - now doing MP2 part

OPERATOR COMBINATION   0   0: ij=( 52..178, 52..178)
Process 13:   Internal MO 156
Process  1:   Internal MO  60
Process  7:   Internal MO 108
Process  4:   Internal MO  84
Process  0:   Internal MO  54
Process  0:   Internal MO  57
Process  1:   Internal MO  63
Process  2:   Internal MO  69
Process  3:   Internal MO  78
Process  8:   Internal MO 117
Process  5:   Internal MO  93
Process  1:   Internal MO  66
Process  2:   Internal MO  72
Process  6:   Internal MO 102
Process 11:   Internal MO 141
Process 14:   Internal MO 165
Process  9:   Internal MO 126
Process  4:   Internal MO  87
Process  3:   Internal MO  81
Process  2:   Internal MO  75
Process  7:   Internal MO 111
Process  5:   Internal MO  96
Process 12:   Internal MO 150
Process 15:   Internal MO 174
Process 10:   Internal MO 135
Process  4:   Internal MO  90
Process  6:   Internal MO 105
Process  8:   Internal MO 120
Process  5:   Internal MO  99
Process  7:   Internal MO 114
Process 13:   Internal MO 159
Process 11:   Internal MO 144
Process  9:   Internal MO 129
Process 12:   Internal MO 153
Process 14:   Internal MO 168
Process  8:   Internal MO 123
Process 10:   Internal MO 138
Process 15:   Internal MO 177
Process 11:   Internal MO 147
Process 13:   Internal MO 162
Process 14:   Internal MO 171
-----------------------------------------------
 MP2 CORRELATION ENERGY   :     -7.286575138 Eh
-----------------------------------------------


-------
TIMINGS
-------
Total time                : 3718.973 sec
Integral trafo            : 3169.673 sec ( 85.2%)
K(i,j)                    :    6.205 sec (  0.2%)
T(i,j)                    :    0.097 sec (  0.0%)

---------------------------------------
MP2 TOTAL ENERGY:    -2130.915842020 Eh
---------------------------------------

Maximum memory used throughout the entire MP2-calculation: 2275.2 MB

-------------------------   --------------------
FINAL SINGLE POINT ENERGY     -2130.915842019844
-------------------------   --------------------


                            ***************************************
                            *     ORCA property calculations      *
                            ***************************************


  WARNING: The energy has been calculated at the MP2 level but the densities
           used in the property calculations are still SCF densities
           MP2 response densities have not been calculated 
           use %mp2 Density relaxed end
           or  %mp2 Density unrelaxed end

                                    ---------------------
                                    Active property flags
                                    ---------------------
   (+) Dipole Moment


------------------------------------------------------------------------------
                       ORCA ELECTRIC PROPERTIES CALCULATION
------------------------------------------------------------------------------

Dipole Moment Calculation                       ... on
Quadrupole Moment Calculation                   ... off
Polarizability Calculation                      ... off
GBWName                                         ... /scratch/allen/tmpyp4_amber_gaff2/conf1/conf1/Conf131.orca.gbw
Electron density                                ... /scratch/allen/tmpyp4_amber_gaff2/conf1/conf1/Conf131.orca.scfp
The origin for moment calculation is the CENTER OF MASS  = ( 0.003055, -0.002064  0.002787)

-------------
DIPOLE MOMENT
-------------
                                X             Y             Z
Electronic contribution:      0.88301      -2.42804      -0.21705
Nuclear contribution   :      0.01377       0.19460       0.22886
                        -----------------------------------------
Total Dipole Moment    :      0.89677      -2.23344       0.01181
                        -----------------------------------------
Magnitude (a.u.)       :      2.40678
Magnitude (Debye)      :      6.11755



--------------------
Rotational spectrum 
--------------------
 
Rotational constants in cm-1:     0.001499     0.001476     0.000762 
Rotational constants in MHz :    44.930268    44.237618    22.834452 

 Dipole components along the rotational axes: 
x,y,z [a.u.] :     1.554022    -1.837759     0.015680 
x,y,z [Debye]:     3.950011    -4.671211     0.039855 

 

Timings for individual modules:

Sum of individual times         ...     5428.143 sec (=  90.469 min)
GTO integral calculation        ...        3.240 sec (=   0.054 min)   0.1 %
SCF iterations                  ...     1686.656 sec (=  28.111 min)  31.1 %
MP2 module                      ...     3738.247 sec (=  62.304 min)  68.9 %
                             ****ORCA TERMINATED NORMALLY****
TOTAL RUN TIME: 0 days 1 hours 30 minutes 31 seconds 574 msec
# of primitive gaussian functions

