
                                 *****************
                                 * O   R   C   A *
                                 *****************

                                            #,                                       
                                            ###                                      
                                            ####                                     
                                            #####                                    
                                            ######                                   
                                           ########,                                 
                                     ,,################,,,,,                         
                               ,,#################################,,                 
                          ,,##########################################,,             
                       ,#########################################, ''#####,          
                    ,#############################################,,   '####,        
                  ,##################################################,,,,####,       
                ,###########''''           ''''###############################       
              ,#####''   ,,,,##########,,,,          '''####'''          '####       
            ,##' ,,,,###########################,,,                        '##       
           ' ,,###''''                  '''############,,,                           
         ,,##''                                '''############,,,,        ,,,,,,###''
      ,#''                                            '''#######################'''  
     '                                                          ''''####''''         
             ,#######,   #######,   ,#######,      ##                                
            ,#'     '#,  ##    ##  ,#'     '#,    #''#        ######   ,####,        
            ##       ##  ##   ,#'  ##            #'  '#       #        #'  '#        
            ##       ##  #######   ##           ,######,      #####,   #    #        
            '#,     ,#'  ##    ##  '#,     ,#' ,#      #,         ##   #,  ,#        
             '#######'   ##     ##  '#######'  #'      '#     #####' # '####'        



                  #######################################################
                  #                        -***-                        #
                  #          Department of theory and spectroscopy      #
                  #    Directorship and core code : Frank Neese         #
                  #        Max Planck Institute fuer Kohlenforschung    #
                  #                Kaiser Wilhelm Platz 1               #
                  #                 D-45470 Muelheim/Ruhr               #
                  #                      Germany                        #
                  #                                                     #
                  #                  All rights reserved                #
                  #                        -***-                        #
                  #######################################################


                         Program Version 5.0.4 -  RELEASE  -


 With contributions from (in alphabetic order):
   Daniel Aravena         : Magnetic Suceptibility
   Michael Atanasov       : Ab Initio Ligand Field Theory (pilot matlab implementation)
   Alexander A. Auer      : GIAO ZORA, VPT2 properties, NMR spectrum
   Ute Becker             : Parallelization
   Giovanni Bistoni       : ED, misc. LED, open-shell LED, HFLD
   Martin Brehm           : Molecular dynamics
   Dmytro Bykov           : SCF Hessian
   Vijay G. Chilkuri      : MRCI spin determinant printing, contributions to CSF-ICE
   Dipayan Datta          : RHF DLPNO-CCSD density
   Achintya Kumar Dutta   : EOM-CC, STEOM-CC
   Dmitry Ganyushin       : Spin-Orbit,Spin-Spin,Magnetic field MRCI
   Miquel Garcia          : C-PCM and meta-GGA Hessian, CC/C-PCM, Gaussian charge scheme
   Yang Guo               : DLPNO-NEVPT2, F12-NEVPT2, CIM, IAO-localization
   Andreas Hansen         : Spin unrestricted coupled pair/coupled cluster methods
   Benjamin Helmich-Paris : MC-RPA, TRAH-SCF, COSX integrals
   Lee Huntington         : MR-EOM, pCC
   Robert Izsak           : Overlap fitted RIJCOSX, COSX-SCS-MP3, EOM
   Marcus Kettner         : VPT2
   Christian Kollmar      : KDIIS, OOCD, Brueckner-CCSD(T), CCSD density, CASPT2, CASPT2-K
   Simone Kossmann        : Meta GGA functionals, TD-DFT gradient, OOMP2, MP2 Hessian
   Martin Krupicka        : Initial AUTO-CI
   Lucas Lang             : DCDCAS
   Marvin Lechner         : AUTO-CI (C++ implementation), FIC-MRCC
   Dagmar Lenk            : GEPOL surface, SMD
   Dimitrios Liakos       : Extrapolation schemes; Compound Job, initial MDCI parallelization
   Dimitrios Manganas     : Further ROCIS development; embedding schemes
   Dimitrios Pantazis     : SARC Basis sets
   Anastasios Papadopoulos: AUTO-CI, single reference methods and gradients
   Taras Petrenko         : DFT Hessian,TD-DFT gradient, ASA, ECA, R-Raman, ABS, FL, XAS/XES, NRVS
   Peter Pinski           : DLPNO-MP2, DLPNO-MP2 Gradient
   Christoph Reimann      : Effective Core Potentials
   Marius Retegan         : Local ZFS, SOC
   Christoph Riplinger    : Optimizer, TS searches, QM/MM, DLPNO-CCSD(T), (RO)-DLPNO pert. Triples
   Tobias Risthaus        : Range-separated hybrids, TD-DFT gradient, RPA, STAB
   Michael Roemelt        : Original ROCIS implementation
   Masaaki Saitow         : Open-shell DLPNO-CCSD energy and density
   Barbara Sandhoefer     : DKH picture change effects
   Avijit Sen             : IP-ROCIS
   Kantharuban Sivalingam : CASSCF convergence, NEVPT2, FIC-MRCI
   Bernardo de Souza      : ESD, SOC TD-DFT
   Georgi Stoychev        : AutoAux, RI-MP2 NMR, DLPNO-MP2 response
   Willem Van den Heuvel  : Paramagnetic NMR
   Boris Wezisla          : Elementary symmetry handling
   Frank Wennmohs         : Technical directorship


 We gratefully acknowledge several colleagues who have allowed us to
 interface, adapt or use parts of their codes:
   Stefan Grimme, W. Hujo, H. Kruse, P. Pracht,  : VdW corrections, initial TS optimization,
                  C. Bannwarth, S. Ehlert          DFT functionals, gCP, sTDA/sTD-DF
   Ed Valeev, F. Pavosevic, A. Kumar             : LibInt (2-el integral package), F12 methods
   Garnet Chan, S. Sharma, J. Yang, R. Olivares  : DMRG
   Ulf Ekstrom                                   : XCFun DFT Library
   Mihaly Kallay                                 : mrcc  (arbitrary order and MRCC methods)
   Jiri Pittner, Ondrej Demel                    : Mk-CCSD
   Frank Weinhold                                : gennbo (NPA and NBO analysis)
   Christopher J. Cramer and Donald G. Truhlar   : smd solvation model
   Lars Goerigk                                  : TD-DFT with DH, B97 family of functionals
   V. Asgeirsson, H. Jonsson                     : NEB implementation
   FAccTs GmbH                                   : IRC, NEB, NEB-TS, DLPNO-Multilevel, CI-OPT
                                                   MM, QMMM, 2- and 3-layer-ONIOM, Crystal-QMMM,
                                                   LR-CPCM, SF, NACMEs, symmetry and pop. for TD-DFT,
                                                   nearIR, NL-DFT gradient (VV10), updates on ESD,
                                                   ML-optimized integration grids
   S Lehtola, MJT Oliveira, MAL Marques          : LibXC Library
   Liviu Ungur et al                             : ANISO software


 Your calculation uses the libint2 library for the computation of 2-el integrals
 For citations please refer to: http://libint.valeyev.net

 Your ORCA version has been built with support for libXC version: 5.1.0
 For citations please refer to: https://tddft.org/programs/libxc/

 This ORCA versions uses:
   CBLAS   interface :  Fast vector & matrix operations
   LAPACKE interface :  Fast linear algebra routines
   SCALAPACK package :  Parallel linear algebra routines
   Shared memory     :  Shared parallel matrices
   BLAS/LAPACK       :  OpenBLAS 0.3.15  USE64BITINT DYNAMIC_ARCH NO_AFFINITY Sandybridge SINGLE_THREADED
        Core in use  :  Sandybridge
   Copyright (c) 2011-2014, The OpenBLAS Project


================================================================================

----- Orbital basis set information -----
Your calculation utilizes the basis: cc-pVDZ 
       H, B-Ne : Obtained from the ccRepo (grant-hill.group.shef.ac.uk/ccrepo) Feb. 2017
                 T. H. Dunning, Jr., J. Chem. Phys. 90, 1007 (1989)
            He : Obtained from the ccRepo (grant-hill.group.shef.ac.uk/ccrepo) Feb. 2017
                 D. E. Woon, T. H. Dunning, Jr., J. Chem. Phys. 100, 2975 (1994)
  Li-Be, Na-Mg : Obtained from the ccRepo (grant-hill.group.shef.ac.uk/ccrepo) Feb. 2017
                 B. P. Prascher, D. E. Woon, K. A. Peterson, T. H. Dunning, Jr., A. K. Wilson, Theor. Chem. Acc. 128, 69 (2011)
         Al-Ar : Obtained from the ccRepo (grant-hill.group.shef.ac.uk/ccrepo) Feb. 2017
                 D. E. Woon, T. H. Dunning, Jr., J. Chem. Phys. 98, 1358 (1993)
            Ca : Obtained from the Peterson Research Group Website (tyr0.chem.wsu.edu/~kipeters) Feb. 2017
                 J. Koput, K. A. Peterson, J. Phys. Chem. 106, 9595 (2002)
         Sc-Zn : Obtained from the ccRepo (grant-hill.group.shef.ac.uk/ccrepo) Feb. 2017
                 N. B. Balabanov, K. A. Peterson, J. Chem. Phys. 123, 064107 (2005)
                 N. B. Balabanov, K. A. Peterson, J. Chem. Phys. 125, 074110 (2006)
         Ga-Kr : Obtained from the ccRepo (grant-hill.group.shef.ac.uk/ccrepo) Feb. 2017
                 A. K. Wilson, D. E. Woon, K. A. Peterson, T. H. Dunning, Jr., J. Chem. Phys. 110, 7667 (1999)

================================================================================
                                        WARNINGS
                       Please study these warnings very carefully!
================================================================================


WARNING: No MP2 level density has been requested!
         To caclulate MP2 level properties use
         %mp2 Density relaxed end
         or
         %mp2 Density unrelaxed end

WARNING: Post HF methods need fully converged wavefunctions
  ===> : Setting SCFConvForced true
         You can overwrite this default with %scf ConvForced false 


INFO   : the flag for use of the SHARK integral package has been found!

================================================================================
                                       INPUT FILE
================================================================================
NAME = /scratch/allen/tmpyp4_amber_gaff2/2.Mdgx/conf11/conf11/Conf127.orca
|  1> ! PAL2
|  2> ! mp2 cc-pvdz TightSCF  NoKeepInts
|  3> 
|  4> %scf
|  5>   MaxCore 2000
|  6> end
|  7> %mp2
|  8>   MaxCore 2000
|  9> end
| 10> * xyz 0 1
| 11>    C       -4.54100         5.48400        -0.88000
| 12>    C        1.47400         4.04100         0.05700
| 13>    C       -2.80200         4.09300         0.04900
| 14>    C       -2.63200         5.06200         1.05000
| 15>    C       -3.41600         6.19900         1.05500
| 16>    C       -5.20200         7.60900         0.15300
| 17>    C        0.13200         4.30700         0.06100
| 18>    C       -0.56900         3.05600         0.04700
| 19>    C        1.64900         2.61800         0.02300
| 20>    C       -3.78500         4.32900        -0.92400
| 21>    N       -4.35200         6.39900         0.09700
| 22>    N        0.38800         2.06700         0.02500
| 23>    N       -2.01000         0.39500        -0.07500
| 24>    N       -0.38800        -2.07400        -0.02700
| 25>    N        2.01000        -0.40100         0.06500
| 26>    C       -1.96000         2.86100         0.02400
| 27>    C       -2.62300         1.61500        -0.01800
| 28>    C       -5.57300        -4.32900         1.06600
| 29>    C       -4.07300         1.47100         0.05600
| 30>    C       -4.10600        -2.75600        -0.02600
| 31>    C       -4.99500        -2.75700        -1.11100
| 32>    C       -6.13200        -3.54200        -1.07600
| 33>    C       -7.65100        -5.11300         0.04000
| 34>    C       -4.32400         0.14100         0.03700
| 35>    C       -3.02500        -0.52000        -0.04800
| 36>    C       -4.42200        -3.56600         1.07500
| 37>    N       -6.40700        -4.31300         0.00100
| 38>    C       -2.86700        -1.92200        -0.04000
| 39>    C       -1.65000        -2.62400        -0.02700
| 40>    C        3.56800        -6.14200        -1.04000
| 41>    C       -1.47600        -4.04900        -0.03400
| 42>    C        2.80300        -4.09900        -0.00800
| 43>    C        3.65700        -4.38400         1.06900
| 44>    C        4.42700        -5.53000         1.05900
| 45>    C        5.24500        -7.58800         0.01400
| 46>    C       -0.13400        -4.31500        -0.02200
| 47>    C        0.56800        -3.06400        -0.02700
| 48>    C        2.77500        -5.01200        -1.07400
| 49>    N        4.37600        -6.39100         0.01700
| 50>    C        1.95900        -2.86900        -0.00900
| 51>    C        2.62100        -1.62200         0.00900
| 52>    C        5.54300         4.33900        -1.13000
| 53>    C        4.07000        -1.47900        -0.09400
| 54>    C        4.10400         2.75100        -0.02100
| 55>    C        5.02700         2.72900         1.03600
| 56>    C        6.16600         3.50900         0.97800
| 57>    C        7.61900         5.15300        -0.11500
| 58>    C        4.32100        -0.14800        -0.09200
| 59>    C        3.02500         0.51400         0.01500
| 60>    C        4.38700         3.58200        -1.11500
| 61>    C        2.86600         1.91600         0.01300
| 62>    N        6.41300         4.29600        -0.09500
| 63>    H       -5.30200         5.71300        -1.61700
| 64>    H        2.27400         4.76600         0.08100
| 65>    H       -1.89600         4.93300         1.83400
| 66>    H       -3.32800         6.96900         1.81000
| 67>    H       -6.05800         7.41300         0.80200
| 68>    H       -4.61200         8.43500         0.55000
| 69>    H       -5.54200         7.84400        -0.85500
| 70>    H       -0.33200         5.28200         0.06900
| 71>    H       -3.95500         3.62500        -1.73100
| 72>    H        0.18200         1.07200         0.00500
| 73>    H       -0.18300        -1.08000        -0.02100
| 74>    H       -5.86400        -4.96200         1.89500
| 75>    H       -4.79400         2.27200         0.13900
| 76>    H       -4.80000        -2.16000        -1.99400
| 77>    H       -6.84100        -3.58200        -1.89300
| 78>    H       -8.42800        -4.53600         0.54600
| 79>    H       -7.95600        -5.33700        -0.98100
| 80>    H       -7.45600        -6.03700         0.58400
| 81>    H       -5.28700        -0.34400         0.10000
| 82>    H       -3.78000        -3.60100         1.94700
| 83>    H        3.58700        -6.86800        -1.84300
| 84>    H       -2.27600        -4.77400        -0.05000
| 85>    H        3.71400        -3.72400         1.92600
| 86>    H        5.09200        -5.79500         1.87100
| 87>    H        6.20500        -7.32900        -0.43900
| 88>    H        5.39300        -7.91700         1.04200
| 89>    H        4.75900        -8.37300        -0.56400
| 90>    H        0.32900        -5.29000        -0.00800
| 91>    H        2.14600        -4.84200        -1.94000
| 92>    H        5.80800         4.98600        -1.95600
| 93>    H        4.78800        -2.28100        -0.18500
| 94>    H        4.86000         2.11400         1.91200
| 95>    H        6.90100         3.53100         1.77200
| 96>    H        7.38300         6.10900         0.35600
| 97>    H        8.41400         4.65200         0.43500
| 98>    H        7.92100         5.31000        -1.15000
| 99>    H        5.28300         0.33600        -0.17900
|100>    H        3.72000         3.63200        -1.96700
|101> *
|102> 
|103>                          ****END OF INPUT****
================================================================================

                       ****************************
                       * Single Point Calculation *
                       ****************************

---------------------------------
CARTESIAN COORDINATES (ANGSTROEM)
---------------------------------
  C     -4.541000    5.484000   -0.880000
  C      1.474000    4.041000    0.057000
  C     -2.802000    4.093000    0.049000
  C     -2.632000    5.062000    1.050000
  C     -3.416000    6.199000    1.055000
  C     -5.202000    7.609000    0.153000
  C      0.132000    4.307000    0.061000
  C     -0.569000    3.056000    0.047000
  C      1.649000    2.618000    0.023000
  C     -3.785000    4.329000   -0.924000
  N     -4.352000    6.399000    0.097000
  N      0.388000    2.067000    0.025000
  N     -2.010000    0.395000   -0.075000
  N     -0.388000   -2.074000   -0.027000
  N      2.010000   -0.401000    0.065000
  C     -1.960000    2.861000    0.024000
  C     -2.623000    1.615000   -0.018000
  C     -5.573000   -4.329000    1.066000
  C     -4.073000    1.471000    0.056000
  C     -4.106000   -2.756000   -0.026000
  C     -4.995000   -2.757000   -1.111000
  C     -6.132000   -3.542000   -1.076000
  C     -7.651000   -5.113000    0.040000
  C     -4.324000    0.141000    0.037000
  C     -3.025000   -0.520000   -0.048000
  C     -4.422000   -3.566000    1.075000
  N     -6.407000   -4.313000    0.001000
  C     -2.867000   -1.922000   -0.040000
  C     -1.650000   -2.624000   -0.027000
  C      3.568000   -6.142000   -1.040000
  C     -1.476000   -4.049000   -0.034000
  C      2.803000   -4.099000   -0.008000
  C      3.657000   -4.384000    1.069000
  C      4.427000   -5.530000    1.059000
  C      5.245000   -7.588000    0.014000
  C     -0.134000   -4.315000   -0.022000
  C      0.568000   -3.064000   -0.027000
  C      2.775000   -5.012000   -1.074000
  N      4.376000   -6.391000    0.017000
  C      1.959000   -2.869000   -0.009000
  C      2.621000   -1.622000    0.009000
  C      5.543000    4.339000   -1.130000
  C      4.070000   -1.479000   -0.094000
  C      4.104000    2.751000   -0.021000
  C      5.027000    2.729000    1.036000
  C      6.166000    3.509000    0.978000
  C      7.619000    5.153000   -0.115000
  C      4.321000   -0.148000   -0.092000
  C      3.025000    0.514000    0.015000
  C      4.387000    3.582000   -1.115000
  C      2.866000    1.916000    0.013000
  N      6.413000    4.296000   -0.095000
  H     -5.302000    5.713000   -1.617000
  H      2.274000    4.766000    0.081000
  H     -1.896000    4.933000    1.834000
  H     -3.328000    6.969000    1.810000
  H     -6.058000    7.413000    0.802000
  H     -4.612000    8.435000    0.550000
  H     -5.542000    7.844000   -0.855000
  H     -0.332000    5.282000    0.069000
  H     -3.955000    3.625000   -1.731000
  H      0.182000    1.072000    0.005000
  H     -0.183000   -1.080000   -0.021000
  H     -5.864000   -4.962000    1.895000
  H     -4.794000    2.272000    0.139000
  H     -4.800000   -2.160000   -1.994000
  H     -6.841000   -3.582000   -1.893000
  H     -8.428000   -4.536000    0.546000
  H     -7.956000   -5.337000   -0.981000
  H     -7.456000   -6.037000    0.584000
  H     -5.287000   -0.344000    0.100000
  H     -3.780000   -3.601000    1.947000
  H      3.587000   -6.868000   -1.843000
  H     -2.276000   -4.774000   -0.050000
  H      3.714000   -3.724000    1.926000
  H      5.092000   -5.795000    1.871000
  H      6.205000   -7.329000   -0.439000
  H      5.393000   -7.917000    1.042000
  H      4.759000   -8.373000   -0.564000
  H      0.329000   -5.290000   -0.008000
  H      2.146000   -4.842000   -1.940000
  H      5.808000    4.986000   -1.956000
  H      4.788000   -2.281000   -0.185000
  H      4.860000    2.114000    1.912000
  H      6.901000    3.531000    1.772000
  H      7.383000    6.109000    0.356000
  H      8.414000    4.652000    0.435000
  H      7.921000    5.310000   -1.150000
  H      5.283000    0.336000   -0.179000
  H      3.720000    3.632000   -1.967000

----------------------------
CARTESIAN COORDINATES (A.U.)
----------------------------
  NO LB      ZA    FRAG     MASS         X           Y           Z
   0 C     6.0000    0    12.011   -8.581246   10.363258   -1.662959
   1 C     6.0000    0    12.011    2.785456    7.636383    0.107714
   2 C     6.0000    0    12.011   -5.295013    7.734649    0.092597
   3 C     6.0000    0    12.011   -4.973759    9.565794    1.984212
   4 C     6.0000    0    12.011   -6.455304   11.714412    1.993661
   5 C     6.0000    0    12.011   -9.830355   14.378926    0.289128
   6 C     6.0000    0    12.011    0.249444    8.139050    0.115273
   7 C     6.0000    0    12.011   -1.075254    5.775003    0.088817
   8 C     6.0000    0    12.011    3.116158    4.947303    0.043464
   9 C     6.0000    0    12.011   -7.152613    8.180624   -1.746107
  10 N     7.0000    0    14.007   -8.224088   12.092358    0.183303
  11 N     7.0000    0    14.007    0.733214    3.906064    0.047243
  12 N     7.0000    0    14.007   -3.798350    0.746442   -0.141729
  13 N     7.0000    0    14.007   -0.733214   -3.919292   -0.051023
  14 N     7.0000    0    14.007    3.798350   -0.757780    0.122832
  15 C     6.0000    0    12.011   -3.703863    5.406506    0.045353
  16 C     6.0000    0    12.011   -4.956752    3.051908   -0.034015
  17 C     6.0000    0    12.011  -10.531444   -8.180624    2.014448
  18 C     6.0000    0    12.011   -7.696855    2.779787    0.105825
  19 C     6.0000    0    12.011   -7.759216   -5.208085   -0.049133
  20 C     6.0000    0    12.011   -9.439182   -5.209975   -2.099486
  21 C     6.0000    0    12.011  -11.587801   -6.693410   -2.033345
  22 C     6.0000    0    12.011  -14.458295   -9.662170    0.075589
  23 C     6.0000    0    12.011   -8.171176    0.266451    0.069920
  24 C     6.0000    0    12.011   -5.716422   -0.982658   -0.090707
  25 C     6.0000    0    12.011   -8.356369   -6.738763    2.031456
  26 N     7.0000    0    14.007  -12.107475   -8.150389    0.001890
  27 C     6.0000    0    12.011   -5.417845   -3.632054   -0.075589
  28 C     6.0000    0    12.011   -3.118048   -4.958641   -0.051023
  29 C     6.0000    0    12.011    6.742543  -11.606698   -1.965315
  30 C     6.0000    0    12.011   -2.789236   -7.651501   -0.064251
  31 C     6.0000    0    12.011    5.296902   -7.745987   -0.015118
  32 C     6.0000    0    12.011    6.910728   -8.284559    2.020117
  33 C     6.0000    0    12.011    8.365818  -10.450186    2.001220
  34 C     6.0000    0    12.011    9.911614  -14.339242    0.026456
  35 C     6.0000    0    12.011   -0.253223   -8.154168   -0.041574
  36 C     6.0000    0    12.011    1.073364   -5.790121   -0.051023
  37 C     6.0000    0    12.011    5.243990   -9.471307   -2.029566
  38 N     7.0000    0    14.007    8.269442  -12.077240    0.032125
  39 C     6.0000    0    12.011    3.701973   -5.421624   -0.017008
  40 C     6.0000    0    12.011    4.952972   -3.065136    0.017008
  41 C     6.0000    0    12.011   10.474752    8.199522   -2.135391
  42 C     6.0000    0    12.011    7.691185   -2.794905   -0.177634
  43 C     6.0000    0    12.011    7.755436    5.198637   -0.039684
  44 C     6.0000    0    12.011    9.499653    5.157063    1.957756
  45 C     6.0000    0    12.011   11.652051    6.631049    1.848152
  46 C     6.0000    0    12.011   14.397823    9.737759   -0.217319
  47 C     6.0000    0    12.011    8.165507   -0.279679   -0.173855
  48 C     6.0000    0    12.011    5.716422    0.971319    0.028346
  49 C     6.0000    0    12.011    8.290229    6.768999   -2.107045
  50 C     6.0000    0    12.011    5.415955    3.620715    0.024566
  51 N     7.0000    0    14.007   12.118814    8.118263   -0.179524
  52 H     1.0000    0     1.008  -10.019328   10.796005   -3.055687
  53 H     1.0000    0     1.008    4.297237    9.006435    0.153068
  54 H     1.0000    0     1.008   -3.582921    9.322019    3.465758
  55 H     1.0000    0     1.008   -6.289009   13.169501    3.420404
  56 H     1.0000    0     1.008  -11.447961   14.008540    1.515560
  57 H     1.0000    0     1.008   -8.715417   15.939840    1.039349
  58 H     1.0000    0     1.008  -10.472862   14.823012   -1.615716
  59 H     1.0000    0     1.008   -0.627389    9.981533    0.130391
  60 H     1.0000    0     1.008   -7.473867    6.850257   -3.271116
  61 H     1.0000    0     1.008    0.343930    2.025786    0.009449
  62 H     1.0000    0     1.008   -0.345820   -2.040904   -0.039684
  63 H     1.0000    0     1.008  -11.081354   -9.376821    3.581031
  64 H     1.0000    0     1.008   -9.059347    4.293458    0.262672
  65 H     1.0000    0     1.008   -9.070685   -4.081808   -3.768114
  66 H     1.0000    0     1.008  -12.927616   -6.768999   -3.577252
  67 H     1.0000    0     1.008  -15.926612   -8.571798    1.031790
  68 H     1.0000    0     1.008  -15.034661  -10.085468   -1.853821
  69 H     1.0000    0     1.008  -14.089798  -11.408277    1.103600
  70 H     1.0000    0     1.008   -9.990982   -0.650066    0.188973
  71 H     1.0000    0     1.008   -7.143165   -6.804904    3.679297
  72 H     1.0000    0     1.008    6.778448  -12.978639   -3.482765
  73 H     1.0000    0     1.008   -4.301017   -9.021553   -0.094486
  74 H     1.0000    0     1.008    7.018443   -7.037340    3.639613
  75 H     1.0000    0     1.008    9.622485  -10.950963    3.535678
  76 H     1.0000    0     1.008   11.725751  -13.849803   -0.829590
  77 H     1.0000    0     1.008   10.191293  -14.960962    1.969095
  78 H     1.0000    0     1.008    8.993207  -15.822677   -1.065806
  79 H     1.0000    0     1.008    0.621720   -9.996651   -0.015118
  80 H     1.0000    0     1.008    4.055352   -9.150054   -3.666069
  81 H     1.0000    0     1.008   10.975529    9.422175   -3.696304
  82 H     1.0000    0     1.008    9.048009   -4.310465   -0.349599
  83 H     1.0000    0     1.008    9.184069    3.994881    3.613156
  84 H     1.0000    0     1.008   13.041000    6.672623    3.348595
  85 H     1.0000    0     1.008   13.951848   11.544337    0.672743
  86 H     1.0000    0     1.008   15.900156    8.791006    0.822031
  87 H     1.0000    0     1.008   14.968521   10.034446   -2.173185
  88 H     1.0000    0     1.008    9.983423    0.634948   -0.338261
  89 H     1.0000    0     1.008    7.029781    6.863485   -3.717091

--------------------------------
INTERNAL COORDINATES (ANGSTROEM)
--------------------------------
 C      0   0   0     0.000000000000     0.00000000     0.00000000
 C      1   0   0     6.256232332642     0.00000000     0.00000000
 C      1   2   0     2.412891004584    27.92600495     0.00000000
 C      3   1   2     1.403517723436    87.93005419    78.17085765
 C      4   3   1     1.381104630359   120.14603716     0.10413371
 C      5   4   3     2.447754072614   152.50922168     1.71619813
 C      2   1   3     1.368114030335     9.06994208   317.68309673
 C      7   2   3     1.434084376876   108.05010202     0.84668783
 C      2   1   3     1.434123425651   110.03724290    37.70518091
 C      1   2   3     1.381121645620    44.40671358   315.34986617
 N      1   2   3     1.351841336844    85.03519086   100.82712163
 N      9   2   1     1.376127174356   106.58526707   349.83022352
 N     12   9   2     2.925062050624   168.53581413   171.12065651
 N     13  12   9     2.954513327098    91.55032014    11.12112580
 N     14  13  12     2.925371258490    88.43092389   359.84326247
 C      8   7   2     1.404790019896   127.24786865   181.11170171
 C     13  12   9     1.366535034311    81.72106996   188.00453233
 C     14  13  12     5.758810554272    80.56209567   166.76250791
 C     17  13  12     1.459010623676   111.08861209   183.82872609
 C     18  14  13     2.412235892279    27.27532823    36.33507194
 C     20  18  14     1.402692767501    87.95206320   148.94598259
 C     21  20  18     1.382106725257   120.14573887   359.70382047
 C     18  14  13     2.446510985056   144.15733107    82.80075377
 C     19  17  13     1.353610726908   106.29293361   359.75308708
 C     13  12   9     1.366813447402   172.21332906    33.46711076
 C     18  14  13     1.380960173213    15.08449437   309.23336894
 N     22  21  20     1.352773077792   120.73759875     0.27865223
 C     25  13  17     1.410897586645   125.60330303   182.37774668
 C     14  13  12     1.376642291955    80.24689249   177.85461986
 C     14  13  12     5.764089607215   164.51507311   312.20821879
 C     29  14  13     1.435600919476   106.58649366   178.76395472
 C     30  14  13     2.413316804732    27.10625047    82.12560436
 C     32  30  14     1.403734305344    87.90059683   149.76154742
 C     33  32  30     1.380694028378   120.14881443   359.74174632
 C     34  33  32     2.448777858443   152.49203239     2.45173620
 C     31  29  14     1.368160809262   108.16950133     0.70383075
 C     14  13  12     1.376239804685   169.26375223   353.09862627
 C     30  14  13     1.380907310430    14.68948582   353.70041132
 N     34  33  32     1.352658863128   120.85575621     0.19603406
 C     37  14  29     1.404717053360   126.01551127   180.90772073
 C     15  14  13     1.366491126938    81.61824056   183.09049352
 C      2   1   3     4.249062720177   149.61914903   158.28151400
 C     41  15  14     1.459677704153   111.05201287   175.08990246
 C     42   2   1     2.412953791518    41.78584867   210.45319353
 C     44  42   2     1.403446472082    87.95153797   233.97558675
 C     45  44  42     1.381696421071   120.11137308     0.19721020
 C     42   2   1     2.450019795838   135.97209175   120.76804263
 C     43  41  15     1.354461516618   106.26758155     0.30894352
 C     15  14  13     1.367461151185   171.87382904   332.35056460
 C     42   2   1     1.381886391857    32.59078432   259.30847272
 C      9   2   1     1.404988612053   126.98745415   170.83456105
 N     42   2   1     1.352765315936   113.57249190   148.50463182
 H      1   2   3     1.083850081884   145.65218054   232.69302310
 H      2   1   3     1.079907866440   124.10562610   208.74626434
 H      4   3   1     1.083048013709   121.08822652   179.57399356
 H      5   4   3     1.081974583805   122.83593033   179.44215333
 H      6   5   4     1.091949174641   104.45210287   100.04831684
 H      6   5   4     1.089947246430    84.68411706   209.47970307
 H      6   5   4     1.089444353788   133.86175501   322.28616581
 H      7   2  54     1.079807853278   126.66122480     1.30600390
 H     10   1   2     1.084326980205   118.74062912   221.99851015
 H     12   9   2     1.016297692608   125.29023241   180.00180175
 H     14  13  12     1.014936943854    44.97226959   359.42596618
 H     18  14  13     1.082871645210   128.03556573   234.20482432
 H     19  17  13     1.080893611786   126.41830519   178.11313280
 H     21  20  18     1.083569563987   121.05669627   180.67006309
 H     22  21  20     1.082483256222   122.73097286   180.59748951
 H     23  18  14     1.092105306278   103.92715769   234.93429879
 H     23  18  14     1.088871893291   134.19244188    12.25587044
 H     23  18  14     1.089833473518    84.85857450   125.45241208
 H     24  19  17     1.080075460327   127.28078426   178.44613241
 H     26  18  14     1.083408048706   118.76995697   244.94906660
 H     30  14  13     1.082703098730   127.99711412   279.66882698
 H     31  29  14     1.079759695488   125.22293469   180.92530585
 H     33  32  30     1.083188810873   121.01964473   180.74284758
 H     34  33  32     1.082494341787   122.70821597   180.59516895
 H     35  34  33     1.092652735319   105.73575241    97.19771933
 H     35  34  33     1.089462711615    84.05943581   206.43036958
 H     35  34  33     1.089268102902   133.08365142   318.50306270
 H     36  31  29     1.079439669458   126.61599965   178.98859863
 H     38  30  73     1.083742127999   118.77264435   359.90091293
 H     42   2   1     1.082178358682   119.31790784     5.13616228
 H     43  41  15     1.080281907652   126.36969097   182.06329380
 H     45  44  42     1.083277434455   121.10105945   179.58025624
 H     46  45  44     1.082194529648   122.72144639   179.46906377
 H     47  42   2     1.091546151109   106.65128841   315.16475048
 H     47  42   2     1.088818625851   132.46019523    94.52397119
 H     47  42   2     1.089531091801    83.63838232   206.04504406
 H     48  43  41     1.080402239909   127.23657387   181.62955349
 H     50  42   2     1.083186502870   118.77001737    94.71359229

---------------------------
INTERNAL COORDINATES (A.U.)
---------------------------
 C      0   0   0     0.000000000000     0.00000000     0.00000000
 C      1   0   0    11.822565738877     0.00000000     0.00000000
 C      1   2   0     4.559703189665    27.92600495     0.00000000
 C      3   1   2     2.652264121399    87.93005419    78.17085765
 C      4   3   1     2.609909513670   120.14603716     0.10413371
 C      5   4   3     4.625584840431   152.50922168     1.71619813
 C      2   1   3     2.585360837309     9.06994208   317.68309673
 C      7   2   3     2.710026725231   108.05010202     0.84668783
 C      2   1   3     2.710100516721   110.03724290    37.70518091
 C      1   2   3     2.609941667852    44.40671358   315.34986617
 N      1   2   3     2.554609903149    85.03519086   100.82712163
 N      9   2   1     2.600503484979   106.58526707   349.83022352
 N     12   9   2     5.527566200405   168.53581413   171.12065651
 N     13  12   9     5.583221047236    91.55032014    11.12112580
 N     14  13  12     5.528150518591    88.43092389   359.84326247
 C      8   7   2     2.654668413270   127.24786865   181.11170171
 C     13  12   9     2.582376967257    81.72106996   188.00453233
 C     14  13  12    10.882574804710    80.56209567   166.76250791
 C     17  13  12     2.757130505230   111.08861209   183.82872609
 C     18  14  13     4.558465206823    27.27532823    36.33507194
 C     20  18  14     2.650705180609    87.95206320   148.94598259
 C     21  20  18     2.611803198586   120.14573887   359.70382047
 C     18  14  13     4.623235745386   144.15733107    82.80075377
 C     19  17  13     2.557953565794   106.29293361   359.75308708
 C     13  12   9     2.582903091751   172.21332906    33.46711076
 C     18  14  13     2.609636529225    15.08449437   309.23336894
 N     22  21  20     2.556370638369   120.73759875     0.27865223
 C     25  13  17     2.666210041769   125.60330303   182.37774668
 C     14  13  12     2.601476916169    80.24689249   177.85461986
 C     14  13  12    10.892550769017   164.51507311   312.20821879
 C     29  14  13     2.712892575415   106.58649366   178.76395472
 C     30  14  13     4.560507835333    27.10625047    82.12560436
 C     32  30  14     2.652673401891    87.90059683   149.76154742
 C     33  32  30     2.609133588376   120.14881443   359.74174632
 C     34  33  32     4.627519515267   152.49203239     2.45173620
 C     31  29  14     2.585449236669   108.16950133     0.70383075
 C     14  13  12     2.600716325456   169.26375223   353.09862627
 C     30  14  13     2.609536633043    14.68948582   353.70041132
 N     34  33  32     2.556154803934   120.85575621     0.19603406
 C     37  14  29     2.654530526499   126.01551127   180.90772073
 C     15  14  13     2.582293994346    81.61824056   183.09049352
 C      2   1   3     8.029564866989   149.61914903   158.28151400
 C     41  15  14     2.758391104639   111.05201287   175.08990246
 C     42   2   1     4.559821839776    41.78584867   210.45319353
 C     44  42   2     2.652129475853    87.95153797   233.97558675
 C     45  44  42     2.611027836043   120.11137308     0.19721020
 C     42   2   1     4.629866436820   135.97209175   120.76804263
 C     43  41  15     2.559561325344   106.26758155     0.30894352
 C     15  14  13     2.584127074516   171.87382904   332.35056460
 C     42   2   1     2.611386828803    32.59078432   259.30847272
 C      9   2   1     2.655043698059   126.98745415   170.83456105
 N     42   2   1     2.556355970587   113.57249190   148.50463182
 H      1   2   3     2.048179824989   145.65218054   232.69302310
 H      2   1   3     2.040730117440   124.10562610   208.74626434
 H      4   3   1     2.046664135798   121.08822652   179.57399356
 H      5   4   3     2.044635647255   122.83593033   179.44215333
 H      6   5   4     2.063484892234   104.45210287   100.04831684
 H      6   5   4     2.059701796174    84.68411706   209.47970307
 H      6   5   4     2.058751466806   133.86175501   322.28616581
 H      7   2  54     2.040541119952   126.66122480     1.30600390
 H     10   1   2     2.049081032209   118.74062912   221.99851015
 H     12   9   2     1.920524309565   125.29023241   180.00180175
 H     14  13  12     1.917952867083    44.97226959   359.42596618
 H     18  14  13     2.046330847636   128.03556573   234.20482432
 H     19  17  13     2.042592906181   126.41830519   178.11313280
 H     21  20  18     2.047649722989   121.05669627   180.67006309
 H     22  21  20     2.045596898814   122.73097286   180.59748951
 H     23  18  14     2.063779938267   103.92715769   234.93429879
 H     23  18  14     2.057669673245   134.19244188    12.25587044
 H     23  18  14     2.059486796529    84.85857450   125.45241208
 H     24  19  17     2.041046823986   127.28078426   178.44613241
 H     26  18  14     2.047344503340   118.76995697   244.94906660
 H     30  14  13     2.046012340948   127.99711412   279.66882698
 H     31  29  14     2.040450114918   125.22293469   180.92530585
 H     33  32  30     2.046930203877   121.01964473   180.74284758
 H     34  33  32     2.045617847496   122.70821597   180.59516895
 H     35  34  33     2.064814429233   105.73575241    97.19771933
 H     35  34  33     2.058786158072    84.05943581   206.43036958
 H     35  34  33     2.058418400901   133.08365142   318.50306270
 H     36  31  29     2.039845353366   126.61599965   178.98859863
 H     38  30  73     2.047975821711   118.77264435   359.90091293
 H     42   2   1     2.045020725966   119.31790784     5.13616228
 H     43  41  15     2.041436952892   126.36969097   182.06329380
 H     45  44  42     2.047097678177   121.10105945   179.58025624
 H     46  45  44     2.045051284662   122.72144639   179.46906377
 H     47  42   2     2.062723288131   106.65128841   315.16475048
 H     47  42   2     2.057569012371   132.46019523    94.52397119
 H     47  42   2     2.058915377895    83.63838232   206.04504406
 H     48  43  41     2.041664347903   127.23657387   181.62955349
 H     50  42   2     2.046925842384   118.77001737    94.71359229

---------------------
BASIS SET INFORMATION
---------------------
There are 3 groups of distinct atoms

 Group   1 Type C   : 17s4p1d contracted to 3s2p1d pattern {881/31/1}
 Group   2 Type N   : 17s4p1d contracted to 3s2p1d pattern {881/31/1}
 Group   3 Type H   : 4s1p contracted to 2s1p pattern {31/1}

Atom   0C    basis set group =>   1
Atom   1N    basis set group =>   2
Atom   2C    basis set group =>   1
Atom   3N    basis set group =>   2
Atom   4C    basis set group =>   1
Atom   5N    basis set group =>   2
Atom   6C    basis set group =>   1
Atom   7N    basis set group =>   2
Atom   8C    basis set group =>   1
Atom   9N    basis set group =>   2
Atom  10C    basis set group =>   1
Atom  11N    basis set group =>   2
Atom  12C    basis set group =>   1
Atom  13N    basis set group =>   2
Atom  14C    basis set group =>   1
Atom  15N    basis set group =>   2
Atom  16C    basis set group =>   1
Atom  17C    basis set group =>   1
Atom  18C    basis set group =>   1
Atom  19C    basis set group =>   1
Atom  20C    basis set group =>   1
Atom  21C    basis set group =>   1
Atom  22C    basis set group =>   1
Atom  23C    basis set group =>   1
Atom  24C    basis set group =>   1
Atom  25C    basis set group =>   1
Atom  26C    basis set group =>   1
Atom  27C    basis set group =>   1
Atom  28C    basis set group =>   1
Atom  29C    basis set group =>   1
Atom  30C    basis set group =>   1
Atom  31C    basis set group =>   1
Atom  32C    basis set group =>   1
Atom  33C    basis set group =>   1
Atom  34C    basis set group =>   1
Atom  35C    basis set group =>   1
Atom  36C    basis set group =>   1
Atom  37C    basis set group =>   1
Atom  38C    basis set group =>   1
Atom  39C    basis set group =>   1
Atom  40C    basis set group =>   1
Atom  41C    basis set group =>   1
Atom  42C    basis set group =>   1
Atom  43C    basis set group =>   1
Atom  44C    basis set group =>   1
Atom  45C    basis set group =>   1
Atom  46C    basis set group =>   1
Atom  47C    basis set group =>   1
Atom  48C    basis set group =>   1
Atom  49C    basis set group =>   1
Atom  50C    basis set group =>   1
Atom  51C    basis set group =>   1
Atom  52H    basis set group =>   3
Atom  53H    basis set group =>   3
Atom  54H    basis set group =>   3
Atom  55H    basis set group =>   3
Atom  56H    basis set group =>   3
Atom  57H    basis set group =>   3
Atom  58H    basis set group =>   3
Atom  59H    basis set group =>   3
Atom  60H    basis set group =>   3
Atom  61H    basis set group =>   3
Atom  62H    basis set group =>   3
Atom  63H    basis set group =>   3
Atom  64H    basis set group =>   3
Atom  65H    basis set group =>   3
Atom  66H    basis set group =>   3
Atom  67H    basis set group =>   3
Atom  68H    basis set group =>   3
Atom  69H    basis set group =>   3
Atom  70H    basis set group =>   3
Atom  71H    basis set group =>   3
Atom  72H    basis set group =>   3
Atom  73H    basis set group =>   3
Atom  74H    basis set group =>   3
Atom  75H    basis set group =>   3
Atom  76H    basis set group =>   3
Atom  77H    basis set group =>   3
Atom  78H    basis set group =>   3
Atom  79H    basis set group =>   3
Atom  80H    basis set group =>   3
Atom  81H    basis set group =>   3
Atom  82H    basis set group =>   3
Atom  83H    basis set group =>   3
Atom  84H    basis set group =>   3
Atom  85H    basis set group =>   3
Atom  86H    basis set group =>   3
Atom  87H    basis set group =>   3
Atom  88H    basis set group =>   3
Atom  89H    basis set group =>   3


           ************************************************************
           *        Program running with 16 parallel MPI-processes    *
           *              working on a common directory               *
           ************************************************************
------------------------------------------------------------------------------
                           ORCA GTO INTEGRAL CALCULATION
------------------------------------------------------------------------------
------------------------------------------------------------------------------
                   ___                                                        
                  /   \      - P O W E R E D   B Y -                         
                 /     \                                                     
                 |  |  |   _    _      __       _____    __    __             
                 |  |  |  | |  | |    /  \     |  _  \  |  |  /  |          
                  \  \/   | |  | |   /    \    | | | |  |  | /  /          
                 / \  \   | |__| |  /  /\  \   | |_| |  |  |/  /          
                |  |  |   |  __  | /  /__\  \  |    /   |      \           
                |  |  |   | |  | | |   __   |  |    \   |  |\   \          
                \     /   | |  | | |  |  |  |  | |\  \  |  | \   \       
                 \___/    |_|  |_| |__|  |__|  |_| \__\ |__|  \__/        
                                                                              
                      - O R C A' S   B I G   F R I E N D -                    
                                      &                                       
                       - I N T E G R A L  F E E D E R -                       
                                                                              
 v1 FN, 2020, v2 2021                                                         
------------------------------------------------------------------------------


Reading SHARK input file /scratch/allen/tmpyp4_amber_gaff2/conf1/conf1/Conf127.orca.SHARKINP.tmp ... ok
----------------------
SHARK INTEGRAL PACKAGE
----------------------

Number of atoms                             ...     90
Number of basis functions                   ...   1230
Number of shells                            ...    738
Maximum angular momentum                    ...      2
Integral batch strategy                     ... SHARK/LIBINT Hybrid
RI-J (if used) integral strategy            ... SPLIT-RIJ (Revised 2003 algorithm where possible)
Printlevel                                  ...      1
Contraction scheme used                     ... PARTIAL GENERAL contraction
Coulomb Range Separation                    ... NOT USED
Exchange Range Separation                   ... NOT USED
Finite Nucleus Model                        ... NOT USED
Auxiliary Coulomb fitting basis             ... NOT available
Auxiliary J/K fitting basis                 ... NOT available
Auxiliary Correlation fitting basis         ... NOT available
Auxiliary 'external' fitting basis          ... NOT available
Integral threshold                          ...     2.500000e-11
Primitive cut-off                           ...     2.500000e-12
Primitive pair pre-selection threshold      ...     2.500000e-12

Calculating pre-screening integrals         ... done (  0.1 sec) Dimension = 738
Calculating pre-screening integrals (ORCA)  ... done (  0.3 sec) Dimension = 426
Organizing shell pair data                  ... done (  0.8 sec)
Shell pair information
Total number of shell pairs                 ...    272691
Shell pairs after pre-screening             ...     71596
Total number of primitive shell pairs       ...    422091
Primitive shell pairs kept                  ...     92356
          la=0 lb=0:  29411 shell pairs
          la=1 lb=0:  25963 shell pairs
          la=1 lb=1:   4701 shell pairs
          la=2 lb=0:   7868 shell pairs
          la=2 lb=1:   3122 shell pairs
          la=2 lb=2:    531 shell pairs

Calculating one electron integrals          ... done (  0.3 sec)
Calculating Nuclear repulsion               ... done (  0.0 sec) ENN=   6225.647967072974 Eh

SHARK setup successfully completed in   2.2 seconds

Maximum memory used throughout the entire GTOINT-calculation: 98.9 MB


           ************************************************************
           *        Program running with 16 parallel MPI-processes    *
           *              working on a common directory               *
           ************************************************************
-------------------------------------------------------------------------------
                                 ORCA SCF
-------------------------------------------------------------------------------

------------
SCF SETTINGS
------------
Hamiltonian:
 Ab initio Hamiltonian  Method          .... Hartree-Fock(GTOs)


General Settings:
 Integral files         IntName         .... /scratch/allen/tmpyp4_amber_gaff2/conf1/conf1/Conf127.orca
 Hartree-Fock type      HFTyp           .... RHF
 Total Charge           Charge          ....    0
 Multiplicity           Mult            ....    1
 Number of Electrons    NEL             ....  358
 Basis Dimension        Dim             ....  918
 Nuclear Repulsion      ENuc            ....   6225.6479670730 Eh

Convergence Acceleration:
 DIIS                   CNVDIIS         .... on
   Start iteration      DIISMaxIt       ....    12
   Startup error        DIISStart       ....  0.200000
   # of expansion vecs  DIISMaxEq       ....     5
   Bias factor          DIISBfac        ....   1.050
   Max. coefficient     DIISMaxC        ....  10.000
 Trust-Rad. Augm. Hess. CNVTRAH         .... auto
   Auto Start mean grad. ratio tolernc. ....  1.125000
   Auto Start start iteration           ....    20
   Auto Start num. interpolation iter.  ....    10
   Max. Number of Micro iterations      ....    16
   Max. Number of Macro iterations      .... Maxiter - #DIIS iter
   Number of Davidson start vectors     ....     2
   Converg. threshold I  (grad. norm)   ....   1.000e-05
   Converg. threshold II (energy diff.) ....   1.000e-08
   Grad. Scal. Fac. for Micro threshold ....   0.100
   Minimum threshold for Micro iter.    ....   0.010
   NR start threshold (gradient norm)   ....   0.001
   Initial trust radius                 ....   0.400
   Minimum AH scaling param. (alpha)    ....   1.000
   Maximum AH scaling param. (alpha)    .... 1000.000
   Orbital update algorithm             .... Taylor
   White noise on init. David. guess    .... on
   Maximum white noise                  ....   0.010
   Quad. conv. algorithm                .... NR
 SOSCF                  CNVSOSCF        .... on
   Start iteration      SOSCFMaxIt      ....   150
   Startup grad/error   SOSCFStart      ....  0.003300
 Level Shifting         CNVShift        .... on
   Level shift para.    LevelShift      ....    0.2500
   Turn off err/grad.   ShiftErr        ....    0.0010
 Zerner damping         CNVZerner       .... off
 Static damping         CNVDamp         .... on
   Fraction old density DampFac         ....    0.7000
   Max. Damping (<1)    DampMax         ....    0.9800
   Min. Damping (>=0)   DampMin         ....    0.0000
   Turn off err/grad.   DampErr         ....    0.1000
 Fernandez-Rico         CNVRico         .... off

SCF Procedure:
 Maximum # iterations   MaxIter         ....   125
 SCF integral mode      SCFMode         .... Direct
   Integral package                     .... SHARK and LIBINT hybrid scheme
 Reset frequency        DirectResetFreq ....    20
 Integral Threshold     Thresh          ....  2.500e-11 Eh
 Primitive CutOff       TCut            ....  2.500e-12 Eh

Convergence Tolerance:
 Convergence Check Mode ConvCheckMode   .... Total+1el-Energy
 Convergence forced     ConvForced      .... 1
 Energy Change          TolE            ....  1.000e-08 Eh
 1-El. energy change                    ....  1.000e-05 Eh
 Orbital Gradient       TolG            ....  1.000e-05
 Orbital Rotation angle TolX            ....  1.000e-05
 DIIS Error             TolErr          ....  5.000e-07


Diagonalization of the overlap matrix:
Smallest eigenvalue                        ... 2.252e-04
Time for diagonalization                   ...    0.412 sec
Threshold for overlap eigenvalues          ... 1.000e-08
Number of eigenvalues below threshold      ... 0
Time for construction of square roots      ...    0.255 sec
Total time needed                          ...    0.673 sec

Time for model grid setup =    1.055 sec

------------------------------
INITIAL GUESS: MODEL POTENTIAL
------------------------------
Loading Hartree-Fock densities                     ... done
Calculating cut-offs                               ... done
Initializing the effective Hamiltonian             ... done
Setting up the integral package (SHARK)            ... done
Starting the Coulomb interaction                   ... done (   1.1 sec)
Reading the grid                                   ... done
Mapping shells                                     ... done
Starting the XC term evaluation                    ... done (   0.2 sec)
Transforming the Hamiltonian                       ... done (   0.2 sec)
Diagonalizing the Hamiltonian                      ... done (   0.3 sec)
Back transforming the eigenvectors                 ... done (   0.1 sec)
Now organizing SCF variables                       ... done
                      ------------------
                      INITIAL GUESS DONE (   3.1 sec)
                      ------------------
--------------
SCF ITERATIONS
--------------
ITER       Energy         Delta-E        Max-DP      RMS-DP      [F,P]     Damp
               ***  Starting incremental Fock matrix formation  ***
  0  -2121.6810141946   0.000000000000 0.06893502  0.00120791  0.2328491 0.7000
  1  -2122.3447413112  -0.663727116633 0.05229580  0.00098005  0.1440972 0.7000
                               ***Turning on DIIS***
  2  -2122.7568834419  -0.412142130714 0.11590182  0.00222085  0.0802473 0.0000
  3  -2117.7665124933   4.990370948623 0.03017918  0.00067862  0.0442152 0.0000
  4  -2123.4209684021  -5.654455908825 0.00874666  0.00022744  0.0071211 0.0000
  5  -2123.5971992530  -0.176230850904 0.00508614  0.00013434  0.0049466 0.0000
  6  -2123.5795818688   0.017617384219 0.00337236  0.00008709  0.0019263 0.0000
  7  -2123.6831723099  -0.103590441086 0.00284839  0.00006872  0.0015054 0.0000
  8  -2123.7002112216  -0.017038911732 0.00290483  0.00006456  0.0013993 0.0000
  9  -2123.6652554160   0.034955805593 0.00234623  0.00004418  0.0011027 0.0000
 10  -2123.6784877109  -0.013232294836 0.00485989  0.00008714  0.0008400 0.0000
                      *** Initiating the SOSCF procedure ***
                           *** Shutting down DIIS ***
                      *** Re-Reading the Fockian *** 
                      *** Removing any level shift *** 
ITER      Energy       Delta-E        Grad      Rot      Max-DP    RMS-DP
 11  -2123.56360459   0.1148831228  0.000293  0.000293  0.000289  0.000006
               *** Restarting incremental Fock matrix formation ***
 12  -2123.62778213  -0.0641775436  0.000886  0.005983  0.001083  0.000027
 13  -2123.62784727  -0.0000651371  0.000949  0.024725  0.004854  0.000092
 14  -2123.62793159  -0.0000843172  0.000451  0.002154  0.000508  0.000011
 15  -2123.62794369  -0.0000121069  0.000166  0.002510  0.000650  0.000011
 16  -2123.62794925  -0.0000055572  0.000106  0.003851  0.000750  0.000014
 17  -2123.62795301  -0.0000037560  0.000144  0.003348  0.000511  0.000010
 18  -2123.62795477  -0.0000017630  0.000061  0.001602  0.000217  0.000006
 19  -2123.62795579  -0.0000010220  0.000061  0.000713  0.000160  0.000003
 20  -2123.62795614  -0.0000003525  0.000029  0.000522  0.000129  0.000002
 21  -2123.62795625  -0.0000001096  0.000023  0.000183  0.000049  0.000001
 22  -2123.62795633  -0.0000000808  0.000016  0.000386  0.000080  0.000001
 23  -2123.62795639  -0.0000000573  0.000011  0.000199  0.000053  0.000001
 24  -2123.62795641  -0.0000000191  0.000004  0.000103  0.000026  0.000000
 25  -2123.62795641  -0.0000000041  0.000003  0.000027  0.000015  0.000000
                  ***Gradient check signals convergence***
              ***Rediagonalizing the Fockian in SOSCF/NRSCF***

               *****************************************************
               *                     SUCCESS                       *
               *           SCF CONVERGED AFTER  26 CYCLES          *
               *****************************************************


----------------
TOTAL SCF ENERGY
----------------

Total Energy       :        -2123.62795642 Eh          -57786.85452 eV

Components:
Nuclear Repulsion  :         6225.64796707 Eh          169408.49375 eV
Electronic Energy  :        -8349.27592349 Eh         -227195.34827 eV
One Electron Energy:       -15292.40486404 Eh         -416127.49186 eV
Two Electron Energy:         6943.12894055 Eh          188932.14360 eV

Virial components:
Potential Energy   :        -4245.63095890 Eh         -115529.49180 eV
Kinetic Energy     :         2122.00300248 Eh           57742.63728 eV
Virial Ratio       :            2.00076576


---------------
SCF CONVERGENCE
---------------

  Last Energy change         ...   -5.9008e-09  Tolerance :   1.0000e-08
  Last MAX-Density change    ...    7.8401e-06  Tolerance :   1.0000e-07
  Last RMS-Density change    ...    1.0487e-07  Tolerance :   5.0000e-09
  Last Orbital Gradient      ...    1.8052e-06  Tolerance :   1.0000e-05
  Last Orbital Rotation      ...    1.9508e-05  Tolerance :   1.0000e-05

             **** THE GBW FILE WAS UPDATED (/scratch/allen/tmpyp4_amber_gaff2/conf1/conf1/Conf127.orca.gbw) ****
             **** DENSITY /scratch/allen/tmpyp4_amber_gaff2/conf1/conf1/Conf127.orca.scfp WAS UPDATED ****
             **** ENERGY FILE WAS UPDATED (/scratch/allen/tmpyp4_amber_gaff2/conf1/conf1/Conf127.orca.en.tmp) ****
             **** THE GBW FILE WAS UPDATED (/scratch/allen/tmpyp4_amber_gaff2/conf1/conf1/Conf127.orca.gbw) ****
             **** DENSITY /scratch/allen/tmpyp4_amber_gaff2/conf1/conf1/Conf127.orca.scfp WAS UPDATED ****
----------------
ORBITAL ENERGIES
----------------

  NO   OCC          E(Eh)            E(eV) 
   0   2.0000     -15.647615      -425.7932 
   1   2.0000     -15.639715      -425.5783 
   2   2.0000     -15.628453      -425.2718 
   3   2.0000     -15.614594      -424.8947 
   4   2.0000     -15.520607      -422.3372 
   5   2.0000     -15.515548      -422.1995 
   6   2.0000     -15.445803      -420.3017 
   7   2.0000     -15.443934      -420.2508 
   8   2.0000     -11.307966      -307.7054 
   9   2.0000     -11.303096      -307.5729 
  10   2.0000     -11.302806      -307.5650 
  11   2.0000     -11.300469      -307.5014 
  12   2.0000     -11.295911      -307.3774 
  13   2.0000     -11.295731      -307.3725 
  14   2.0000     -11.293627      -307.3152 
  15   2.0000     -11.287994      -307.1619 
  16   2.0000     -11.286221      -307.1137 
  17   2.0000     -11.284862      -307.0767 
  18   2.0000     -11.275525      -306.8226 
  19   2.0000     -11.274984      -306.8079 
  20   2.0000     -11.251613      -306.1720 
  21   2.0000     -11.243107      -305.9405 
  22   2.0000     -11.240481      -305.8690 
  23   2.0000     -11.239594      -305.8449 
  24   2.0000     -11.234959      -305.7188 
  25   2.0000     -11.234344      -305.7020 
  26   2.0000     -11.232901      -305.6628 
  27   2.0000     -11.226582      -305.4908 
  28   2.0000     -11.226431      -305.4867 
  29   2.0000     -11.222275      -305.3736 
  30   2.0000     -11.216850      -305.2260 
  31   2.0000     -11.216017      -305.2033 
  32   2.0000     -11.203259      -304.8562 
  33   2.0000     -11.202539      -304.8366 
  34   2.0000     -11.192754      -304.5703 
  35   2.0000     -11.192318      -304.5585 
  36   2.0000     -11.176216      -304.1203 
  37   2.0000     -11.174198      -304.0654 
  38   2.0000     -11.174086      -304.0623 
  39   2.0000     -11.173140      -304.0366 
  40   2.0000     -11.168310      -303.9052 
  41   2.0000     -11.167737      -303.8896 
  42   2.0000     -11.166841      -303.8652 
  43   2.0000     -11.164500      -303.8015 
  44   2.0000     -11.163293      -303.7686 
  45   2.0000     -11.161784      -303.7276 
  46   2.0000     -11.151260      -303.4412 
  47   2.0000     -11.148975      -303.3790 
  48   2.0000     -11.146455      -303.3105 
  49   2.0000     -11.143778      -303.2376 
  50   2.0000     -11.140234      -303.1412 
  51   2.0000     -11.136842      -303.0489 
  52   2.0000      -1.332921       -36.2706 
  53   2.0000      -1.326097       -36.0849 
  54   2.0000      -1.316422       -35.8217 
  55   2.0000      -1.305267       -35.5181 
  56   2.0000      -1.219869       -33.1943 
  57   2.0000      -1.211841       -32.9759 
  58   2.0000      -1.162821       -31.6420 
  59   2.0000      -1.156754       -31.4769 
  60   2.0000      -1.120410       -30.4879 
  61   2.0000      -1.113971       -30.3127 
  62   2.0000      -1.105652       -30.0863 
  63   2.0000      -1.096797       -29.8454 
  64   2.0000      -1.056493       -28.7486 
  65   2.0000      -1.049926       -28.5699 
  66   2.0000      -1.041047       -28.3283 
  67   2.0000      -1.031194       -28.0602 
  68   2.0000      -1.028234       -27.9797 
  69   2.0000      -1.011270       -27.5181 
  70   2.0000      -1.009286       -27.4641 
  71   2.0000      -0.996230       -27.1088 
  72   2.0000      -0.984249       -26.7828 
  73   2.0000      -0.974742       -26.5241 
  74   2.0000      -0.971120       -26.4255 
  75   2.0000      -0.959074       -26.0977 
  76   2.0000      -0.952213       -25.9110 
  77   2.0000      -0.944242       -25.6941 
  78   2.0000      -0.939374       -25.5617 
  79   2.0000      -0.923069       -25.1180 
  80   2.0000      -0.894157       -24.3312 
  81   2.0000      -0.882338       -24.0096 
  82   2.0000      -0.876558       -23.8524 
  83   2.0000      -0.868580       -23.6353 
  84   2.0000      -0.862255       -23.4632 
  85   2.0000      -0.856486       -23.3062 
  86   2.0000      -0.848605       -23.0917 
  87   2.0000      -0.842447       -22.9242 
  88   2.0000      -0.821697       -22.3595 
  89   2.0000      -0.798656       -21.7325 
  90   2.0000      -0.797259       -21.6945 
  91   2.0000      -0.740035       -20.1374 
  92   2.0000      -0.731885       -19.9156 
  93   2.0000      -0.729883       -19.8611 
  94   2.0000      -0.721644       -19.6369 
  95   2.0000      -0.719589       -19.5810 
  96   2.0000      -0.712395       -19.3852 
  97   2.0000      -0.707371       -19.2485 
  98   2.0000      -0.699317       -19.0294 
  99   2.0000      -0.693898       -18.8819 
 100   2.0000      -0.686901       -18.6915 
 101   2.0000      -0.681078       -18.5331 
 102   2.0000      -0.679246       -18.4832 
 103   2.0000      -0.673124       -18.3166 
 104   2.0000      -0.669085       -18.2067 
 105   2.0000      -0.665199       -18.1010 
 106   2.0000      -0.663341       -18.0504 
 107   2.0000      -0.660542       -17.9743 
 108   2.0000      -0.657713       -17.8973 
 109   2.0000      -0.657369       -17.8879 
 110   2.0000      -0.651922       -17.7397 
 111   2.0000      -0.649662       -17.6782 
 112   2.0000      -0.645773       -17.5724 
 113   2.0000      -0.640829       -17.4378 
 114   2.0000      -0.634913       -17.2769 
 115   2.0000      -0.622853       -16.9487 
 116   2.0000      -0.622519       -16.9396 
 117   2.0000      -0.616664       -16.7803 
 118   2.0000      -0.611211       -16.6319 
 119   2.0000      -0.609753       -16.5922 
 120   2.0000      -0.608211       -16.5503 
 121   2.0000      -0.603502       -16.4221 
 122   2.0000      -0.598714       -16.2918 
 123   2.0000      -0.592355       -16.1188 
 124   2.0000      -0.590708       -16.0740 
 125   2.0000      -0.585314       -15.9272 
 126   2.0000      -0.578193       -15.7334 
 127   2.0000      -0.573607       -15.6086 
 128   2.0000      -0.569383       -15.4937 
 129   2.0000      -0.559838       -15.2340 
 130   2.0000      -0.553860       -15.0713 
 131   2.0000      -0.546165       -14.8619 
 132   2.0000      -0.541831       -14.7440 
 133   2.0000      -0.536017       -14.5858 
 134   2.0000      -0.533881       -14.5276 
 135   2.0000      -0.528918       -14.3926 
 136   2.0000      -0.525047       -14.2873 
 137   2.0000      -0.522357       -14.2141 
 138   2.0000      -0.519971       -14.1491 
 139   2.0000      -0.517242       -14.0749 
 140   2.0000      -0.509397       -13.8614 
 141   2.0000      -0.506155       -13.7732 
 142   2.0000      -0.505237       -13.7482 
 143   2.0000      -0.501479       -13.6459 
 144   2.0000      -0.500028       -13.6064 
 145   2.0000      -0.498524       -13.5655 
 146   2.0000      -0.495252       -13.4765 
 147   2.0000      -0.492217       -13.3939 
 148   2.0000      -0.490011       -13.3339 
 149   2.0000      -0.469219       -12.7681 
 150   2.0000      -0.461048       -12.5458 
 151   2.0000      -0.452248       -12.3063 
 152   2.0000      -0.448490       -12.2040 
 153   2.0000      -0.446232       -12.1426 
 154   2.0000      -0.445690       -12.1278 
 155   2.0000      -0.439079       -11.9480 
 156   2.0000      -0.435443       -11.8490 
 157   2.0000      -0.431396       -11.7389 
 158   2.0000      -0.393005       -10.6942 
 159   2.0000      -0.382839       -10.4176 
 160   2.0000      -0.379685       -10.3318 
 161   2.0000      -0.372096       -10.1252 
 162   2.0000      -0.365899        -9.9566 
 163   2.0000      -0.360227        -9.8023 
 164   2.0000      -0.352798        -9.6001 
 165   2.0000      -0.343959        -9.3596 
 166   2.0000      -0.337220        -9.1762 
 167   2.0000      -0.333317        -9.0700 
 168   2.0000      -0.329379        -8.9629 
 169   2.0000      -0.300150        -8.1675 
 170   2.0000      -0.297729        -8.1016 
 171   2.0000      -0.288221        -7.8429 
 172   2.0000      -0.286874        -7.8062 
 173   2.0000      -0.255710        -6.9582 
 174   2.0000      -0.247788        -6.7427 
 175   2.0000      -0.188442        -5.1278 
 176   2.0000      -0.178383        -4.8540 
 177   2.0000      -0.067748        -1.8435 
 178   2.0000      -0.055362        -1.5065 
 179   0.0000       0.030394         0.8271 
 180   0.0000       0.070144         1.9087 
 181   0.0000       0.093000         2.5306 
 182   0.0000       0.099049         2.6953 
 183   0.0000       0.128211         3.4888 
 184   0.0000       0.133641         3.6365 
 185   0.0000       0.141912         3.8616 
 186   0.0000       0.151350         4.1184 
 187   0.0000       0.157787         4.2936 
 188   0.0000       0.161669         4.3992 
 189   0.0000       0.162334         4.4173 
 190   0.0000       0.167918         4.5693 
 191   0.0000       0.174435         4.7466 
 192   0.0000       0.197535         5.3752 
 193   0.0000       0.200923         5.4674 
 194   0.0000       0.201792         5.4910 
 195   0.0000       0.205492         5.5917 
 196   0.0000       0.208045         5.6612 
 197   0.0000       0.211105         5.7445 
 198   0.0000       0.214132         5.8268 
 199   0.0000       0.218615         5.9488 
 200   0.0000       0.232217         6.3190 
 201   0.0000       0.237013         6.4495 
 202   0.0000       0.242054         6.5866 
 203   0.0000       0.248425         6.7600 
 204   0.0000       0.249942         6.8013 
 205   0.0000       0.254019         6.9122 
 206   0.0000       0.256617         6.9829 
 207   0.0000       0.259766         7.0686 
 208   0.0000       0.263565         7.1720 
 209   0.0000       0.264198         7.1892 
 210   0.0000       0.267665         7.2835 
 211   0.0000       0.268919         7.3177 
 212   0.0000       0.271749         7.3947 
 213   0.0000       0.275208         7.4888 
 214   0.0000       0.278320         7.5735 
 215   0.0000       0.280195         7.6245 
 216   0.0000       0.280811         7.6412 
 217   0.0000       0.282147         7.6776 
 218   0.0000       0.286847         7.8055 
 219   0.0000       0.287954         7.8356 
 220   0.0000       0.290201         7.8968 
 221   0.0000       0.291706         7.9377 
 222   0.0000       0.293322         7.9817 
 223   0.0000       0.295374         8.0375 
 224   0.0000       0.299140         8.1400 
 225   0.0000       0.301524         8.2049 
 226   0.0000       0.304265         8.2795 
 227   0.0000       0.306766         8.3475 
 228   0.0000       0.307456         8.3663 
 229   0.0000       0.309012         8.4086 
 230   0.0000       0.315031         8.5724 
 231   0.0000       0.318623         8.6702 
 232   0.0000       0.325361         8.8535 
 233   0.0000       0.328050         8.9267 
 234   0.0000       0.332367         9.0442 
 235   0.0000       0.337380         9.1806 
 236   0.0000       0.355701         9.6791 
 237   0.0000       0.386054        10.5051 
 238   0.0000       0.395135        10.7522 
 239   0.0000       0.400191        10.8898 
 240   0.0000       0.405987        11.0475 
 241   0.0000       0.411408        11.1950 
 242   0.0000       0.421312        11.4645 
 243   0.0000       0.423222        11.5165 
 244   0.0000       0.430895        11.7253 
 245   0.0000       0.432039        11.7564 
 246   0.0000       0.433717        11.8021 
 247   0.0000       0.437849        11.9145 
 248   0.0000       0.441256        12.0072 
 249   0.0000       0.444198        12.0872 
 250   0.0000       0.446624        12.1533 
 251   0.0000       0.453593        12.3429 
 252   0.0000       0.455836        12.4039 
 253   0.0000       0.465670        12.6715 
 254   0.0000       0.470401        12.8003 
 255   0.0000       0.475104        12.9282 
 256   0.0000       0.482550        13.1308 
 257   0.0000       0.486141        13.2286 
 258   0.0000       0.492431        13.3997 
 259   0.0000       0.495928        13.4949 
 260   0.0000       0.500577        13.6214 
 261   0.0000       0.502469        13.6729 
 262   0.0000       0.506940        13.7945 
 263   0.0000       0.509928        13.8758 
 264   0.0000       0.511429        13.9167 
 265   0.0000       0.515041        14.0150 
 266   0.0000       0.517688        14.0870 
 267   0.0000       0.522422        14.2158 
 268   0.0000       0.535944        14.5838 
 269   0.0000       0.538053        14.6412 
 270   0.0000       0.541510        14.7352 
 271   0.0000       0.545309        14.8386 
 272   0.0000       0.546197        14.8628 
 273   0.0000       0.553524        15.0622 
 274   0.0000       0.559608        15.2277 
 275   0.0000       0.563515        15.3340 
 276   0.0000       0.574723        15.6390 
 277   0.0000       0.576702        15.6929 
 278   0.0000       0.580513        15.7966 
 279   0.0000       0.584826        15.9139 
 280   0.0000       0.586988        15.9727 
 281   0.0000       0.590749        16.0751 
 282   0.0000       0.594083        16.1658 
 283   0.0000       0.597002        16.2453 
 284   0.0000       0.600070        16.3287 
 285   0.0000       0.601128        16.3575 
 286   0.0000       0.607341        16.5266 
 287   0.0000       0.608487        16.5578 
 288   0.0000       0.611355        16.6358 
 289   0.0000       0.616057        16.7638 
 290   0.0000       0.619098        16.8465 
 291   0.0000       0.627635        17.0788 
 292   0.0000       0.638422        17.3723 
 293   0.0000       0.638779        17.3821 
 294   0.0000       0.644428        17.5358 
 295   0.0000       0.650442        17.6994 
 296   0.0000       0.656987        17.8775 
 297   0.0000       0.659265        17.9395 
 298   0.0000       0.661224        17.9928 
 299   0.0000       0.664909        18.0931 
 300   0.0000       0.670405        18.2427 
 301   0.0000       0.672778        18.3072 
 302   0.0000       0.678966        18.4756 
 303   0.0000       0.681646        18.5485 
 304   0.0000       0.683250        18.5922 
 305   0.0000       0.686464        18.6796 
 306   0.0000       0.690175        18.7806 
 307   0.0000       0.692344        18.8396 
 308   0.0000       0.697205        18.9719 
 309   0.0000       0.700579        19.0637 
 310   0.0000       0.703897        19.1540 
 311   0.0000       0.705556        19.1992 
 312   0.0000       0.706224        19.2173 
 313   0.0000       0.709027        19.2936 
 314   0.0000       0.712508        19.3883 
 315   0.0000       0.713921        19.4268 
 316   0.0000       0.714956        19.4549 
 317   0.0000       0.718313        19.5463 
 318   0.0000       0.719149        19.5690 
 319   0.0000       0.723277        19.6814 
 320   0.0000       0.727256        19.7896 
 321   0.0000       0.730659        19.8822 
 322   0.0000       0.730877        19.8882 
 323   0.0000       0.734340        19.9824 
 324   0.0000       0.737954        20.0807 
 325   0.0000       0.741814        20.1858 
 326   0.0000       0.744527        20.2596 
 327   0.0000       0.745756        20.2931 
 328   0.0000       0.746278        20.3073 
 329   0.0000       0.749659        20.3993 
 330   0.0000       0.751922        20.4608 
 331   0.0000       0.753966        20.5164 
 332   0.0000       0.756784        20.5932 
 333   0.0000       0.763543        20.7771 
 334   0.0000       0.767450        20.8834 
 335   0.0000       0.772749        21.0276 
 336   0.0000       0.774693        21.0805 
 337   0.0000       0.779139        21.2014 
 338   0.0000       0.782765        21.3001 
 339   0.0000       0.788295        21.4506 
 340   0.0000       0.791450        21.5364 
 341   0.0000       0.792894        21.5757 
 342   0.0000       0.794825        21.6283 
 343   0.0000       0.800126        21.7725 
 344   0.0000       0.804247        21.8847 
 345   0.0000       0.807265        21.9668 
 346   0.0000       0.808549        22.0017 
 347   0.0000       0.811395        22.0792 
 348   0.0000       0.814462        22.1626 
 349   0.0000       0.817182        22.2366 
 350   0.0000       0.820058        22.3149 
 351   0.0000       0.824345        22.4316 
 352   0.0000       0.826982        22.5033 
 353   0.0000       0.827771        22.5248 
 354   0.0000       0.831371        22.6227 
 355   0.0000       0.831730        22.6325 
 356   0.0000       0.834745        22.7146 
 357   0.0000       0.834857        22.7176 
 358   0.0000       0.835797        22.7432 
 359   0.0000       0.838852        22.8263 
 360   0.0000       0.840369        22.8676 
 361   0.0000       0.841581        22.9006 
 362   0.0000       0.843733        22.9591 
 363   0.0000       0.844595        22.9826 
 364   0.0000       0.846708        23.0401 
 365   0.0000       0.849760        23.1232 
 366   0.0000       0.850893        23.1540 
 367   0.0000       0.853637        23.2287 
 368   0.0000       0.859041        23.3757 
 369   0.0000       0.861455        23.4414 
 370   0.0000       0.865306        23.5462 
 371   0.0000       0.867552        23.6073 
 372   0.0000       0.872268        23.7356 
 373   0.0000       0.875982        23.8367 
 374   0.0000       0.879021        23.9194 
 375   0.0000       0.882826        24.0229 
 376   0.0000       0.885284        24.0898 
 377   0.0000       0.889893        24.2152 
 378   0.0000       0.894522        24.3412 
 379   0.0000       0.894953        24.3529 
 380   0.0000       0.897331        24.4176 
 381   0.0000       0.900199        24.4957 
 382   0.0000       0.902341        24.5540 
 383   0.0000       0.903974        24.5984 
 384   0.0000       0.905581        24.6421 
 385   0.0000       0.906191        24.6587 
 386   0.0000       0.909318        24.7438 
 387   0.0000       0.911120        24.7928 
 388   0.0000       0.911523        24.8038 
 389   0.0000       0.914035        24.8721 
 390   0.0000       0.919249        25.0140 
 391   0.0000       0.920130        25.0380 
 392   0.0000       0.922961        25.1150 
 393   0.0000       0.924303        25.1516 
 394   0.0000       0.925949        25.1963 
 395   0.0000       0.931306        25.3421 
 396   0.0000       0.933614        25.4049 
 397   0.0000       0.936699        25.4889 
 398   0.0000       0.937324        25.5059 
 399   0.0000       0.942117        25.6363 
 400   0.0000       0.942735        25.6531 
 401   0.0000       0.945866        25.7383 
 402   0.0000       0.950183        25.8558 
 403   0.0000       0.951518        25.8921 
 404   0.0000       0.953419        25.9438 
 405   0.0000       0.958238        26.0750 
 406   0.0000       0.960598        26.1392 
 407   0.0000       0.961887        26.1743 
 408   0.0000       0.966009        26.2864 
 409   0.0000       0.971294        26.4302 
 410   0.0000       0.974883        26.5279 
 411   0.0000       0.976084        26.5606 
 412   0.0000       0.981530        26.7088 
 413   0.0000       0.985102        26.8060 
 414   0.0000       0.988611        26.9015 
 415   0.0000       0.989846        26.9351 
 416   0.0000       0.999082        27.1864 
 417   0.0000       1.001195        27.2439 
 418   0.0000       1.007037        27.4029 
 419   0.0000       1.014515        27.6064 
 420   0.0000       1.023311        27.8457 
 421   0.0000       1.025720        27.9113 
 422   0.0000       1.032501        28.0958 
 423   0.0000       1.039819        28.2949 
 424   0.0000       1.046237        28.4696 
 425   0.0000       1.048588        28.5335 
 426   0.0000       1.054643        28.6983 
 427   0.0000       1.062316        28.9071 
 428   0.0000       1.064783        28.9742 
 429   0.0000       1.072105        29.1735 
 430   0.0000       1.076828        29.3020 
 431   0.0000       1.080644        29.4058 
 432   0.0000       1.085674        29.5427 
 433   0.0000       1.089808        29.6552 
 434   0.0000       1.096582        29.8395 
 435   0.0000       1.103194        30.0194 
 436   0.0000       1.107743        30.1432 
 437   0.0000       1.109690        30.1962 
 438   0.0000       1.115801        30.3625 
 439   0.0000       1.118141        30.4262 
 440   0.0000       1.120502        30.4904 
 441   0.0000       1.124956        30.6116 
 442   0.0000       1.129997        30.7488 
 443   0.0000       1.131211        30.7818 
 444   0.0000       1.133758        30.8511 
 445   0.0000       1.134471        30.8705 
 446   0.0000       1.135179        30.8898 
 447   0.0000       1.140406        31.0320 
 448   0.0000       1.144839        31.1527 
 449   0.0000       1.145897        31.1814 
 450   0.0000       1.151779        31.3415 
 451   0.0000       1.153617        31.3915 
 452   0.0000       1.154805        31.4238 
 453   0.0000       1.155181        31.4341 
 454   0.0000       1.159473        31.5509 
 455   0.0000       1.167333        31.7647 
 456   0.0000       1.174305        31.9545 
 457   0.0000       1.177473        32.0407 
 458   0.0000       1.181819        32.1589 
 459   0.0000       1.185377        32.2557 
 460   0.0000       1.188456        32.3395 
 461   0.0000       1.189857        32.3777 
 462   0.0000       1.200167        32.6582 
 463   0.0000       1.203732        32.7552 
 464   0.0000       1.206860        32.8403 
 465   0.0000       1.208907        32.8960 
 466   0.0000       1.214748        33.0550 
 467   0.0000       1.215525        33.0761 
 468   0.0000       1.221575        33.2407 
 469   0.0000       1.228895        33.4399 
 470   0.0000       1.232907        33.5491 
 471   0.0000       1.234541        33.5936 
 472   0.0000       1.235410        33.6172 
 473   0.0000       1.239677        33.7333 
 474   0.0000       1.242090        33.7990 
 475   0.0000       1.247264        33.9398 
 476   0.0000       1.250807        34.0362 
 477   0.0000       1.253358        34.1056 
 478   0.0000       1.254546        34.1379 
 479   0.0000       1.256268        34.1848 
 480   0.0000       1.260683        34.3049 
 481   0.0000       1.264019        34.3957 
 482   0.0000       1.268424        34.5156 
 483   0.0000       1.270165        34.5630 
 484   0.0000       1.275790        34.7160 
 485   0.0000       1.276466        34.7344 
 486   0.0000       1.281809        34.8798 
 487   0.0000       1.284701        34.9585 
 488   0.0000       1.289416        35.0868 
 489   0.0000       1.290929        35.1280 
 490   0.0000       1.293404        35.1953 
 491   0.0000       1.300582        35.3906 
 492   0.0000       1.302984        35.4560 
 493   0.0000       1.310631        35.6641 
 494   0.0000       1.314201        35.7612 
 495   0.0000       1.314869        35.7794 
 496   0.0000       1.317421        35.8489 
 497   0.0000       1.320388        35.9296 
 498   0.0000       1.325399        36.0659 
 499   0.0000       1.330259        36.1982 
 500   0.0000       1.334357        36.3097 
 501   0.0000       1.337444        36.3937 
 502   0.0000       1.341814        36.5126 
 503   0.0000       1.345153        36.6035 
 504   0.0000       1.350533        36.7499 
 505   0.0000       1.352426        36.8014 
 506   0.0000       1.354249        36.8510 
 507   0.0000       1.355326        36.8803 
 508   0.0000       1.358790        36.9746 
 509   0.0000       1.361574        37.0503 
 510   0.0000       1.364806        37.1383 
 511   0.0000       1.367900        37.2224 
 512   0.0000       1.370821        37.3019 
[...]
      pz      :     0.021999  p :     0.079613
      px      :     0.043366
      py      :     0.014248
 77 H s       :     0.888200  s :     0.888200
      pz      :     0.047699  p :     0.078969
      px      :     0.015014
      py      :     0.016256
 78 H s       :     0.888622  s :     0.888622
      pz      :     0.025738  p :     0.078908
      px      :     0.020536
      py      :     0.032634
 79 H s       :     0.909225  s :     0.909225
      pz      :     0.022040  p :     0.086640
      px      :     0.021747
      py      :     0.042853
 80 H s       :     0.869591  s :     0.869591
      pz      :     0.038972  p :     0.084261
      px      :     0.030002
      py      :     0.015286
 81 H s       :     0.887197  s :     0.887197
      pz      :     0.037766  p :     0.083926
      px      :     0.016156
      py      :     0.030003
 82 H s       :     0.915504  s :     0.915504
      pz      :     0.022103  p :     0.086827
      px      :     0.031408
      py      :     0.033316
 83 H s       :     0.873018  s :     0.873018
      pz      :     0.039239  p :     0.083995
      px      :     0.015263
      py      :     0.029493
 84 H s       :     0.887202  s :     0.887202
      pz      :     0.035774  p :     0.083659
      px      :     0.031712
      py      :     0.016174
 85 H s       :     0.893667  s :     0.893667
      pz      :     0.022493  p :     0.079737
      px      :     0.014090
      py      :     0.043154
 86 H s       :     0.890903  s :     0.890903
      pz      :     0.024722  p :     0.078846
      px      :     0.032985
      py      :     0.021138
 87 H s       :     0.890151  s :     0.890151
      pz      :     0.047974  p :     0.078707
      px      :     0.015603
      py      :     0.015131
 88 H s       :     0.913227  s :     0.913227
      pz      :     0.021997  p :     0.086980
      px      :     0.042593
      py      :     0.022390
 89 H s       :     0.871933  s :     0.871933
      pz      :     0.037926  p :     0.083888
      px      :     0.030492
      py      :     0.015470


                      *****************************
                      * MAYER POPULATION ANALYSIS *
                      *****************************

  NA   - Mulliken gross atomic population
  ZA   - Total nuclear charge
  QA   - Mulliken gross atomic charge
  VA   - Mayer's total valence
  BVA  - Mayer's bonded valence
  FA   - Mayer's free valence

  ATOM       NA         ZA         QA         VA         BVA        FA
  0 C      5.7955     6.0000     0.2045     3.8328     3.8328    -0.0000
  1 N      7.4467     7.0000    -0.4467     3.3527     3.3527    -0.0000
  2 C      6.0645     6.0000    -0.0645     3.9189     3.9189    -0.0000
  3 N      7.3370     7.0000    -0.3370     3.4495     3.4495     0.0000
  4 C      6.0677     6.0000    -0.0677     3.9838     3.9838    -0.0000
  5 N      7.5615     7.0000    -0.5615     3.0886     3.0886     0.0000
  6 C      6.0769     6.0000    -0.0769     4.0009     4.0009     0.0000
  7 N      7.3388     7.0000    -0.3388     3.4388     3.4388    -0.0000
  8 C      5.7973     6.0000     0.2027     3.8328     3.8328    -0.0000
  9 N      7.5629     7.0000    -0.5629     3.0827     3.0827    -0.0000
 10 C      5.8834     6.0000     0.1166     3.8996     3.8996     0.0000
 11 N      7.4372     7.0000    -0.4372     3.3850     3.3850     0.0000
 12 C      6.0726     6.0000    -0.0726     3.9178     3.9178     0.0000
 13 N      7.4369     7.0000    -0.4369     3.3929     3.3929     0.0000
 14 C      5.7648     6.0000     0.2352     3.7879     3.7879    -0.0000
 15 N      7.4410     7.0000    -0.4410     3.3708     3.3708     0.0000
 16 C      5.7671     6.0000     0.2329     3.7866     3.7866     0.0000
 17 C      6.0766     6.0000    -0.0766     4.0011     4.0011    -0.0000
 18 C      6.1936     6.0000    -0.1936     3.7594     3.7594    -0.0000
 19 C      5.7760     6.0000     0.2240     3.8739     3.8739     0.0000
 20 C      5.7894     6.0000     0.2106     3.8259     3.8259     0.0000
 21 C      6.0798     6.0000    -0.0798     3.9081     3.9081     0.0000
 22 C      6.0864     6.0000    -0.0864     3.9829     3.9829     0.0000
 23 C      6.0463     6.0000    -0.0463     3.9906     3.9906     0.0000
 24 C      5.7965     6.0000     0.2035     3.8227     3.8227     0.0000
 25 C      5.8863     6.0000     0.1137     3.8894     3.8894    -0.0000
 26 C      6.0734     6.0000    -0.0734     3.9038     3.9038     0.0000
 27 C      5.7810     6.0000     0.2190     3.8775     3.8775     0.0000
 28 C      6.0546     6.0000    -0.0546     3.9880     3.9880     0.0000
 29 C      6.1833     6.0000    -0.1833     3.7377     3.7377     0.0000
 30 C      5.7617     6.0000     0.2383     3.7942     3.7942    -0.0000
 31 C      5.7831     6.0000     0.2169     3.8247     3.8247     0.0000
 32 C      6.0638     6.0000    -0.0638     3.9196     3.9196    -0.0000
 33 C      6.0756     6.0000    -0.0756     3.9815     3.9815     0.0000
 34 C      6.0496     6.0000    -0.0496     3.9898     3.9898    -0.0000
 35 C      5.7897     6.0000     0.2103     3.8227     3.8227     0.0000
 36 C      5.8875     6.0000     0.1125     3.8869     3.8869     0.0000
 37 C      6.0659     6.0000    -0.0659     3.9176     3.9176    -0.0000
 38 C      5.7639     6.0000     0.2361     3.8004     3.8004     0.0000
 39 C      6.0610     6.0000    -0.0610     3.9889     3.9889    -0.0000
 40 C      6.1865     6.0000    -0.1865     3.7370     3.7370     0.0000
 41 C      5.7788     6.0000     0.2212     3.8823     3.8823     0.0000
 42 C      5.7989     6.0000     0.2011     3.8272     3.8272     0.0000
 43 C      6.0735     6.0000    -0.0735     3.9022     3.9022     0.0000
 44 C      6.0897     6.0000    -0.0897     3.9855     3.9855    -0.0000
 45 C      6.0554     6.0000    -0.0554     3.9925     3.9925     0.0000
 46 C      5.7948     6.0000     0.2052     3.8267     3.8267     0.0000
 47 C      5.8843     6.0000     0.1157     3.8939     3.8939     0.0000
 48 C      6.0729     6.0000    -0.0729     3.9054     3.9054     0.0000
 49 C      5.7707     6.0000     0.2293     3.8872     3.8872     0.0000
 50 C      6.0509     6.0000    -0.0509     3.9904     3.9904    -0.0000
 51 C      6.1910     6.0000    -0.1910     3.7371     3.7371     0.0000
 52 H      0.9503     1.0000     0.0497     0.9854     0.9854    -0.0000
 53 H      1.0148     1.0000    -0.0148     0.9988     0.9988    -0.0000
 54 H      0.9537     1.0000     0.0463     1.0081     1.0081     0.0000
 55 H      0.9518     1.0000     0.0482     0.9861     0.9861    -0.0000
 56 H      0.9442     1.0000     0.0558     0.9709     0.9709    -0.0000
 57 H      0.9464     1.0000     0.0536     0.9828     0.9828     0.0000
 58 H      0.9473     1.0000     0.0527     0.9859     0.9859    -0.0000
 59 H      1.0087     1.0000    -0.0087     1.0006     1.0006    -0.0000
 60 H      0.9558     1.0000     0.0442     1.0109     1.0109    -0.0000
 61 H      0.8279     1.0000     0.1721     1.0422     1.0422     0.0000
 62 H      0.8262     1.0000     0.1738     1.0435     1.0435     0.0000
 63 H      0.9428     1.0000     0.0572     0.9853     0.9853     0.0000
 64 H      1.0161     1.0000    -0.0161     0.9960     0.9960     0.0000
 65 H      0.9531     1.0000     0.0469     1.0094     1.0094    -0.0000
 66 H      0.9423     1.0000     0.0577     0.9851     0.9851    -0.0000
 67 H      0.9365     1.0000     0.0635     0.9720     0.9720    -0.0000
 68 H      0.9417     1.0000     0.0583     0.9868     0.9868     0.0000
 69 H      0.9413     1.0000     0.0587     0.9830     0.9830     0.0000
 70 H      1.0257     1.0000    -0.0257     0.9935     0.9935     0.0000
 71 H      0.9520     1.0000     0.0480     1.0064     1.0064     0.0000
 72 H      0.9394     1.0000     0.0606     0.9846     0.9846     0.0000
 73 H      1.0124     1.0000    -0.0124     0.9992     0.9992     0.0000
 74 H      0.9494     1.0000     0.0506     1.0101     1.0101     0.0000
 75 H      0.9403     1.0000     0.0597     0.9851     0.9851     0.0000
 76 H      0.9344     1.0000     0.0656     0.9718     0.9718    -0.0000
 77 H      0.9391     1.0000     0.0609     0.9852     0.9852    -0.0000
 78 H      0.9400     1.0000     0.0600     0.9849     0.9849    -0.0000
 79 H      1.0143     1.0000    -0.0143     0.9990     0.9990    -0.0000
 80 H      0.9491     1.0000     0.0509     1.0071     1.0071    -0.0000
 81 H      0.9464     1.0000     0.0536     0.9855     0.9855     0.0000
 82 H      1.0243     1.0000    -0.0243     0.9939     0.9939     0.0000
 83 H      0.9578     1.0000     0.0422     1.0090     1.0090     0.0000
 84 H      0.9470     1.0000     0.0530     0.9855     0.9855     0.0000
 85 H      0.9408     1.0000     0.0592     0.9715     0.9715     0.0000
 86 H      0.9442     1.0000     0.0558     0.9840     0.9840     0.0000
 87 H      0.9433     1.0000     0.0567     0.9856     0.9856     0.0000
 88 H      1.0199     1.0000    -0.0199     0.9951     0.9951    -0.0000
 89 H      0.9545     1.0000     0.0455     1.0068     1.0068    -0.0000

  Mayer bond orders larger than 0.100000
B(  0-C ,  1-N ) :   1.1057 B(  0-C , 17-C ) :   1.6600 B(  0-C , 52-H ) :   0.9691 
B(  1-N ,  8-C ) :   1.1014 B(  1-N , 10-C ) :   0.9680 B(  2-C , 12-C ) :   1.5293 
B(  2-C , 16-C ) :   1.3316 B(  2-C , 53-H ) :   0.9775 B(  3-N , 14-C ) :   1.2082 
B(  3-N , 16-C ) :   1.1941 B(  3-N , 61-H ) :   0.8989 B(  4-C ,  6-C ) :   1.2431 
B(  4-C , 17-C ) :   1.2453 B(  4-C , 18-C ) :   1.3234 B(  5-N , 19-C ) :   1.4310 
B(  5-N , 27-C ) :   1.3966 B(  6-C ,  8-C ) :   1.6621 B(  6-C , 54-H ) :   0.9700 
B(  7-N , 30-C ) :   1.1928 B(  7-N , 38-C ) :   1.1991 B(  7-N , 62-H ) :   0.8978 
B(  8-C , 55-H ) :   0.9702 B(  9-N , 41-C ) :   1.4023 B(  9-N , 49-C ) :   1.4209 
B( 10-C , 56-H ) :   0.9764 B( 10-C , 57-H ) :   0.9827 B( 10-C , 58-H ) :   0.9832 
B( 11-N , 20-C ) :   1.1283 B( 11-N , 24-C ) :   1.1204 B( 11-N , 25-C ) :   0.9578 
B( 12-C , 14-C ) :   1.3341 B( 12-C , 59-H ) :   0.9763 B( 13-N , 31-C ) :   1.1350 
B( 13-N , 35-C ) :   1.1278 B( 13-N , 36-C ) :   0.9546 B( 14-C , 18-C ) :   1.1772 
B( 15-N , 42-C ) :   1.1125 B( 15-N , 46-C ) :   1.1165 B( 15-N , 47-C ) :   0.9624 
B( 16-C , 51-C ) :   1.1925 B( 17-C , 60-H ) :   0.9698 B( 18-C , 19-C ) :   1.1887 
B( 19-C , 21-C ) :   1.2224 B( 20-C , 28-C ) :   1.6224 B( 20-C , 63-H ) :   0.9702 
B( 21-C , 26-C ) :   1.6344 B( 21-C , 64-H ) :   0.9727 B( 22-C , 23-C ) :   1.2872 
B( 22-C , 28-C ) :   1.2736 B( 22-C , 29-C ) :   1.2236 B( 23-C , 24-C ) :   1.6163 
B( 23-C , 65-H ) :   0.9708 B( 24-C , 66-H ) :   0.9692 B( 25-C , 67-H ) :   0.9761 
B( 25-C , 68-H ) :   0.9829 B( 25-C , 69-H ) :   0.9821 B( 26-C , 27-C ) :   1.2177 
B( 26-C , 70-H ) :   0.9726 B( 27-C , 29-C ) :   1.2250 B( 28-C , 71-H ) :   0.9715 
B( 29-C , 30-C ) :   1.2225 B( 30-C , 32-C ) :   1.3013 B( 31-C , 39-C ) :   1.6187 
B( 31-C , 72-H ) :   0.9692 B( 32-C , 37-C ) :   1.5573 B( 32-C , 73-H ) :   0.9780 
B( 33-C , 34-C ) :   1.2849 B( 33-C , 39-C ) :   1.2775 B( 33-C , 40-C ) :   1.2273 
B( 34-C , 35-C ) :   1.6154 B( 34-C , 74-H ) :   0.9702 B( 35-C , 75-H ) :   0.9693 
B( 36-C , 76-H ) :   0.9764 B( 36-C , 77-H ) :   0.9819 B( 36-C , 78-H ) :   0.9829 
B( 37-C , 38-C ) :   1.3035 B( 37-C , 79-H ) :   0.9775 B( 38-C , 40-C ) :   1.2167 
B( 39-C , 80-H ) :   0.9713 B( 40-C , 41-C ) :   1.2268 B( 41-C , 43-C ) :   1.2077 
B( 42-C , 50-C ) :   1.6345 B( 42-C , 81-H ) :   0.9696 B( 43-C , 48-C ) :   1.6437 
B( 43-C , 82-H ) :   0.9732 B( 44-C , 45-C ) :   1.2675 B( 44-C , 50-C ) :   1.2677 
B( 44-C , 51-C ) :   1.2594 B( 45-C , 46-C ) :   1.6343 B( 45-C , 83-H ) :   0.9714 
B( 46-C , 84-H ) :   0.9702 B( 47-C , 85-H ) :   0.9761 B( 47-C , 86-H ) :   0.9828 
B( 47-C , 87-H ) :   0.9826 B( 48-C , 49-C ) :   1.2088 B( 48-C , 88-H ) :   0.9742 
B( 49-C , 51-C ) :   1.2221 B( 50-C , 89-H ) :   0.9712 

-------
TIMINGS
-------

Total SCF time: 0 days 0 hours 25 min 34 sec 

Total time                  ....    1534.992 sec
Sum of individual times     ....    1530.459 sec  ( 99.7%)

Fock matrix formation       ....    1507.853 sec  ( 98.2%)
Diagonalization             ....       6.997 sec  (  0.5%)
Density matrix formation    ....       0.605 sec  (  0.0%)
Population analysis         ....       0.536 sec  (  0.0%)
Initial guess               ....       2.088 sec  (  0.1%)
Orbital Transformation      ....       0.000 sec  (  0.0%)
Orbital Orthonormalization  ....       0.000 sec  (  0.0%)
DIIS solution               ....       3.652 sec  (  0.2%)
SOSCF solution              ....       7.671 sec  (  0.5%)

Maximum memory used throughout the entire SCF-calculation: 302.6 MB


           ************************************************************
           *        Program running with 16 parallel MPI-processes    *
           *              working on a common directory               *
           ************************************************************

------------------------------------------------------------------------------
                                ORCA  MP2 
------------------------------------------------------------------------------

Freezing NCore=104 chemical core electrons

----------
MP2 ENERGY (disk based algorithm)
----------

Dimension of the basis                    ...  918
Memory devoted to MP2                     ... 2000 MB   
Data format for buffers                   ... DOUBLE
Compression type for matrix containers    ... UNCOMPRESSED

-------------------------------
PARTIAL EXCHANGE TRANSFORMATION
-------------------------------

Transformation type                        ... one-operator
Generation of integrals (i,mue|j,nue)      ... ON
Generation of integrals (mue,kappa|nue,tau)... OFF
Generation of integrals (i,mue|a,nue)      ... OFF
Dimension of the basis                     ...  918
Number of internal MOs                     ...  127 (  52- 178)
Pair cutoff                                ... 2.500e-12 Eh
Number of AO pairs in the trafo            ... 421821
Total Number of distinct AO pairs          ... 421821
Memory devoted for trafo                   ... 2000.0 MB 
Max. Number of MO pairs treated together   ...  311      
Number Format for Storage                  ... Double (8 Byte)
Integral package used                      ... LIBINT

Starting integral evaluation:
    ... done with AO integral generation
Closing buffer AOK     (38.19 GB; CompressionRatio= 1.33)
Collecting buffer AOK 
Number of MO pairs included in the trafo   ... 8128
------------------------
SORTING OF (i,mue|j,nue)
------------------------

IBATCH = 1 of  2
IBATCH = 2 of  2
Closing buffer KAO     (51.03 GB; CompressionRatio= 1.00)
Collecting buffer KAO 
N(AO-Batches) Done                         ...  85380426 
N(AO-Batches) Skipped                      ...  82393388 
N(IJ)-pairs Skipped                        ...         0 
TOTAL TIME for half transformation         ...  3198.746 sec
AO-integral generation                     ...   190.489 sec
Half transformation                        ...   373.687 sec
K-integral sorting                         ...  2451.284 sec
Process 13:   Internal MO 156
Process 10:   Internal MO 132
Process  1:   Internal MO  60

Finished integral transformation - now doing MP2 part

OPERATOR COMBINATION   0   0: ij=( 52..178, 52..178)
Process  7:   Internal MO 108
Process  4:   Internal MO  84
Process  0:   Internal MO  54
Process  2:   Internal MO  69
Process  0:   Internal MO  57
Process  1:   Internal MO  63
Process  5:   Internal MO  93
Process  3:   Internal MO  78
Process  8:   Internal MO 117
Process  2:   Internal MO  72
Process  1:   Internal MO  66
Process 11:   Internal MO 141
Process 14:   Internal MO 165
Process  2:   Internal MO  75
Process  3:   Internal MO  81
Process  5:   Internal MO  96
Process  9:   Internal MO 126
Process  7:   Internal MO 111
Process 12:   Internal MO 150
Process  6:   Internal MO 102
Process  4:   Internal MO  87
Process 10:   Internal MO 135
Process  5:   Internal MO  99
Process 15:   Internal MO 174
Process  8:   Internal MO 120
Process 13:   Internal MO 159
Process  7:   Internal MO 114
Process  9:   Internal MO 129
Process  4:   Internal MO  90
Process 11:   Internal MO 144
Process  6:   Internal MO 105
Process  8:   Internal MO 123
Process 14:   Internal MO 168
Process 12:   Internal MO 153
Process 10:   Internal MO 138
Process 15:   Internal MO 177
Process 13:   Internal MO 162
Process 11:   Internal MO 147
Process 14:   Internal MO 171
-----------------------------------------------
 MP2 CORRELATION ENERGY   :     -7.288127118 Eh
-----------------------------------------------


-------
TIMINGS
-------
Total time                : 3768.986 sec
Integral trafo            : 3201.020 sec ( 84.9%)
K(i,j)                    :    6.536 sec (  0.2%)
T(i,j)                    :    0.128 sec (  0.0%)

---------------------------------------
MP2 TOTAL ENERGY:    -2130.916083539 Eh
---------------------------------------

Maximum memory used throughout the entire MP2-calculation: 2275.2 MB

-------------------------   --------------------
FINAL SINGLE POINT ENERGY     -2130.916083538935
-------------------------   --------------------


                            ***************************************
                            *     ORCA property calculations      *
                            ***************************************


  WARNING: The energy has been calculated at the MP2 level but the densities
           used in the property calculations are still SCF densities
           MP2 response densities have not been calculated 
           use %mp2 Density relaxed end
           or  %mp2 Density unrelaxed end

                                    ---------------------
                                    Active property flags
                                    ---------------------
   (+) Dipole Moment


------------------------------------------------------------------------------
                       ORCA ELECTRIC PROPERTIES CALCULATION
------------------------------------------------------------------------------

Dipole Moment Calculation                       ... on
Quadrupole Moment Calculation                   ... off
Polarizability Calculation                      ... off
GBWName                                         ... /scratch/allen/tmpyp4_amber_gaff2/conf1/conf1/Conf127.orca.gbw
Electron density                                ... /scratch/allen/tmpyp4_amber_gaff2/conf1/conf1/Conf127.orca.scfp
The origin for moment calculation is the CENTER OF MASS  = ( 0.002968, -0.002108  0.003001)

-------------
DIPOLE MOMENT
-------------
                                X             Y             Z
Electronic contribution:      0.48372      -1.89349      -0.21108
Nuclear contribution   :      0.00883       0.19169       0.22762
                        -----------------------------------------
Total Dipole Moment    :      0.49255      -1.70180       0.01655
                        -----------------------------------------
Magnitude (a.u.)       :      1.77172
Magnitude (Debye)      :      4.50335



--------------------
Rotational spectrum 
--------------------
 
Rotational constants in cm-1:     0.001498     0.001475     0.000762 
Rotational constants in MHz :    44.923199    44.222610    22.840170 

 Dipole components along the rotational axes: 
x,y,z [a.u.] :     1.024893    -1.445055     0.019919 
x,y,z [Debye]:     2.605071    -3.673039     0.050629 

 

Timings for individual modules:

Sum of individual times         ...     5324.971 sec (=  88.750 min)
GTO integral calculation        ...        3.241 sec (=   0.054 min)   0.1 %
SCF iterations                  ...     1536.076 sec (=  25.601 min)  28.8 %
MP2 module                      ...     3785.654 sec (=  63.094 min)  71.1 %
                             ****ORCA TERMINATED NORMALLY****
TOTAL RUN TIME: 0 days 1 hours 28 minutes 48 seconds 474 msec
# of primitive gaussian functions

