
                                 *****************
                                 * O   R   C   A *
                                 *****************

                                            #,                                       
                                            ###                                      
                                            ####                                     
                                            #####                                    
                                            ######                                   
                                           ########,                                 
                                     ,,################,,,,,                         
                               ,,#################################,,                 
                          ,,##########################################,,             
                       ,#########################################, ''#####,          
                    ,#############################################,,   '####,        
                  ,##################################################,,,,####,       
                ,###########''''           ''''###############################       
              ,#####''   ,,,,##########,,,,          '''####'''          '####       
            ,##' ,,,,###########################,,,                        '##       
           ' ,,###''''                  '''############,,,                           
         ,,##''                                '''############,,,,        ,,,,,,###''
      ,#''                                            '''#######################'''  
     '                                                          ''''####''''         
             ,#######,   #######,   ,#######,      ##                                
            ,#'     '#,  ##    ##  ,#'     '#,    #''#        ######   ,####,        
            ##       ##  ##   ,#'  ##            #'  '#       #        #'  '#        
            ##       ##  #######   ##           ,######,      #####,   #    #        
            '#,     ,#'  ##    ##  '#,     ,#' ,#      #,         ##   #,  ,#        
             '#######'   ##     ##  '#######'  #'      '#     #####' # '####'        



                  #######################################################
                  #                        -***-                        #
                  #          Department of theory and spectroscopy      #
                  #    Directorship and core code : Frank Neese         #
                  #        Max Planck Institute fuer Kohlenforschung    #
                  #                Kaiser Wilhelm Platz 1               #
                  #                 D-45470 Muelheim/Ruhr               #
                  #                      Germany                        #
                  #                                                     #
                  #                  All rights reserved                #
                  #                        -***-                        #
                  #######################################################


                         Program Version 5.0.4 -  RELEASE  -


 With contributions from (in alphabetic order):
   Daniel Aravena         : Magnetic Suceptibility
   Michael Atanasov       : Ab Initio Ligand Field Theory (pilot matlab implementation)
   Alexander A. Auer      : GIAO ZORA, VPT2 properties, NMR spectrum
   Ute Becker             : Parallelization
   Giovanni Bistoni       : ED, misc. LED, open-shell LED, HFLD
   Martin Brehm           : Molecular dynamics
   Dmytro Bykov           : SCF Hessian
   Vijay G. Chilkuri      : MRCI spin determinant printing, contributions to CSF-ICE
   Dipayan Datta          : RHF DLPNO-CCSD density
   Achintya Kumar Dutta   : EOM-CC, STEOM-CC
   Dmitry Ganyushin       : Spin-Orbit,Spin-Spin,Magnetic field MRCI
   Miquel Garcia          : C-PCM and meta-GGA Hessian, CC/C-PCM, Gaussian charge scheme
   Yang Guo               : DLPNO-NEVPT2, F12-NEVPT2, CIM, IAO-localization
   Andreas Hansen         : Spin unrestricted coupled pair/coupled cluster methods
   Benjamin Helmich-Paris : MC-RPA, TRAH-SCF, COSX integrals
   Lee Huntington         : MR-EOM, pCC
   Robert Izsak           : Overlap fitted RIJCOSX, COSX-SCS-MP3, EOM
   Marcus Kettner         : VPT2
   Christian Kollmar      : KDIIS, OOCD, Brueckner-CCSD(T), CCSD density, CASPT2, CASPT2-K
   Simone Kossmann        : Meta GGA functionals, TD-DFT gradient, OOMP2, MP2 Hessian
   Martin Krupicka        : Initial AUTO-CI
   Lucas Lang             : DCDCAS
   Marvin Lechner         : AUTO-CI (C++ implementation), FIC-MRCC
   Dagmar Lenk            : GEPOL surface, SMD
   Dimitrios Liakos       : Extrapolation schemes; Compound Job, initial MDCI parallelization
   Dimitrios Manganas     : Further ROCIS development; embedding schemes
   Dimitrios Pantazis     : SARC Basis sets
   Anastasios Papadopoulos: AUTO-CI, single reference methods and gradients
   Taras Petrenko         : DFT Hessian,TD-DFT gradient, ASA, ECA, R-Raman, ABS, FL, XAS/XES, NRVS
   Peter Pinski           : DLPNO-MP2, DLPNO-MP2 Gradient
   Christoph Reimann      : Effective Core Potentials
   Marius Retegan         : Local ZFS, SOC
   Christoph Riplinger    : Optimizer, TS searches, QM/MM, DLPNO-CCSD(T), (RO)-DLPNO pert. Triples
   Tobias Risthaus        : Range-separated hybrids, TD-DFT gradient, RPA, STAB
   Michael Roemelt        : Original ROCIS implementation
   Masaaki Saitow         : Open-shell DLPNO-CCSD energy and density
   Barbara Sandhoefer     : DKH picture change effects
   Avijit Sen             : IP-ROCIS
   Kantharuban Sivalingam : CASSCF convergence, NEVPT2, FIC-MRCI
   Bernardo de Souza      : ESD, SOC TD-DFT
   Georgi Stoychev        : AutoAux, RI-MP2 NMR, DLPNO-MP2 response
   Willem Van den Heuvel  : Paramagnetic NMR
   Boris Wezisla          : Elementary symmetry handling
   Frank Wennmohs         : Technical directorship


 We gratefully acknowledge several colleagues who have allowed us to
 interface, adapt or use parts of their codes:
   Stefan Grimme, W. Hujo, H. Kruse, P. Pracht,  : VdW corrections, initial TS optimization,
                  C. Bannwarth, S. Ehlert          DFT functionals, gCP, sTDA/sTD-DF
   Ed Valeev, F. Pavosevic, A. Kumar             : LibInt (2-el integral package), F12 methods
   Garnet Chan, S. Sharma, J. Yang, R. Olivares  : DMRG
   Ulf Ekstrom                                   : XCFun DFT Library
   Mihaly Kallay                                 : mrcc  (arbitrary order and MRCC methods)
   Jiri Pittner, Ondrej Demel                    : Mk-CCSD
   Frank Weinhold                                : gennbo (NPA and NBO analysis)
   Christopher J. Cramer and Donald G. Truhlar   : smd solvation model
   Lars Goerigk                                  : TD-DFT with DH, B97 family of functionals
   V. Asgeirsson, H. Jonsson                     : NEB implementation
   FAccTs GmbH                                   : IRC, NEB, NEB-TS, DLPNO-Multilevel, CI-OPT
                                                   MM, QMMM, 2- and 3-layer-ONIOM, Crystal-QMMM,
                                                   LR-CPCM, SF, NACMEs, symmetry and pop. for TD-DFT,
                                                   nearIR, NL-DFT gradient (VV10), updates on ESD,
                                                   ML-optimized integration grids
   S Lehtola, MJT Oliveira, MAL Marques          : LibXC Library
   Liviu Ungur et al                             : ANISO software


 Your calculation uses the libint2 library for the computation of 2-el integrals
 For citations please refer to: http://libint.valeyev.net

 Your ORCA version has been built with support for libXC version: 5.1.0
 For citations please refer to: https://tddft.org/programs/libxc/

 This ORCA versions uses:
   CBLAS   interface :  Fast vector & matrix operations
   LAPACKE interface :  Fast linear algebra routines
   SCALAPACK package :  Parallel linear algebra routines
   Shared memory     :  Shared parallel matrices
   BLAS/LAPACK       :  OpenBLAS 0.3.15  USE64BITINT DYNAMIC_ARCH NO_AFFINITY Sandybridge SINGLE_THREADED
        Core in use  :  Sandybridge
   Copyright (c) 2011-2014, The OpenBLAS Project


================================================================================

----- Orbital basis set information -----
Your calculation utilizes the basis: cc-pVDZ 
       H, B-Ne : Obtained from the ccRepo (grant-hill.group.shef.ac.uk/ccrepo) Feb. 2017
                 T. H. Dunning, Jr., J. Chem. Phys. 90, 1007 (1989)
            He : Obtained from the ccRepo (grant-hill.group.shef.ac.uk/ccrepo) Feb. 2017
                 D. E. Woon, T. H. Dunning, Jr., J. Chem. Phys. 100, 2975 (1994)
  Li-Be, Na-Mg : Obtained from the ccRepo (grant-hill.group.shef.ac.uk/ccrepo) Feb. 2017
                 B. P. Prascher, D. E. Woon, K. A. Peterson, T. H. Dunning, Jr., A. K. Wilson, Theor. Chem. Acc. 128, 69 (2011)
         Al-Ar : Obtained from the ccRepo (grant-hill.group.shef.ac.uk/ccrepo) Feb. 2017
                 D. E. Woon, T. H. Dunning, Jr., J. Chem. Phys. 98, 1358 (1993)
            Ca : Obtained from the Peterson Research Group Website (tyr0.chem.wsu.edu/~kipeters) Feb. 2017
                 J. Koput, K. A. Peterson, J. Phys. Chem. 106, 9595 (2002)
         Sc-Zn : Obtained from the ccRepo (grant-hill.group.shef.ac.uk/ccrepo) Feb. 2017
                 N. B. Balabanov, K. A. Peterson, J. Chem. Phys. 123, 064107 (2005)
                 N. B. Balabanov, K. A. Peterson, J. Chem. Phys. 125, 074110 (2006)
         Ga-Kr : Obtained from the ccRepo (grant-hill.group.shef.ac.uk/ccrepo) Feb. 2017
                 A. K. Wilson, D. E. Woon, K. A. Peterson, T. H. Dunning, Jr., J. Chem. Phys. 110, 7667 (1999)

================================================================================
                                        WARNINGS
                       Please study these warnings very carefully!
================================================================================


WARNING: No MP2 level density has been requested!
         To caclulate MP2 level properties use
         %mp2 Density relaxed end
         or
         %mp2 Density unrelaxed end

WARNING: Post HF methods need fully converged wavefunctions
  ===> : Setting SCFConvForced true
         You can overwrite this default with %scf ConvForced false 


INFO   : the flag for use of the SHARK integral package has been found!

================================================================================
                                       INPUT FILE
================================================================================
NAME = /scratch/allen/tmpyp4_amber_gaff2/2.Mdgx/conf11/conf11/Conf167.orca
|  1> ! PAL2
|  2> ! mp2 cc-pvdz TightSCF  NoKeepInts
|  3> 
|  4> %scf
|  5>   MaxCore 2000
|  6> end
|  7> %mp2
|  8>   MaxCore 2000
|  9> end
| 10> * xyz 0 1
| 11>    C       -4.92500         5.20900        -0.22100
| 12>    C        1.47400         4.04100         0.05700
| 13>    C       -2.80200         4.09300         0.04900
| 14>    C       -2.24300         5.34200         0.36100
| 15>    C       -3.03600         6.47200         0.37500
| 16>    C       -5.18500         7.62100         0.14300
| 17>    C        0.13200         4.30700         0.06100
| 18>    C       -0.56900         3.05600         0.04700
| 19>    C        1.64900         2.61800         0.02300
| 20>    C       -4.17400         4.04900        -0.24200
| 21>    N       -4.35500         6.39700         0.08300
| 22>    N        0.38800         2.06700         0.02500
| 23>    N       -2.01000         0.39500        -0.07500
| 24>    N       -0.38800        -2.07400        -0.02700
| 25>    N        2.01000        -0.40100         0.06500
| 26>    C       -1.96000         2.86100         0.02400
| 27>    C       -2.62300         1.61500        -0.01800
| 28>    C       -5.57300        -4.32900         1.06600
| 29>    C       -4.07300         1.47100         0.05600
| 30>    C       -4.10600        -2.75600        -0.02600
| 31>    C       -4.99500        -2.75700        -1.11100
| 32>    C       -6.13200        -3.54200        -1.07600
| 33>    C       -7.65100        -5.11300         0.04000
| 34>    C       -4.32400         0.14100         0.03700
| 35>    C       -3.02500        -0.52000        -0.04800
| 36>    C       -4.42200        -3.56600         1.07500
| 37>    N       -6.40700        -4.31300         0.00100
| 38>    C       -2.86700        -1.92200        -0.04000
| 39>    C       -1.65000        -2.62400        -0.02700
| 40>    C        3.56800        -6.14200        -1.04000
| 41>    C       -1.47600        -4.04900        -0.03400
| 42>    C        2.80300        -4.09900        -0.00800
| 43>    C        3.65700        -4.38400         1.06900
| 44>    C        4.42700        -5.53000         1.05900
| 45>    C        5.24500        -7.58800         0.01400
| 46>    C       -0.13400        -4.31500        -0.02200
| 47>    C        0.56800        -3.06400        -0.02700
| 48>    C        2.77500        -5.01200        -1.07400
| 49>    N        4.37600        -6.39100         0.01700
| 50>    C        1.95900        -2.86900        -0.00900
| 51>    C        2.62100        -1.62200         0.00900
| 52>    C        5.54300         4.33900        -1.13000
| 53>    C        4.07000        -1.47900        -0.09400
| 54>    C        4.10400         2.75100        -0.02100
| 55>    C        5.02700         2.72900         1.03600
| 56>    C        6.16600         3.50900         0.97800
| 57>    C        7.61900         5.15300        -0.11500
| 58>    C        4.32100        -0.14800        -0.09200
| 59>    C        3.02500         0.51400         0.01500
| 60>    C        4.38700         3.58200        -1.11500
| 61>    C        2.86600         1.91600         0.01300
| 62>    N        6.41300         4.29600        -0.09500
| 63>    H       -5.98300         5.22400        -0.45100
| 64>    H        2.27400         4.76600         0.08100
| 65>    H       -1.19200         5.43900         0.60400
| 66>    H       -2.65200         7.45500         0.61800
| 67>    H       -5.52700         7.76800         1.17000
| 68>    H       -4.58200         8.47000        -0.17700
| 69>    H       -6.03900         7.49800        -0.52200
| 70>    H       -0.33200         5.28200         0.06900
| 71>    H       -4.66100         3.11700        -0.50500
| 72>    H        0.18200         1.07200         0.00500
| 73>    H       -0.18300        -1.08000        -0.02100
| 74>    H       -5.86400        -4.96200         1.89500
| 75>    H       -4.79400         2.27200         0.13900
| 76>    H       -4.80000        -2.16000        -1.99400
| 77>    H       -6.84100        -3.58200        -1.89300
| 78>    H       -8.42800        -4.53600         0.54600
| 79>    H       -7.95600        -5.33700        -0.98100
| 80>    H       -7.45600        -6.03700         0.58400
| 81>    H       -5.28700        -0.34400         0.10000
| 82>    H       -3.78000        -3.60100         1.94700
| 83>    H        3.58700        -6.86800        -1.84300
| 84>    H       -2.27600        -4.77400        -0.05000
| 85>    H        3.71400        -3.72400         1.92600
| 86>    H        5.09200        -5.79500         1.87100
| 87>    H        6.20500        -7.32900        -0.43900
| 88>    H        5.39300        -7.91700         1.04200
| 89>    H        4.75900        -8.37300        -0.56400
| 90>    H        0.32900        -5.29000        -0.00800
| 91>    H        2.14600        -4.84200        -1.94000
| 92>    H        5.80800         4.98600        -1.95600
| 93>    H        4.78800        -2.28100        -0.18500
| 94>    H        4.86000         2.11400         1.91200
| 95>    H        6.90100         3.53100         1.77200
| 96>    H        7.38300         6.10900         0.35600
| 97>    H        8.41400         4.65200         0.43500
| 98>    H        7.92100         5.31000        -1.15000
| 99>    H        5.28300         0.33600        -0.17900
|100>    H        3.72000         3.63200        -1.96700
|101> *
|102> 
|103>                          ****END OF INPUT****
================================================================================

                       ****************************
                       * Single Point Calculation *
                       ****************************

---------------------------------
CARTESIAN COORDINATES (ANGSTROEM)
---------------------------------
  C     -4.925000    5.209000   -0.221000
  C      1.474000    4.041000    0.057000
  C     -2.802000    4.093000    0.049000
  C     -2.243000    5.342000    0.361000
  C     -3.036000    6.472000    0.375000
  C     -5.185000    7.621000    0.143000
  C      0.132000    4.307000    0.061000
  C     -0.569000    3.056000    0.047000
  C      1.649000    2.618000    0.023000
  C     -4.174000    4.049000   -0.242000
  N     -4.355000    6.397000    0.083000
  N      0.388000    2.067000    0.025000
  N     -2.010000    0.395000   -0.075000
  N     -0.388000   -2.074000   -0.027000
  N      2.010000   -0.401000    0.065000
  C     -1.960000    2.861000    0.024000
  C     -2.623000    1.615000   -0.018000
  C     -5.573000   -4.329000    1.066000
  C     -4.073000    1.471000    0.056000
  C     -4.106000   -2.756000   -0.026000
  C     -4.995000   -2.757000   -1.111000
  C     -6.132000   -3.542000   -1.076000
  C     -7.651000   -5.113000    0.040000
  C     -4.324000    0.141000    0.037000
  C     -3.025000   -0.520000   -0.048000
  C     -4.422000   -3.566000    1.075000
  N     -6.407000   -4.313000    0.001000
  C     -2.867000   -1.922000   -0.040000
  C     -1.650000   -2.624000   -0.027000
  C      3.568000   -6.142000   -1.040000
  C     -1.476000   -4.049000   -0.034000
  C      2.803000   -4.099000   -0.008000
  C      3.657000   -4.384000    1.069000
  C      4.427000   -5.530000    1.059000
  C      5.245000   -7.588000    0.014000
  C     -0.134000   -4.315000   -0.022000
  C      0.568000   -3.064000   -0.027000
  C      2.775000   -5.012000   -1.074000
  N      4.376000   -6.391000    0.017000
  C      1.959000   -2.869000   -0.009000
  C      2.621000   -1.622000    0.009000
  C      5.543000    4.339000   -1.130000
  C      4.070000   -1.479000   -0.094000
  C      4.104000    2.751000   -0.021000
  C      5.027000    2.729000    1.036000
  C      6.166000    3.509000    0.978000
  C      7.619000    5.153000   -0.115000
  C      4.321000   -0.148000   -0.092000
  C      3.025000    0.514000    0.015000
  C      4.387000    3.582000   -1.115000
  C      2.866000    1.916000    0.013000
  N      6.413000    4.296000   -0.095000
  H     -5.983000    5.224000   -0.451000
  H      2.274000    4.766000    0.081000
  H     -1.192000    5.439000    0.604000
  H     -2.652000    7.455000    0.618000
  H     -5.527000    7.768000    1.170000
  H     -4.582000    8.470000   -0.177000
  H     -6.039000    7.498000   -0.522000
  H     -0.332000    5.282000    0.069000
  H     -4.661000    3.117000   -0.505000
  H      0.182000    1.072000    0.005000
  H     -0.183000   -1.080000   -0.021000
  H     -5.864000   -4.962000    1.895000
  H     -4.794000    2.272000    0.139000
  H     -4.800000   -2.160000   -1.994000
  H     -6.841000   -3.582000   -1.893000
  H     -8.428000   -4.536000    0.546000
  H     -7.956000   -5.337000   -0.981000
  H     -7.456000   -6.037000    0.584000
  H     -5.287000   -0.344000    0.100000
  H     -3.780000   -3.601000    1.947000
  H      3.587000   -6.868000   -1.843000
  H     -2.276000   -4.774000   -0.050000
  H      3.714000   -3.724000    1.926000
  H      5.092000   -5.795000    1.871000
  H      6.205000   -7.329000   -0.439000
  H      5.393000   -7.917000    1.042000
  H      4.759000   -8.373000   -0.564000
  H      0.329000   -5.290000   -0.008000
  H      2.146000   -4.842000   -1.940000
  H      5.808000    4.986000   -1.956000
  H      4.788000   -2.281000   -0.185000
  H      4.860000    2.114000    1.912000
  H      6.901000    3.531000    1.772000
  H      7.383000    6.109000    0.356000
  H      8.414000    4.652000    0.435000
  H      7.921000    5.310000   -1.150000
  H      5.283000    0.336000   -0.179000
  H      3.720000    3.632000   -1.967000

----------------------------
CARTESIAN COORDINATES (A.U.)
----------------------------
  NO LB      ZA    FRAG     MASS         X           Y           Z
   0 C     6.0000    0    12.011   -9.306901    9.843583   -0.417629
   1 C     6.0000    0    12.011    2.785456    7.636383    0.107714
   2 C     6.0000    0    12.011   -5.295013    7.734649    0.092597
   3 C     6.0000    0    12.011   -4.238656   10.094917    0.682191
   4 C     6.0000    0    12.011   -5.737209   12.230308    0.708647
   5 C     6.0000    0    12.011   -9.798230   14.401603    0.270231
   6 C     6.0000    0    12.011    0.249444    8.139050    0.115273
   7 C     6.0000    0    12.011   -1.075254    5.775003    0.088817
   8 C     6.0000    0    12.011    3.116158    4.947303    0.043464
   9 C     6.0000    0    12.011   -7.887717    7.651501   -0.457314
  10 N     7.0000    0    14.007   -8.229757   12.088578    0.156847
  11 N     7.0000    0    14.007    0.733214    3.906064    0.047243
  12 N     7.0000    0    14.007   -3.798350    0.746442   -0.141729
  13 N     7.0000    0    14.007   -0.733214   -3.919292   -0.051023
  14 N     7.0000    0    14.007    3.798350   -0.757780    0.122832
  15 C     6.0000    0    12.011   -3.703863    5.406506    0.045353
  16 C     6.0000    0    12.011   -4.956752    3.051908   -0.034015
  17 C     6.0000    0    12.011  -10.531444   -8.180624    2.014448
  18 C     6.0000    0    12.011   -7.696855    2.779787    0.105825
  19 C     6.0000    0    12.011   -7.759216   -5.208085   -0.049133
  20 C     6.0000    0    12.011   -9.439182   -5.209975   -2.099486
  21 C     6.0000    0    12.011  -11.587801   -6.693410   -2.033345
  22 C     6.0000    0    12.011  -14.458295   -9.662170    0.075589
  23 C     6.0000    0    12.011   -8.171176    0.266451    0.069920
  24 C     6.0000    0    12.011   -5.716422   -0.982658   -0.090707
  25 C     6.0000    0    12.011   -8.356369   -6.738763    2.031456
  26 N     7.0000    0    14.007  -12.107475   -8.150389    0.001890
  27 C     6.0000    0    12.011   -5.417845   -3.632054   -0.075589
  28 C     6.0000    0    12.011   -3.118048   -4.958641   -0.051023
  29 C     6.0000    0    12.011    6.742543  -11.606698   -1.965315
  30 C     6.0000    0    12.011   -2.789236   -7.651501   -0.064251
  31 C     6.0000    0    12.011    5.296902   -7.745987   -0.015118
  32 C     6.0000    0    12.011    6.910728   -8.284559    2.020117
  33 C     6.0000    0    12.011    8.365818  -10.450186    2.001220
  34 C     6.0000    0    12.011    9.911614  -14.339242    0.026456
  35 C     6.0000    0    12.011   -0.253223   -8.154168   -0.041574
  36 C     6.0000    0    12.011    1.073364   -5.790121   -0.051023
  37 C     6.0000    0    12.011    5.243990   -9.471307   -2.029566
  38 N     7.0000    0    14.007    8.269442  -12.077240    0.032125
  39 C     6.0000    0    12.011    3.701973   -5.421624   -0.017008
  40 C     6.0000    0    12.011    4.952972   -3.065136    0.017008
  41 C     6.0000    0    12.011   10.474752    8.199522   -2.135391
  42 C     6.0000    0    12.011    7.691185   -2.794905   -0.177634
  43 C     6.0000    0    12.011    7.755436    5.198637   -0.039684
  44 C     6.0000    0    12.011    9.499653    5.157063    1.957756
  45 C     6.0000    0    12.011   11.652051    6.631049    1.848152
  46 C     6.0000    0    12.011   14.397823    9.737759   -0.217319
  47 C     6.0000    0    12.011    8.165507   -0.279679   -0.173855
  48 C     6.0000    0    12.011    5.716422    0.971319    0.028346
  49 C     6.0000    0    12.011    8.290229    6.768999   -2.107045
  50 C     6.0000    0    12.011    5.415955    3.620715    0.024566
  51 N     7.0000    0    14.007   12.118814    8.118263   -0.179524
  52 H     1.0000    0     1.008  -11.306231    9.871929   -0.852266
  53 H     1.0000    0     1.008    4.297237    9.006435    0.153068
  54 H     1.0000    0     1.008   -2.252554   10.278220    1.141395
  55 H     1.0000    0     1.008   -5.011554   14.087908    1.167851
  56 H     1.0000    0     1.008  -10.444516   14.679393    2.210980
  57 H     1.0000    0     1.008   -8.658725   16.005980   -0.334482
  58 H     1.0000    0     1.008  -11.412056   14.169167   -0.986437
  59 H     1.0000    0     1.008   -0.627389    9.981533    0.130391
  60 H     1.0000    0     1.008   -8.808014    5.890276   -0.954312
  61 H     1.0000    0     1.008    0.343930    2.025786    0.009449
  62 H     1.0000    0     1.008   -0.345820   -2.040904   -0.039684
  63 H     1.0000    0     1.008  -11.081354   -9.376821    3.581031
  64 H     1.0000    0     1.008   -9.059347    4.293458    0.262672
  65 H     1.0000    0     1.008   -9.070685   -4.081808   -3.768114
  66 H     1.0000    0     1.008  -12.927616   -6.768999   -3.577252
  67 H     1.0000    0     1.008  -15.926612   -8.571798    1.031790
  68 H     1.0000    0     1.008  -15.034661  -10.085468   -1.853821
  69 H     1.0000    0     1.008  -14.089798  -11.408277    1.103600
  70 H     1.0000    0     1.008   -9.990982   -0.650066    0.188973
  71 H     1.0000    0     1.008   -7.143165   -6.804904    3.679297
  72 H     1.0000    0     1.008    6.778448  -12.978639   -3.482765
  73 H     1.0000    0     1.008   -4.301017   -9.021553   -0.094486
  74 H     1.0000    0     1.008    7.018443   -7.037340    3.639613
  75 H     1.0000    0     1.008    9.622485  -10.950963    3.535678
  76 H     1.0000    0     1.008   11.725751  -13.849803   -0.829590
  77 H     1.0000    0     1.008   10.191293  -14.960962    1.969095
  78 H     1.0000    0     1.008    8.993207  -15.822677   -1.065806
  79 H     1.0000    0     1.008    0.621720   -9.996651   -0.015118
  80 H     1.0000    0     1.008    4.055352   -9.150054   -3.666069
  81 H     1.0000    0     1.008   10.975529    9.422175   -3.696304
  82 H     1.0000    0     1.008    9.048009   -4.310465   -0.349599
  83 H     1.0000    0     1.008    9.184069    3.994881    3.613156
  84 H     1.0000    0     1.008   13.041000    6.672623    3.348595
  85 H     1.0000    0     1.008   13.951848   11.544337    0.672743
  86 H     1.0000    0     1.008   15.900156    8.791006    0.822031
  87 H     1.0000    0     1.008   14.968521   10.034446   -2.173185
  88 H     1.0000    0     1.008    9.983423    0.634948   -0.338261
  89 H     1.0000    0     1.008    7.029781    6.863485   -3.717091

--------------------------------
INTERNAL COORDINATES (ANGSTROEM)
--------------------------------
 C      0   0   0     0.000000000000     0.00000000     0.00000000
 C      1   0   0     6.510661179942     0.00000000     0.00000000
 C      1   2   0     2.413604151471    17.77956343     0.00000000
 C      3   1   2     1.403504898460    87.92105070    25.31770924
 C      4   3   1     1.380559669120   120.12436020     0.16246478
 C      5   4   3     2.447902367334   152.56056437     1.52973153
 C      2   1   3     1.368114030335     2.75470305   265.14328031
 C      7   2   4     1.434084376876   108.05010202   207.22043140
 C      2   1   3     1.434123425651   107.27313998    15.68330983
 C      1   2   7     1.382042691092    46.84254136   248.15295128
 N      1   2   7     1.352279556896    74.55720124    58.84082312
 N      9   2   1     1.376127174356   106.58526707   356.52179926
 N     12   9   2     2.925062050624   168.53581413   171.12065651
 N     13  12   9     2.954513327098    91.55032014    11.12112580
 N     14  13  12     2.925371258490    88.43092389   359.84326247
 C      8   7   2     1.404790019896   127.24786865   181.11170171
 C     13  12   9     1.366535034311    81.72106996   188.00453233
 C     14  13  12     5.758810554272    80.56209567   166.76250791
 C     17  13  12     1.459010623676   111.08861209   183.82872609
 C     18  14  13     2.412235892279    27.27532823    36.33507194
 C     20  18  14     1.402692767501    87.95206320   148.94598259
 C     21  20  18     1.382106725257   120.14573887   359.70382047
 C     18  14  13     2.446510985056   144.15733107    82.80075377
 C     19  17  13     1.353610726908   106.29293361   359.75308708
 C     13  12   9     1.366813447402   172.21332906    33.46711076
 C     18  14  13     1.380960173213    15.08449437   309.23336894
 N     22  21  20     1.352773077792   120.73759875     0.27865223
 C     25  13  17     1.410897586645   125.60330303   182.37774668
 C     14  13  12     1.376642291955    80.24689249   177.85461986
 C     14  13  12     5.764089607215   164.51507311   312.20821879
 C     29  14  13     1.435600919476   106.58649366   178.76395472
 C     30  14  13     2.413316804732    27.10625047    82.12560436
 C     32  30  14     1.403734305344    87.90059683   149.76154742
 C     33  32  30     1.380694028378   120.14881443   359.74174632
 C     34  33  32     2.448777858443   152.49203239     2.45173620
 C     31  29  14     1.368160809262   108.16950133     0.70383075
 C     14  13  12     1.376239804685   169.26375223   353.09862627
 C     30  14  13     1.380907310430    14.68948582   353.70041132
 N     34  33  32     1.352658863128   120.85575621     0.19603406
 C     37  14  29     1.404717053360   126.01551127   180.90772073
 C     15  14  13     1.366491126938    81.61824056   183.09049352
 C      2   1   3     4.249062720177   156.44676933   140.58015166
 C     41  15  14     1.459677704153   111.05201287   175.08990246
 C     42   2   1     2.412953791518    41.78584867   208.01473347
 C     44  42   2     1.403446472082    87.95153797   233.97558675
 C     45  44  42     1.381696421071   120.11137308     0.19721020
 C     42   2   1     2.450019795838   135.97209175   118.32958257
 C     43  41  15     1.354461516618   106.26758155     0.30894352
 C     15  14  13     1.367461151185   171.87382904   332.35056460
 C     42   2   1     1.381886391857    32.59078432   256.87001266
 C      9   2   1     1.404988612053   126.98745415   177.52613679
 N     42   2   1     1.352765315936   113.57249190   146.06617177
 H      1   2   7     1.082815312045   166.38027656   205.05446144
 H      2   1   3     1.079907866440   127.48893414   193.22556509
 H      4   3   1     1.083078482844   121.06886656   179.52655377
 H      5   4   3     1.082956139463   122.78996458   179.45151938
 H      6   5   4     1.092383632246   104.41301198   100.14397729
 H      6   5   4     1.089408096170    84.70484665   209.62404211
 H      6   5   4     1.089343839199   133.87521270   322.46719937
 H     55   4   3     1.024926338817   133.10992636    64.33398844
 H     10   1   2     1.083956641199   118.76522853   191.39926644
 H     12   9   2     1.016297692608   125.29023241   180.00180175
 H     14  13  12     1.014936943854    44.97226959   359.42596618
 H     18  14  13     1.082871645210   128.03556573   234.20482432
 H     61  10   1     1.070724054087   126.04544845   244.72759232
 H     21  20  18     1.083569563987   121.05669627   180.67006309
 H     22  21  20     1.082483256222   122.73097286   180.59748951
 H     23  18  14     1.092105306278   103.92715769   234.93429879
 H     23  18  14     1.088871893291   134.19244188    12.25587044
 H     23  18  14     1.089833473518    84.85857450   125.45241208
 H     24  19  17     1.080075460327   127.28078426   178.44613241
 H     26  18  14     1.083408048706   118.76995697   244.94906660
 H     30  14  13     1.082703098730   127.99711412   279.66882698
 H     31  29  14     1.079759695488   125.22293469   180.92530585
 H     33  32  30     1.083188810873   121.01964473   180.74284758
 H     34  33  32     1.082494341787   122.70821597   180.59516895
 H     35  34  33     1.092652735319   105.73575241    97.19771933
 H     35  34  33     1.089462711615    84.05943581   206.43036958
 H     35  34  33     1.089268102902   133.08365142   318.50306270
 H     36  31  29     1.079439669458   126.61599965   178.98859863
 H     38  30  73     1.083742127999   118.77264435   359.90091293
 H     42   2   1     1.082178358682   119.31790784     2.69770222
 H     43  41  15     1.080281907652   126.36969097   182.06329380
 H     45  44  42     1.083277434455   121.10105945   179.58025624
 H     46  45  44     1.082194529648   122.72144639   179.46906377
 H     47  42   2     1.091546151109   106.65128841   315.16475048
 H     47  42   2     1.088818625851   132.46019523    94.52397119
 H     47  42   2     1.089531091801    83.63838232   206.04504406
 H     48  43  41     1.080402239909   127.23657387   181.62955349
 H     50  42   2     1.083186502870   118.77001737    94.71359229

---------------------------
INTERNAL COORDINATES (A.U.)
---------------------------
 C      0   0   0     0.000000000000     0.00000000     0.00000000
 C      1   0   0    12.303366580842     0.00000000     0.00000000
 C      1   2   0     4.561050841976    17.77956343     0.00000000
 C      3   1   2     2.652239885706    87.92105070    25.31770924
 C      4   3   1     2.608879686173   120.12436020     0.16246478
 C      5   4   3     4.625865076839   152.56056437     1.52973153
 C      2   1   3     2.585360837309     2.75470305   265.14328031
 C      7   2   4     2.710026725231   108.05010202   207.22043140
 C      2   1   3     2.710100516721   107.27313998    15.68330983
 C      1   2   7     2.611682191551    46.84254136   248.15295128
 N      1   2   7     2.555438019035    74.55720124    58.84082312
 N      9   2   1     2.600503484979   106.58526707   356.52179926
 N     12   9   2     5.527566200405   168.53581413   171.12065651
 N     13  12   9     5.583221047236    91.55032014    11.12112580
 N     14  13  12     5.528150518591    88.43092389   359.84326247
 C      8   7   2     2.654668413270   127.24786865   181.11170171
 C     13  12   9     2.582376967257    81.72106996   188.00453233
 C     14  13  12    10.882574804710    80.56209567   166.76250791
 C     17  13  12     2.757130505230   111.08861209   183.82872609
 C     18  14  13     4.558465206823    27.27532823    36.33507194
 C     20  18  14     2.650705180609    87.95206320   148.94598259
 C     21  20  18     2.611803198586   120.14573887   359.70382047
 C     18  14  13     4.623235745386   144.15733107    82.80075377
 C     19  17  13     2.557953565794   106.29293361   359.75308708
 C     13  12   9     2.582903091751   172.21332906    33.46711076
 C     18  14  13     2.609636529225    15.08449437   309.23336894
 N     22  21  20     2.556370638369   120.73759875     0.27865223
 C     25  13  17     2.666210041769   125.60330303   182.37774668
 C     14  13  12     2.601476916169    80.24689249   177.85461986
 C     14  13  12    10.892550769017   164.51507311   312.20821879
 C     29  14  13     2.712892575415   106.58649366   178.76395472
 C     30  14  13     4.560507835333    27.10625047    82.12560436
 C     32  30  14     2.652673401891    87.90059683   149.76154742
 C     33  32  30     2.609133588376   120.14881443   359.74174632
 C     34  33  32     4.627519515267   152.49203239     2.45173620
 C     31  29  14     2.585449236669   108.16950133     0.70383075
 C     14  13  12     2.600716325456   169.26375223   353.09862627
 C     30  14  13     2.609536633043    14.68948582   353.70041132
 N     34  33  32     2.556154803934   120.85575621     0.19603406
 C     37  14  29     2.654530526499   126.01551127   180.90772073
 C     15  14  13     2.582293994346    81.61824056   183.09049352
 C      2   1   3     8.029564866989   156.44676933   140.58015166
 C     41  15  14     2.758391104639   111.05201287   175.08990246
 C     42   2   1     4.559821839776    41.78584867   208.01473347
 C     44  42   2     2.652129475853    87.95153797   233.97558675
 C     45  44  42     2.611027836043   120.11137308     0.19721020
 C     42   2   1     4.629866436820   135.97209175   118.32958257
 C     43  41  15     2.559561325344   106.26758155     0.30894352
 C     15  14  13     2.584127074516   171.87382904   332.35056460
 C     42   2   1     2.611386828803    32.59078432   256.87001266
 C      9   2   1     2.655043698059   126.98745415   177.52613679
 N     42   2   1     2.556355970587   113.57249190   146.06617177
 H      1   2   7     2.046224393382   166.38027656   205.05446144
 H      2   1   3     2.040730117440   127.48893414   193.22556509
 H      4   3   1     2.046721714118   121.06886656   179.52655377
 H      5   4   3     2.046490518633   122.78996458   179.45151938
 H      6   5   4     2.064305898124   104.41301198   100.14397729
 H      6   5   4     2.058682949837    84.70484665   209.62404211
 H      6   5   4     2.058561521760   133.87521270   322.46719937
 H     55   4   3     1.936830087806   133.10992636    64.33398844
 H     10   1   2     2.048381192912   118.76522853   191.39926644
 H     12   9   2     1.920524309565   125.29023241   180.00180175
 H     14  13  12     1.917952867083    44.97226959   359.42596618
 H     18  14  13     2.046330847636   128.03556573   234.20482432
 H     61  10   1     2.023375227226   126.04544845   244.72759232
 H     21  20  18     2.047649722989   121.05669627   180.67006309
 H     22  21  20     2.045596898814   122.73097286   180.59748951
 H     23  18  14     2.063779938267   103.92715769   234.93429879
 H     23  18  14     2.057669673245   134.19244188    12.25587044
 H     23  18  14     2.059486796529    84.85857450   125.45241208
 H     24  19  17     2.041046823986   127.28078426   178.44613241
 H     26  18  14     2.047344503340   118.76995697   244.94906660
 H     30  14  13     2.046012340948   127.99711412   279.66882698
 H     31  29  14     2.040450114918   125.22293469   180.92530585
 H     33  32  30     2.046930203877   121.01964473   180.74284758
 H     34  33  32     2.045617847496   122.70821597   180.59516895
 H     35  34  33     2.064814429233   105.73575241    97.19771933
 H     35  34  33     2.058786158072    84.05943581   206.43036958
 H     35  34  33     2.058418400901   133.08365142   318.50306270
 H     36  31  29     2.039845353366   126.61599965   178.98859863
 H     38  30  73     2.047975821711   118.77264435   359.90091293
 H     42   2   1     2.045020725966   119.31790784     2.69770222
 H     43  41  15     2.041436952892   126.36969097   182.06329380
 H     45  44  42     2.047097678177   121.10105945   179.58025624
 H     46  45  44     2.045051284662   122.72144639   179.46906377
 H     47  42   2     2.062723288131   106.65128841   315.16475048
 H     47  42   2     2.057569012371   132.46019523    94.52397119
 H     47  42   2     2.058915377895    83.63838232   206.04504406
 H     48  43  41     2.041664347903   127.23657387   181.62955349
 H     50  42   2     2.046925842384   118.77001737    94.71359229

---------------------
BASIS SET INFORMATION
---------------------
There are 3 groups of distinct atoms

 Group   1 Type C   : 17s4p1d contracted to 3s2p1d pattern {881/31/1}
 Group   2 Type N   : 17s4p1d contracted to 3s2p1d pattern {881/31/1}
 Group   3 Type H   : 4s1p contracted to 2s1p pattern {31/1}

Atom   0C    basis set group =>   1
Atom   1N    basis set group =>   2
Atom   2C    basis set group =>   1
Atom   3N    basis set group =>   2
Atom   4C    basis set group =>   1
Atom   5N    basis set group =>   2
Atom   6C    basis set group =>   1
Atom   7N    basis set group =>   2
Atom   8C    basis set group =>   1
Atom   9N    basis set group =>   2
Atom  10C    basis set group =>   1
Atom  11N    basis set group =>   2
Atom  12C    basis set group =>   1
Atom  13N    basis set group =>   2
Atom  14C    basis set group =>   1
Atom  15N    basis set group =>   2
Atom  16C    basis set group =>   1
Atom  17C    basis set group =>   1
Atom  18C    basis set group =>   1
Atom  19C    basis set group =>   1
Atom  20C    basis set group =>   1
Atom  21C    basis set group =>   1
Atom  22C    basis set group =>   1
Atom  23C    basis set group =>   1
Atom  24C    basis set group =>   1
Atom  25C    basis set group =>   1
Atom  26C    basis set group =>   1
Atom  27C    basis set group =>   1
Atom  28C    basis set group =>   1
Atom  29C    basis set group =>   1
Atom  30C    basis set group =>   1
Atom  31C    basis set group =>   1
Atom  32C    basis set group =>   1
Atom  33C    basis set group =>   1
Atom  34C    basis set group =>   1
Atom  35C    basis set group =>   1
Atom  36C    basis set group =>   1
Atom  37C    basis set group =>   1
Atom  38C    basis set group =>   1
Atom  39C    basis set group =>   1
Atom  40C    basis set group =>   1
Atom  41C    basis set group =>   1
Atom  42C    basis set group =>   1
Atom  43C    basis set group =>   1
Atom  44C    basis set group =>   1
Atom  45C    basis set group =>   1
Atom  46C    basis set group =>   1
Atom  47C    basis set group =>   1
Atom  48C    basis set group =>   1
Atom  49C    basis set group =>   1
Atom  50C    basis set group =>   1
Atom  51C    basis set group =>   1
Atom  52H    basis set group =>   3
Atom  53H    basis set group =>   3
Atom  54H    basis set group =>   3
Atom  55H    basis set group =>   3
Atom  56H    basis set group =>   3
Atom  57H    basis set group =>   3
Atom  58H    basis set group =>   3
Atom  59H    basis set group =>   3
Atom  60H    basis set group =>   3
Atom  61H    basis set group =>   3
Atom  62H    basis set group =>   3
Atom  63H    basis set group =>   3
Atom  64H    basis set group =>   3
Atom  65H    basis set group =>   3
Atom  66H    basis set group =>   3
Atom  67H    basis set group =>   3
Atom  68H    basis set group =>   3
Atom  69H    basis set group =>   3
Atom  70H    basis set group =>   3
Atom  71H    basis set group =>   3
Atom  72H    basis set group =>   3
Atom  73H    basis set group =>   3
Atom  74H    basis set group =>   3
Atom  75H    basis set group =>   3
Atom  76H    basis set group =>   3
Atom  77H    basis set group =>   3
Atom  78H    basis set group =>   3
Atom  79H    basis set group =>   3
Atom  80H    basis set group =>   3
Atom  81H    basis set group =>   3
Atom  82H    basis set group =>   3
Atom  83H    basis set group =>   3
Atom  84H    basis set group =>   3
Atom  85H    basis set group =>   3
Atom  86H    basis set group =>   3
Atom  87H    basis set group =>   3
Atom  88H    basis set group =>   3
Atom  89H    basis set group =>   3


           ************************************************************
           *        Program running with 16 parallel MPI-processes    *
           *              working on a common directory               *
           ************************************************************
------------------------------------------------------------------------------
                           ORCA GTO INTEGRAL CALCULATION
------------------------------------------------------------------------------
------------------------------------------------------------------------------
                   ___                                                        
                  /   \      - P O W E R E D   B Y -                         
                 /     \                                                     
                 |  |  |   _    _      __       _____    __    __             
                 |  |  |  | |  | |    /  \     |  _  \  |  |  /  |          
                  \  \/   | |  | |   /    \    | | | |  |  | /  /          
                 / \  \   | |__| |  /  /\  \   | |_| |  |  |/  /          
                |  |  |   |  __  | /  /__\  \  |    /   |      \           
                |  |  |   | |  | | |   __   |  |    \   |  |\   \          
                \     /   | |  | | |  |  |  |  | |\  \  |  | \   \       
                 \___/    |_|  |_| |__|  |__|  |_| \__\ |__|  \__/        
                                                                              
                      - O R C A' S   B I G   F R I E N D -                    
                                      &                                       
                       - I N T E G R A L  F E E D E R -                       
                                                                              
 v1 FN, 2020, v2 2021                                                         
------------------------------------------------------------------------------


Reading SHARK input file /scratch/allen/tmpyp4_amber_gaff2/conf1/conf1/Conf167.orca.SHARKINP.tmp ... ok
----------------------
SHARK INTEGRAL PACKAGE
----------------------

Number of atoms                             ...     90
Number of basis functions                   ...   1230
Number of shells                            ...    738
Maximum angular momentum                    ...      2
Integral batch strategy                     ... SHARK/LIBINT Hybrid
RI-J (if used) integral strategy            ... SPLIT-RIJ (Revised 2003 algorithm where possible)
Printlevel                                  ...      1
Contraction scheme used                     ... PARTIAL GENERAL contraction
Coulomb Range Separation                    ... NOT USED
Exchange Range Separation                   ... NOT USED
Finite Nucleus Model                        ... NOT USED
Auxiliary Coulomb fitting basis             ... NOT available
Auxiliary J/K fitting basis                 ... NOT available
Auxiliary Correlation fitting basis         ... NOT available
Auxiliary 'external' fitting basis          ... NOT available
Integral threshold                          ...     2.500000e-11
Primitive cut-off                           ...     2.500000e-12
Primitive pair pre-selection threshold      ...     2.500000e-12

Calculating pre-screening integrals         ... done (  0.1 sec) Dimension = 738
Calculating pre-screening integrals (ORCA)  ... done (  0.3 sec) Dimension = 426
Organizing shell pair data                  ... done (  0.7 sec)
Shell pair information
Total number of shell pairs                 ...    272691
Shell pairs after pre-screening             ...     71721
Total number of primitive shell pairs       ...    422091
Primitive shell pairs kept                  ...     92635
          la=0 lb=0:  29442 shell pairs
          la=1 lb=0:  26032 shell pairs
          la=1 lb=1:   4702 shell pairs
          la=2 lb=0:   7890 shell pairs
          la=2 lb=1:   3126 shell pairs
          la=2 lb=2:    529 shell pairs

Calculating one electron integrals          ... done (  0.2 sec)
Calculating Nuclear repulsion               ... done (  0.0 sec) ENN=   6234.579562752656 Eh

SHARK setup successfully completed in   2.3 seconds

Maximum memory used throughout the entire GTOINT-calculation: 99.1 MB


           ************************************************************
           *        Program running with 16 parallel MPI-processes    *
           *              working on a common directory               *
           ************************************************************
-------------------------------------------------------------------------------
                                 ORCA SCF
-------------------------------------------------------------------------------

------------
SCF SETTINGS
------------
Hamiltonian:
 Ab initio Hamiltonian  Method          .... Hartree-Fock(GTOs)


General Settings:
 Integral files         IntName         .... /scratch/allen/tmpyp4_amber_gaff2/conf1/conf1/Conf167.orca
 Hartree-Fock type      HFTyp           .... RHF
 Total Charge           Charge          ....    0
 Multiplicity           Mult            ....    1
 Number of Electrons    NEL             ....  358
 Basis Dimension        Dim             ....  918
 Nuclear Repulsion      ENuc            ....   6234.5795627527 Eh

Convergence Acceleration:
 DIIS                   CNVDIIS         .... on
   Start iteration      DIISMaxIt       ....    12
   Startup error        DIISStart       ....  0.200000
   # of expansion vecs  DIISMaxEq       ....     5
   Bias factor          DIISBfac        ....   1.050
   Max. coefficient     DIISMaxC        ....  10.000
 Trust-Rad. Augm. Hess. CNVTRAH         .... auto
   Auto Start mean grad. ratio tolernc. ....  1.125000
   Auto Start start iteration           ....    20
   Auto Start num. interpolation iter.  ....    10
   Max. Number of Micro iterations      ....    16
   Max. Number of Macro iterations      .... Maxiter - #DIIS iter
   Number of Davidson start vectors     ....     2
   Converg. threshold I  (grad. norm)   ....   1.000e-05
   Converg. threshold II (energy diff.) ....   1.000e-08
   Grad. Scal. Fac. for Micro threshold ....   0.100
   Minimum threshold for Micro iter.    ....   0.010
   NR start threshold (gradient norm)   ....   0.001
   Initial trust radius                 ....   0.400
   Minimum AH scaling param. (alpha)    ....   1.000
   Maximum AH scaling param. (alpha)    .... 1000.000
   Orbital update algorithm             .... Taylor
   White noise on init. David. guess    .... on
   Maximum white noise                  ....   0.010
   Quad. conv. algorithm                .... NR
 SOSCF                  CNVSOSCF        .... on
   Start iteration      SOSCFMaxIt      ....   150
   Startup grad/error   SOSCFStart      ....  0.003300
 Level Shifting         CNVShift        .... on
   Level shift para.    LevelShift      ....    0.2500
   Turn off err/grad.   ShiftErr        ....    0.0010
 Zerner damping         CNVZerner       .... off
 Static damping         CNVDamp         .... on
   Fraction old density DampFac         ....    0.7000
   Max. Damping (<1)    DampMax         ....    0.9800
   Min. Damping (>=0)   DampMin         ....    0.0000
   Turn off err/grad.   DampErr         ....    0.1000
 Fernandez-Rico         CNVRico         .... off

SCF Procedure:
 Maximum # iterations   MaxIter         ....   125
 SCF integral mode      SCFMode         .... Direct
   Integral package                     .... SHARK and LIBINT hybrid scheme
 Reset frequency        DirectResetFreq ....    20
 Integral Threshold     Thresh          ....  2.500e-11 Eh
 Primitive CutOff       TCut            ....  2.500e-12 Eh

Convergence Tolerance:
 Convergence Check Mode ConvCheckMode   .... Total+1el-Energy
 Convergence forced     ConvForced      .... 1
 Energy Change          TolE            ....  1.000e-08 Eh
 1-El. energy change                    ....  1.000e-05 Eh
 Orbital Gradient       TolG            ....  1.000e-05
 Orbital Rotation angle TolX            ....  1.000e-05
 DIIS Error             TolErr          ....  5.000e-07


Diagonalization of the overlap matrix:
Smallest eigenvalue                        ... 1.788e-04
Time for diagonalization                   ...    0.444 sec
Threshold for overlap eigenvalues          ... 1.000e-08
Number of eigenvalues below threshold      ... 0
Time for construction of square roots      ...    0.271 sec
Total time needed                          ...    0.722 sec

Time for model grid setup =    1.296 sec

------------------------------
INITIAL GUESS: MODEL POTENTIAL
------------------------------
Loading Hartree-Fock densities                     ... done
Calculating cut-offs                               ... done
Initializing the effective Hamiltonian             ... done
Setting up the integral package (SHARK)            ... done
Starting the Coulomb interaction                   ... done (   1.5 sec)
Reading the grid                                   ... done
Mapping shells                                     ... done
Starting the XC term evaluation                    ... done (   0.2 sec)
Transforming the Hamiltonian                       ... done (   0.3 sec)
Diagonalizing the Hamiltonian                      ... done (   0.4 sec)
Back transforming the eigenvectors                 ... done (   0.1 sec)
Now organizing SCF variables                       ... done
                      ------------------
                      INITIAL GUESS DONE (   3.8 sec)
                      ------------------
--------------
SCF ITERATIONS
--------------
ITER       Energy         Delta-E        Max-DP      RMS-DP      [F,P]     Damp
               ***  Starting incremental Fock matrix formation  ***
  0  -2121.6298719516   0.000000000000 0.08174613  0.00126384  0.2312502 0.7000
  1  -2122.2738167729  -0.643944821317 0.06188847  0.00102972  0.1434952 0.7000
                               ***Turning on DIIS***
  2  -2122.6754189707  -0.401602197768 0.14392317  0.00233820  0.0803042 0.0000
  3  -2118.0399767080   4.635442262708 0.05496585  0.00069476  0.0434580 0.0000
  4  -2123.3697512840  -5.329774576039 0.01707389  0.00023114  0.0091927 0.0000
  5  -2123.5046579525  -0.134906668518 0.00782301  0.00013352  0.0048517 0.0000
  6  -2123.4889312173   0.015726735224 0.00485475  0.00008539  0.0022155 0.0000
  7  -2123.5814796754  -0.092548458071 0.00318294  0.00006722  0.0016289 0.0000
  8  -2123.5883964351  -0.006916759683 0.00335627  0.00006422  0.0015245 0.0000
  9  -2123.5613675276   0.027028907440 0.00269078  0.00004577  0.0012271 0.0000
 10  -2123.5691693899  -0.007801862230 0.00543283  0.00009625  0.0009604 0.0000
                      *** Initiating the SOSCF procedure ***
                           *** Shutting down DIIS ***
                      *** Re-Reading the Fockian *** 
                      *** Removing any level shift *** 
ITER      Energy       Delta-E        Grad      Rot      Max-DP    RMS-DP
 11  -2123.46368360   0.1054857861  0.000181  0.000181  0.000242  0.000005
               *** Restarting incremental Fock matrix formation ***
 12  -2123.52906553  -0.0653819220  0.000902  0.006380  0.001504  0.000035
 13  -2123.52917764  -0.0001121109  0.001111  0.031139  0.006880  0.000139
 14  -2123.52936301  -0.0001853704  0.000395  0.001990  0.000612  0.000013
 15  -2123.52937806  -0.0000150552  0.000152  0.001815  0.000498  0.000012
 16  -2123.52938446  -0.0000063946  0.000141  0.002165  0.000491  0.000008
 17  -2123.52938680  -0.0000023428  0.000107  0.001658  0.000273  0.000006
 18  -2123.52938776  -0.0000009609  0.000054  0.000524  0.000206  0.000003
 19  -2123.52938826  -0.0000004971  0.000039  0.000830  0.000190  0.000004
 20  -2123.52938851  -0.0000002574  0.000019  0.000502  0.000092  0.000002
 21  -2123.52938862  -0.0000001076  0.000022  0.000676  0.000108  0.000002
 22  -2123.52938872  -0.0000001009  0.000016  0.000721  0.000118  0.000002
 23  -2123.52938879  -0.0000000706  0.000011  0.000394  0.000068  0.000001
 24  -2123.52938883  -0.0000000368  0.000006  0.000344  0.000053  0.000001
 25  -2123.52938886  -0.0000000276  0.000007  0.000133  0.000030  0.000001
 26  -2123.52938887  -0.0000000160  0.000005  0.000086  0.000027  0.000000
 27  -2123.52938888  -0.0000000083  0.000003  0.000078  0.000019  0.000000
                 **** Energy Check signals convergence ****
              ***Rediagonalizing the Fockian in SOSCF/NRSCF***

               *****************************************************
               *                     SUCCESS                       *
               *           SCF CONVERGED AFTER  28 CYCLES          *
               *****************************************************


----------------
TOTAL SCF ENERGY
----------------

Total Energy       :        -2123.52938889 Eh          -57784.17236 eV

Components:
Nuclear Repulsion  :         6234.57956275 Eh          169651.53482 eV
Electronic Energy  :        -8358.10895164 Eh         -227435.70718 eV
One Electron Energy:       -15309.72854344 Eh         -416598.89315 eV
Two Electron Energy:         6951.61959180 Eh          189163.18596 eV

Virial components:
Potential Energy   :        -4245.99128560 Eh         -115539.29679 eV
Kinetic Energy     :         2122.46189671 Eh           57755.12442 eV
Virial Ratio       :            2.00050295


---------------
SCF CONVERGENCE
---------------

  Last Energy change         ...   -5.2933e-09  Tolerance :   1.0000e-08
  Last MAX-Density change    ...    1.0170e-05  Tolerance :   1.0000e-07
  Last RMS-Density change    ...    2.0246e-07  Tolerance :   5.0000e-09
  Last Orbital Gradient      ...    1.7869e-06  Tolerance :   1.0000e-05
  Last Orbital Rotation      ...    5.4263e-05  Tolerance :   1.0000e-05

             **** THE GBW FILE WAS UPDATED (/scratch/allen/tmpyp4_amber_gaff2/conf1/conf1/Conf167.orca.gbw) ****
             **** DENSITY /scratch/allen/tmpyp4_amber_gaff2/conf1/conf1/Conf167.orca.scfp WAS UPDATED ****
             **** ENERGY FILE WAS UPDATED (/scratch/allen/tmpyp4_amber_gaff2/conf1/conf1/Conf167.orca.en.tmp) ****
             **** THE GBW FILE WAS UPDATED (/scratch/allen/tmpyp4_amber_gaff2/conf1/conf1/Conf167.orca.gbw) ****
             **** DENSITY /scratch/allen/tmpyp4_amber_gaff2/conf1/conf1/Conf167.orca.scfp WAS UPDATED ****
----------------
ORBITAL ENERGIES
----------------

  NO   OCC          E(Eh)            E(eV) 
   0   2.0000     -15.679798      -426.6690 
   1   2.0000     -15.635637      -425.4673 
   2   2.0000     -15.630347      -425.3234 
   3   2.0000     -15.587527      -424.1582 
   4   2.0000     -15.525590      -422.4728 
   5   2.0000     -15.515398      -422.1954 
   6   2.0000     -15.453412      -420.5087 
   7   2.0000     -15.440449      -420.1560 
   8   2.0000     -11.329627      -308.2948 
   9   2.0000     -11.328132      -308.2542 
  10   2.0000     -11.327926      -308.2485 
  11   2.0000     -11.300349      -307.4981 
  12   2.0000     -11.297438      -307.4189 
  13   2.0000     -11.294379      -307.3357 
  14   2.0000     -11.289945      -307.2150 
  15   2.0000     -11.288042      -307.1633 
  16   2.0000     -11.285279      -307.0881 
  17   2.0000     -11.282063      -307.0005 
  18   2.0000     -11.269747      -306.6654 
  19   2.0000     -11.263375      -306.4920 
  20   2.0000     -11.262394      -306.4653 
  21   2.0000     -11.251111      -306.1583 
  22   2.0000     -11.249424      -306.1124 
  23   2.0000     -11.239354      -305.8384 
  24   2.0000     -11.235192      -305.7251 
  25   2.0000     -11.232388      -305.6488 
  26   2.0000     -11.231742      -305.6312 
  27   2.0000     -11.228638      -305.5468 
  28   2.0000     -11.228335      -305.5385 
  29   2.0000     -11.211807      -305.0888 
  30   2.0000     -11.210304      -305.0479 
  31   2.0000     -11.193812      -304.5991 
  32   2.0000     -11.191543      -304.5374 
  33   2.0000     -11.190725      -304.5151 
  34   2.0000     -11.187946      -304.4395 
  35   2.0000     -11.187689      -304.4325 
  36   2.0000     -11.186336      -304.3957 
  37   2.0000     -11.176503      -304.1281 
  38   2.0000     -11.175650      -304.1049 
  39   2.0000     -11.175293      -304.0952 
  40   2.0000     -11.173432      -304.0445 
  41   2.0000     -11.169587      -303.9399 
  42   2.0000     -11.169365      -303.9339 
  43   2.0000     -11.161299      -303.7144 
  44   2.0000     -11.160439      -303.6910 
  45   2.0000     -11.157322      -303.6062 
  46   2.0000     -11.155780      -303.5642 
  47   2.0000     -11.153121      -303.4919 
  48   2.0000     -11.145929      -303.2961 
  49   2.0000     -11.134735      -302.9916 
  50   2.0000     -11.130268      -302.8700 
  51   2.0000     -11.117776      -302.5301 
  52   2.0000      -1.360377       -37.0178 
  53   2.0000      -1.322650       -35.9911 
  54   2.0000      -1.318343       -35.8739 
  55   2.0000      -1.280482       -34.8437 
  56   2.0000      -1.226771       -33.3821 
  57   2.0000      -1.209964       -32.9248 
  58   2.0000      -1.172959       -31.9178 
  59   2.0000      -1.151148       -31.3243 
  60   2.0000      -1.143626       -31.1197 
  61   2.0000      -1.111335       -30.2410 
  62   2.0000      -1.107991       -30.1500 
  63   2.0000      -1.082071       -29.4447 
  64   2.0000      -1.077038       -29.3077 
  65   2.0000      -1.046771       -28.4841 
  66   2.0000      -1.043054       -28.3829 
  67   2.0000      -1.041187       -28.3321 
  68   2.0000      -1.015266       -27.6268 
  69   2.0000      -1.012520       -27.5521 
  70   2.0000      -1.008685       -27.4477 
  71   2.0000      -0.994162       -27.0525 
  72   2.0000      -0.985493       -26.8166 
  73   2.0000      -0.981938       -26.7199 
  74   2.0000      -0.972744       -26.4697 
  75   2.0000      -0.961565       -26.1655 
  76   2.0000      -0.954229       -25.9659 
  77   2.0000      -0.945719       -25.7343 
  78   2.0000      -0.936269       -25.4772 
  79   2.0000      -0.917149       -24.9569 
  80   2.0000      -0.910528       -24.7767 
  81   2.0000      -0.896717       -24.4009 
  82   2.0000      -0.876701       -23.8562 
  83   2.0000      -0.873451       -23.7678 
  84   2.0000      -0.869541       -23.6614 
  85   2.0000      -0.859189       -23.3797 
  86   2.0000      -0.840550       -22.8725 
  87   2.0000      -0.837136       -22.7796 
  88   2.0000      -0.826874       -22.5004 
  89   2.0000      -0.796674       -21.6786 
  90   2.0000      -0.788974       -21.4691 
  91   2.0000      -0.760244       -20.6873 
  92   2.0000      -0.752721       -20.4826 
  93   2.0000      -0.734057       -19.9747 
  94   2.0000      -0.726737       -19.7755 
  95   2.0000      -0.723972       -19.7003 
  96   2.0000      -0.718308       -19.5461 
  97   2.0000      -0.716420       -19.4948 
  98   2.0000      -0.710968       -19.3464 
  99   2.0000      -0.698525       -19.0078 
 100   2.0000      -0.696793       -18.9607 
 101   2.0000      -0.688964       -18.7477 
 102   2.0000      -0.685173       -18.6445 
 103   2.0000      -0.684206       -18.6182 
 104   2.0000      -0.679357       -18.4862 
 105   2.0000      -0.673939       -18.3388 
 106   2.0000      -0.672030       -18.2869 
 107   2.0000      -0.660476       -17.9725 
 108   2.0000      -0.657258       -17.8849 
 109   2.0000      -0.653925       -17.7942 
 110   2.0000      -0.650890       -17.7116 
 111   2.0000      -0.646150       -17.5826 
 112   2.0000      -0.645197       -17.5567 
 113   2.0000      -0.637924       -17.3588 
 114   2.0000      -0.636225       -17.3126 
 115   2.0000      -0.627430       -17.0733 
 116   2.0000      -0.621923       -16.9234 
 117   2.0000      -0.620750       -16.8915 
 118   2.0000      -0.613817       -16.7028 
 119   2.0000      -0.613126       -16.6840 
 120   2.0000      -0.611506       -16.6399 
 121   2.0000      -0.610306       -16.6073 
 122   2.0000      -0.600264       -16.3340 
 123   2.0000      -0.587962       -15.9993 
 124   2.0000      -0.582634       -15.8543 
 125   2.0000      -0.580708       -15.8019 
 126   2.0000      -0.579538       -15.7700 
 127   2.0000      -0.571516       -15.5517 
 128   2.0000      -0.568740       -15.4762 
 129   2.0000      -0.559582       -15.2270 
 130   2.0000      -0.553952       -15.0738 
 131   2.0000      -0.548058       -14.9134 
 132   2.0000      -0.543019       -14.7763 
 133   2.0000      -0.541741       -14.7415 
 134   2.0000      -0.539411       -14.6781 
 135   2.0000      -0.535165       -14.5626 
 136   2.0000      -0.530664       -14.4401 
 137   2.0000      -0.518357       -14.1052 
 138   2.0000      -0.518265       -14.1027 
 139   2.0000      -0.514130       -13.9902 
 140   2.0000      -0.511802       -13.9268 
 141   2.0000      -0.510667       -13.8960 
 142   2.0000      -0.509474       -13.8635 
 143   2.0000      -0.504635       -13.7318 
 144   2.0000      -0.501146       -13.6369 
 145   2.0000      -0.495534       -13.4842 
 146   2.0000      -0.490264       -13.3408 
 147   2.0000      -0.481566       -13.1041 
 148   2.0000      -0.476970       -12.9790 
 149   2.0000      -0.467649       -12.7254 
 150   2.0000      -0.466084       -12.6828 
 151   2.0000      -0.456561       -12.4237 
 152   2.0000      -0.451027       -12.2731 
 153   2.0000      -0.445385       -12.1195 
 154   2.0000      -0.439072       -11.9477 
 155   2.0000      -0.427496       -11.6328 
 156   2.0000      -0.409069       -11.1313 
 157   2.0000      -0.401987       -10.9386 
 158   2.0000      -0.394889       -10.7455 
 159   2.0000      -0.387613       -10.5475 
 160   2.0000      -0.384594       -10.4653 
 161   2.0000      -0.377584       -10.2746 
 162   2.0000      -0.371013       -10.0958 
 163   2.0000      -0.357780        -9.7357 
 164   2.0000      -0.354852        -9.6560 
 165   2.0000      -0.341419        -9.2905 
 166   2.0000      -0.337846        -9.1933 
 167   2.0000      -0.325434        -8.8555 
 168   2.0000      -0.320431        -8.7194 
 169   2.0000      -0.306030        -8.3275 
 170   2.0000      -0.299191        -8.1414 
 171   2.0000      -0.285086        -7.7576 
 172   2.0000      -0.278790        -7.5862 
 173   2.0000      -0.263105        -7.1595 
 174   2.0000      -0.241693        -6.5768 
 175   2.0000      -0.190094        -5.1727 
 176   2.0000      -0.181032        -4.9261 
 177   2.0000      -0.079694        -2.1686 
 178   2.0000      -0.059558        -1.6207 
 179   0.0000       0.028217         0.7678 
 180   0.0000       0.065184         1.7738 
 181   0.0000       0.090362         2.4589 
 182   0.0000       0.106224         2.8905 
 183   0.0000       0.115016         3.1297 
 184   0.0000       0.136057         3.7023 
 185   0.0000       0.140226         3.8157 
 186   0.0000       0.140962         3.8358 
 187   0.0000       0.164061         4.4643 
 188   0.0000       0.164689         4.4814 
 189   0.0000       0.166444         4.5292 
 190   0.0000       0.173474         4.7205 
 191   0.0000       0.180354         4.9077 
 192   0.0000       0.183785         5.0010 
 193   0.0000       0.189421         5.1544 
 194   0.0000       0.203949         5.5497 
 195   0.0000       0.206360         5.6153 
 196   0.0000       0.207308         5.6411 
 197   0.0000       0.209531         5.7016 
 198   0.0000       0.216532         5.8921 
 199   0.0000       0.229171         6.2361 
 200   0.0000       0.233589         6.3563 
 201   0.0000       0.233942         6.3659 
 202   0.0000       0.238380         6.4867 
 203   0.0000       0.240315         6.5393 
 204   0.0000       0.246016         6.6944 
 205   0.0000       0.254797         6.9334 
 206   0.0000       0.256074         6.9681 
 207   0.0000       0.257593         7.0095 
 208   0.0000       0.259495         7.0612 
 209   0.0000       0.260169         7.0796 
 210   0.0000       0.263967         7.1829 
 211   0.0000       0.266534         7.2528 
 212   0.0000       0.268886         7.3168 
 213   0.0000       0.270752         7.3675 
 214   0.0000       0.272694         7.4204 
 215   0.0000       0.276631         7.5275 
 216   0.0000       0.278758         7.5854 
 217   0.0000       0.280911         7.6440 
 218   0.0000       0.285215         7.7611 
 219   0.0000       0.288044         7.8381 
 220   0.0000       0.289078         7.8662 
 221   0.0000       0.292297         7.9538 
 222   0.0000       0.294419         8.0115 
 223   0.0000       0.295767         8.0482 
 224   0.0000       0.298315         8.1176 
 225   0.0000       0.300894         8.1877 
 226   0.0000       0.304268         8.2796 
 227   0.0000       0.308753         8.4016 
 228   0.0000       0.312760         8.5106 
 229   0.0000       0.324445         8.8286 
 230   0.0000       0.327945         8.9238 
 231   0.0000       0.334205         9.0942 
 232   0.0000       0.343894         9.3578 
 233   0.0000       0.355339         9.6693 
 234   0.0000       0.358187         9.7468 
 235   0.0000       0.363197         9.8831 
 236   0.0000       0.375439        10.2162 
 237   0.0000       0.391017        10.6401 
 238   0.0000       0.395765        10.7693 
 239   0.0000       0.398701        10.8492 
 240   0.0000       0.406734        11.0678 
 241   0.0000       0.409848        11.1525 
 242   0.0000       0.411294        11.1919 
 243   0.0000       0.419551        11.4166 
 244   0.0000       0.428080        11.6486 
 245   0.0000       0.434766        11.8306 
 246   0.0000       0.436834        11.8869 
 247   0.0000       0.440252        11.9799 
 248   0.0000       0.442084        12.0297 
 249   0.0000       0.448173        12.1954 
 250   0.0000       0.457840        12.4585 
 251   0.0000       0.465329        12.6622 
 252   0.0000       0.468470        12.7477 
 253   0.0000       0.470536        12.8039 
 254   0.0000       0.471741        12.8367 
 255   0.0000       0.474468        12.9109 
 256   0.0000       0.478009        13.0073 
 257   0.0000       0.480140        13.0653 
 258   0.0000       0.489595        13.3226 
 259   0.0000       0.495088        13.4720 
 260   0.0000       0.504501        13.7282 
 261   0.0000       0.504549        13.7295 
 262   0.0000       0.506746        13.7893 
 263   0.0000       0.511459        13.9175 
 264   0.0000       0.516753        14.0616 
 265   0.0000       0.520641        14.1674 
 266   0.0000       0.525565        14.3013 
 267   0.0000       0.526756        14.3337 
 268   0.0000       0.532108        14.4794 
 269   0.0000       0.536391        14.5959 
 270   0.0000       0.543189        14.7809 
 271   0.0000       0.546138        14.8612 
 272   0.0000       0.557925        15.1819 
 273   0.0000       0.559842        15.2341 
 274   0.0000       0.560517        15.2524 
 275   0.0000       0.566351        15.4112 
 276   0.0000       0.571719        15.5573 
 277   0.0000       0.573368        15.6021 
 278   0.0000       0.579339        15.7646 
 279   0.0000       0.586101        15.9486 
 280   0.0000       0.590937        16.0802 
 281   0.0000       0.593208        16.1420 
 282   0.0000       0.594887        16.1877 
 283   0.0000       0.595635        16.2080 
 284   0.0000       0.597663        16.2632 
 285   0.0000       0.598677        16.2908 
 286   0.0000       0.605513        16.4769 
 287   0.0000       0.610441        16.6109 
 288   0.0000       0.617887        16.8136 
 289   0.0000       0.625102        17.0099 
 290   0.0000       0.625340        17.0164 
 291   0.0000       0.630017        17.1436 
 292   0.0000       0.633172        17.2295 
 293   0.0000       0.636633        17.3237 
 294   0.0000       0.644633        17.5414 
 295   0.0000       0.648747        17.6533 
 296   0.0000       0.652990        17.7688 
 297   0.0000       0.655347        17.8329 
 298   0.0000       0.661432        17.9985 
 299   0.0000       0.664784        18.0897 
 300   0.0000       0.670872        18.2553 
 301   0.0000       0.675224        18.3738 
 302   0.0000       0.677066        18.4239 
 303   0.0000       0.678797        18.4710 
 304   0.0000       0.680951        18.5296 
 305   0.0000       0.684604        18.6290 
 306   0.0000       0.689145        18.7526 
 307   0.0000       0.692529        18.8447 
 308   0.0000       0.695768        18.9328 
 309   0.0000       0.699874        19.0445 
 310   0.0000       0.702260        19.1095 
 311   0.0000       0.704634        19.1741 
 312   0.0000       0.707165        19.2429 
 313   0.0000       0.710615        19.3368 
 314   0.0000       0.710933        19.3455 
 315   0.0000       0.714484        19.4421 
 316   0.0000       0.716643        19.5008 
 317   0.0000       0.719110        19.5680 
 318   0.0000       0.723595        19.6900 
 319   0.0000       0.726778        19.7766 
 320   0.0000       0.729061        19.8388 
 321   0.0000       0.729674        19.8554 
 322   0.0000       0.731358        19.9013 
 323   0.0000       0.734009        19.9734 
 324   0.0000       0.735831        20.0230 
 325   0.0000       0.741362        20.1735 
 326   0.0000       0.744933        20.2706 
 327   0.0000       0.748374        20.3643 
 328   0.0000       0.750362        20.4184 
 329   0.0000       0.753312        20.4987 
 330   0.0000       0.759463        20.6660 
 331   0.0000       0.761343        20.7172 
 332   0.0000       0.766382        20.8543 
 333   0.0000       0.767647        20.8887 
 334   0.0000       0.769527        20.9399 
 335   0.0000       0.775563        21.1042 
 336   0.0000       0.776701        21.1351 
 337   0.0000       0.782351        21.2889 
 338   0.0000       0.786317        21.3968 
 339   0.0000       0.790067        21.4988 
 340   0.0000       0.793059        21.5802 
 341   0.0000       0.796895        21.6846 
 342   0.0000       0.798462        21.7272 
 343   0.0000       0.804509        21.8918 
 344   0.0000       0.806325        21.9412 
 345   0.0000       0.806984        21.9592 
 346   0.0000       0.808489        22.0001 
 347   0.0000       0.811632        22.0856 
 348   0.0000       0.816169        22.2091 
 349   0.0000       0.816740        22.2246 
 350   0.0000       0.818451        22.2712 
 351   0.0000       0.821577        22.3562 
 352   0.0000       0.823116        22.3981 
 353   0.0000       0.826940        22.5022 
 354   0.0000       0.829515        22.5723 
 355   0.0000       0.832320        22.6486 
 356   0.0000       0.836101        22.7515 
 357   0.0000       0.836343        22.7581 
 358   0.0000       0.838380        22.8135 
 359   0.0000       0.840808        22.8796 
 360   0.0000       0.842755        22.9325 
 361   0.0000       0.844535        22.9810 
 362   0.0000       0.845988        23.0205 
 363   0.0000       0.849094        23.1050 
 364   0.0000       0.849843        23.1254 
 365   0.0000       0.853482        23.2244 
 366   0.0000       0.858682        23.3659 
 367   0.0000       0.864226        23.5168 
 368   0.0000       0.864611        23.5273 
 369   0.0000       0.867168        23.5968 
 370   0.0000       0.869761        23.6674 
 371   0.0000       0.871950        23.7270 
 372   0.0000       0.876860        23.8606 
 373   0.0000       0.878455        23.9040 
 374   0.0000       0.878886        23.9157 
 375   0.0000       0.883789        24.0491 
 376   0.0000       0.887863        24.1600 
 377   0.0000       0.890427        24.2297 
 378   0.0000       0.892388        24.2831 
 379   0.0000       0.894839        24.3498 
 380   0.0000       0.895506        24.3679 
 381   0.0000       0.898729        24.4557 
 382   0.0000       0.899045        24.4643 
 383   0.0000       0.901385        24.5279 
 384   0.0000       0.906149        24.6576 
 385   0.0000       0.906210        24.6592 
 386   0.0000       0.909732        24.7551 
 387   0.0000       0.910486        24.7756 
 388   0.0000       0.914140        24.8750 
 389   0.0000       0.916701        24.9447 
 390   0.0000       0.920551        25.0495 
 391   0.0000       0.926531        25.2122 
 392   0.0000       0.927208        25.2306 
 393   0.0000       0.928267        25.2594 
 394   0.0000       0.929633        25.2966 
 395   0.0000       0.933503        25.4019 
 396   0.0000       0.934832        25.4381 
 397   0.0000       0.939170        25.5561 
 398   0.0000       0.942379        25.6434 
 399   0.0000       0.945609        25.7313 
 400   0.0000       0.948212        25.8022 
 401   0.0000       0.952313        25.9137 
 402   0.0000       0.954765        25.9805 
 403   0.0000       0.956789        26.0356 
 404   0.0000       0.960605        26.1394 
 405   0.0000       0.965143        26.2629 
 406   0.0000       0.968459        26.3531 
 407   0.0000       0.979634        26.6572 
 408   0.0000       0.980866        26.6907 
 409   0.0000       0.984579        26.7918 
 410   0.0000       0.986796        26.8521 
 411   0.0000       0.989897        26.9365 
 412   0.0000       0.996229        27.1088 
 413   0.0000       1.002775        27.2869 
 414   0.0000       1.008063        27.4308 
 415   0.0000       1.012519        27.5520 
 416   0.0000       1.015299        27.6277 
 417   0.0000       1.020392        27.7663 
 418   0.0000       1.022182        27.8150 
 419   0.0000       1.029153        28.0047 
 420   0.0000       1.034617        28.1534 
 421   0.0000       1.037508        28.2320 
 422   0.0000       1.049741        28.5649 
 423   0.0000       1.050550        28.5869 
 424   0.0000       1.053362        28.6634 
 425   0.0000       1.071809        29.1654 
 426   0.0000       1.076050        29.2808 
 427   0.0000       1.077421        29.3181 
 428   0.0000       1.081421        29.4270 
 429   0.0000       1.082409        29.4538 
 430   0.0000       1.086295        29.5596 
 431   0.0000       1.090943        29.6861 
 432   0.0000       1.094708        29.7885 
 433   0.0000       1.100775        29.9536 
 434   0.0000       1.106507        30.1096 
 435   0.0000       1.109525        30.1917 
 436   0.0000       1.111068        30.2337 
 437   0.0000       1.112694        30.2779 
 438   0.0000       1.120071        30.4787 
 439   0.0000       1.121515        30.5180 
 440   0.0000       1.122782        30.5525 
 441   0.0000       1.127396        30.6780 
 442   0.0000       1.129920        30.7467 
 443   0.0000       1.133059        30.8321 
 444   0.0000       1.135408        30.8960 
 445   0.0000       1.137071        30.9413 
 446   0.0000       1.144554        31.1449 
 447   0.0000       1.150636        31.3104 
 448   0.0000       1.151640        31.3377 
 449   0.0000       1.154630        31.4191 
 450   0.0000       1.161136        31.5961 
 451   0.0000       1.162762        31.6404 
 452   0.0000       1.163954        31.6728 
 453   0.0000       1.167209        31.7614 
 454   0.0000       1.169775        31.8312 
 455   0.0000       1.173377        31.9292 
 456   0.0000       1.179907        32.1069 
 457   0.0000       1.185320        32.2542 
 458   0.0000       1.191718        32.4283 
 459   0.0000       1.197441        32.5840 
 460   0.0000       1.200973        32.6801 
 461   0.0000       1.202282        32.7157 
 462   0.0000       1.204432        32.7743 
 463   0.0000       1.205962        32.8159 
 464   0.0000       1.209661        32.9166 
 465   0.0000       1.214748        33.0550 
 466   0.0000       1.218878        33.1674 
 467   0.0000       1.221336        33.2342 
 468   0.0000       1.224958        33.3328 
 469   0.0000       1.229979        33.4694 
 470   0.0000       1.236013        33.6336 
 471   0.0000       1.237623        33.6774 
 472   0.0000       1.238307        33.6960 
 473   0.0000       1.241069        33.7712 
 474   0.0000       1.242092        33.7990 
 475   0.0000       1.245672        33.8965 
 476   0.0000       1.247651        33.9503 
 477   0.0000       1.253026        34.0966 
 478   0.0000       1.255080        34.1525 
 479   0.0000       1.256298        34.1856 
 480   0.0000       1.262282        34.3485 
 481   0.0000       1.269299        34.5394 
 482   0.0000       1.270553        34.5735 
 483   0.0000       1.272857        34.6362 
 484   0.0000       1.273985        34.6669 
 485   0.0000       1.281199        34.8632 
 486   0.0000       1.285185        34.9717 
 487   0.0000       1.287192        35.0263 
 488   0.0000       1.291074        35.1319 
 489   0.0000       1.297306        35.3015 
 490   0.0000       1.297970        35.3196 
 491   0.0000       1.302210        35.4349 
 492   0.0000       1.304289        35.4915 
 493   0.0000       1.308589        35.6085 
 494   0.0000       1.313233        35.7349 
 495   0.0000       1.317541        35.8521 
 496   0.0000       1.319365        35.9018 
 497   0.0000       1.323415        36.0120 
 498   0.0000       1.326696        36.1012 
 499   0.0000       1.327793        36.1311 
 500   0.0000       1.331245        36.2250 
 501   0.0000       1.337927        36.4068 
 502   0.0000       1.341612        36.5071 
 503   0.0000       1.343753        36.5654 
 504   0.0000       1.349032        36.7090 
 505   0.0000       1.350939        36.7609 
 506   0.0000       1.354526        36.8585 
 507   0.0000       1.355084        36.8737 
 508   0.0000       1.357935        36.9513 
 509   0.0000       1.363310        37.0975 
[...]
      pz      :     0.022120  p :     0.079788
      px      :     0.043621
      py      :     0.014046
 77 H s       :     0.884462  s :     0.884462
      pz      :     0.047986  p :     0.079299
      px      :     0.015024
      py      :     0.016289
 78 H s       :     0.884843  s :     0.884843
      pz      :     0.025885  p :     0.079263
      px      :     0.020453
      py      :     0.032925
 79 H s       :     0.910620  s :     0.910620
      pz      :     0.021792  p :     0.086315
      px      :     0.021659
      py      :     0.042863
 80 H s       :     0.864396  s :     0.864396
      pz      :     0.039397  p :     0.084851
      px      :     0.030300
      py      :     0.015153
 81 H s       :     0.886935  s :     0.886935
      pz      :     0.037817  p :     0.084119
      px      :     0.016189
      py      :     0.030113
 82 H s       :     0.916214  s :     0.916214
      pz      :     0.021965  p :     0.086717
      px      :     0.031650
      py      :     0.033102
 83 H s       :     0.873677  s :     0.873677
      pz      :     0.039251  p :     0.084074
      px      :     0.015281
      py      :     0.029541
 84 H s       :     0.886918  s :     0.886918
      pz      :     0.035753  p :     0.083428
      px      :     0.031687
      py      :     0.015989
 85 H s       :     0.893029  s :     0.893029
      pz      :     0.022485  p :     0.079775
      px      :     0.014077
      py      :     0.043213
 86 H s       :     0.891155  s :     0.891155
      pz      :     0.024725  p :     0.078814
      px      :     0.032969
      py      :     0.021120
 87 H s       :     0.889959  s :     0.889959
      pz      :     0.048008  p :     0.078730
      px      :     0.015585
      py      :     0.015137
 88 H s       :     0.910540  s :     0.910540
      pz      :     0.021648  p :     0.087037
      px      :     0.042931
      py      :     0.022459
 89 H s       :     0.871106  s :     0.871106
      pz      :     0.037954  p :     0.083845
      px      :     0.030494
      py      :     0.015396


                      *****************************
                      * MAYER POPULATION ANALYSIS *
                      *****************************

  NA   - Mulliken gross atomic population
  ZA   - Total nuclear charge
  QA   - Mulliken gross atomic charge
  VA   - Mayer's total valence
  BVA  - Mayer's bonded valence
  FA   - Mayer's free valence

  ATOM       NA         ZA         QA         VA         BVA        FA
  0 C      5.7848     6.0000     0.2152     3.8450     3.8450    -0.0000
  1 N      7.4564     7.0000    -0.4564     3.3405     3.3405    -0.0000
  2 C      6.0776     6.0000    -0.0776     3.9244     3.9244     0.0000
  3 N      7.3410     7.0000    -0.3410     3.4572     3.4572     0.0000
  4 C      6.0658     6.0000    -0.0658     4.1099     4.1099    -0.0000
  5 N      7.5670     7.0000    -0.5670     3.0960     3.0960    -0.0000
  6 C      6.1214     6.0000    -0.1214     3.9495     3.9495    -0.0000
  7 N      7.3409     7.0000    -0.3409     3.4322     3.4322     0.0000
  8 C      5.7826     6.0000     0.2174     3.8497     3.8497    -0.0000
  9 N      7.5625     7.0000    -0.5625     3.0772     3.0772    -0.0000
 10 C      5.8804     6.0000     0.1196     3.9095     3.9095     0.0000
 11 N      7.4381     7.0000    -0.4381     3.3800     3.3800     0.0000
 12 C      6.0549     6.0000    -0.0549     3.8476     3.8476     0.0000
 13 N      7.4293     7.0000    -0.4293     3.4285     3.4285     0.0000
 14 C      5.7893     6.0000     0.2107     3.7942     3.7942    -0.0000
 15 N      7.4413     7.0000    -0.4413     3.3709     3.3709     0.0000
 16 C      5.7664     6.0000     0.2336     3.7764     3.7764    -0.0000
 17 C      6.1196     6.0000    -0.1196     3.9486     3.9486    -0.0000
 18 C      6.1559     6.0000    -0.1559     3.7489     3.7489    -0.0000
 19 C      5.7973     6.0000     0.2027     3.8687     3.8687     0.0000
 20 C      5.7855     6.0000     0.2145     3.8288     3.8288     0.0000
 21 C      6.0710     6.0000    -0.0710     3.8513     3.8513     0.0000
 22 C      6.0892     6.0000    -0.0892     3.9821     3.9821     0.0000
 23 C      6.0396     6.0000    -0.0396     3.9925     3.9925    -0.0000
 24 C      5.8057     6.0000     0.1943     3.8210     3.8210     0.0000
 25 C      5.8856     6.0000     0.1144     3.8909     3.8909     0.0000
 26 C      6.0904     6.0000    -0.0904     3.9103     3.9103     0.0000
 27 C      5.7856     6.0000     0.2144     3.8610     3.8610     0.0000
 28 C      6.0616     6.0000    -0.0616     3.9887     3.9887     0.0000
 29 C      6.1828     6.0000    -0.1828     3.7470     3.7470     0.0000
 30 C      5.7539     6.0000     0.2461     3.7992     3.7992     0.0000
 31 C      5.7690     6.0000     0.2310     3.8172     3.8172    -0.0000
 32 C      6.0613     6.0000    -0.0613     3.9236     3.9236    -0.0000
 33 C      6.0602     6.0000    -0.0602     3.9710     3.9710    -0.0000
 34 C      6.0505     6.0000    -0.0505     3.9836     3.9836     0.0000
 35 C      5.7721     6.0000     0.2279     3.8162     3.8162     0.0000
 36 C      5.8918     6.0000     0.1082     3.8747     3.8747     0.0000
 37 C      6.0643     6.0000    -0.0643     3.9177     3.9177    -0.0000
 38 C      5.7683     6.0000     0.2317     3.8019     3.8019    -0.0000
 39 C      6.0583     6.0000    -0.0583     3.9830     3.9830     0.0000
 40 C      6.1810     6.0000    -0.1810     3.7264     3.7264    -0.0000
 41 C      5.7749     6.0000     0.2251     3.8871     3.8871    -0.0000
 42 C      5.8030     6.0000     0.1970     3.8258     3.8258    -0.0000
 43 C      6.0727     6.0000    -0.0727     3.8999     3.8999    -0.0000
 44 C      6.0904     6.0000    -0.0904     3.9858     3.9858     0.0000
 45 C      6.0617     6.0000    -0.0617     3.9919     3.9919    -0.0000
 46 C      5.7891     6.0000     0.2109     3.8288     3.8288    -0.0000
 47 C      5.8845     6.0000     0.1155     3.8934     3.8934    -0.0000
 48 C      6.0670     6.0000    -0.0670     3.9093     3.9093    -0.0000
 49 C      5.7617     6.0000     0.2383     3.8960     3.8960    -0.0000
 50 C      6.0462     6.0000    -0.0462     3.9903     3.9903     0.0000
 51 C      6.1953     6.0000    -0.1953     3.7373     3.7373    -0.0000
 52 H      0.9639     1.0000     0.0361     0.9859     0.9859    -0.0000
 53 H      1.0179     1.0000    -0.0179     0.9992     0.9992     0.0000
 54 H      0.9545     1.0000     0.0455     1.0181     1.0181    -0.0000
 55 H      0.9654     1.0000     0.0346     0.9864     0.9864    -0.0000
 56 H      0.9507     1.0000     0.0493     0.9695     0.9695    -0.0000
 57 H      0.9526     1.0000     0.0474     0.9824     0.9824    -0.0000
 58 H      0.9536     1.0000     0.0464     0.9848     0.9848    -0.0000
 59 H      1.0091     1.0000    -0.0091     1.0000     1.0000     0.0000
 60 H      0.9504     1.0000     0.0496     1.0256     1.0256     0.0000
 61 H      0.8290     1.0000     0.1710     1.0421     1.0421    -0.0000
 62 H      0.8243     1.0000     0.1757     1.0436     1.0436    -0.0000
 63 H      0.9441     1.0000     0.0559     0.9852     0.9852     0.0000
 64 H      1.0135     1.0000    -0.0135     0.9944     0.9944     0.0000
 65 H      0.9529     1.0000     0.0471     1.0100     1.0100    -0.0000
 66 H      0.9439     1.0000     0.0561     0.9854     0.9854    -0.0000
 67 H      0.9370     1.0000     0.0630     0.9720     0.9720     0.0000
 68 H      0.9425     1.0000     0.0575     0.9868     0.9868    -0.0000
 69 H      0.9433     1.0000     0.0567     0.9828     0.9828    -0.0000
 70 H      1.0299     1.0000    -0.0299     0.9939     0.9939     0.0000
 71 H      0.9546     1.0000     0.0454     1.0058     1.0058    -0.0000
 72 H      0.9285     1.0000     0.0715     0.9835     0.9835    -0.0000
 73 H      1.0079     1.0000    -0.0079     1.0009     1.0009     0.0000
 74 H      0.9394     1.0000     0.0606     1.0101     1.0101     0.0000
 75 H      0.9291     1.0000     0.0709     0.9838     0.9838    -0.0000
 76 H      0.9249     1.0000     0.0751     0.9721     0.9721     0.0000
 77 H      0.9319     1.0000     0.0681     0.9855     0.9855     0.0000
 78 H      0.9327     1.0000     0.0673     0.9854     0.9854    -0.0000
 79 H      1.0164     1.0000    -0.0164     0.9976     0.9976     0.0000
 80 H      0.9386     1.0000     0.0614     1.0072     1.0072    -0.0000
 81 H      0.9459     1.0000     0.0541     0.9857     0.9857     0.0000
 82 H      1.0253     1.0000    -0.0253     0.9933     0.9933     0.0000
 83 H      0.9587     1.0000     0.0413     1.0083     1.0083    -0.0000
 84 H      0.9463     1.0000     0.0537     0.9852     0.9852    -0.0000
 85 H      0.9395     1.0000     0.0605     0.9716     0.9716    -0.0000
 86 H      0.9448     1.0000     0.0552     0.9839     0.9839    -0.0000
 87 H      0.9430     1.0000     0.0570     0.9856     0.9856    -0.0000
 88 H      1.0144     1.0000    -0.0144     0.9968     0.9968    -0.0000
 89 H      0.9530     1.0000     0.0470     1.0074     1.0074     0.0000

  Mayer bond orders larger than 0.100000
B(  0-C ,  1-N ) :   1.0912 B(  0-C , 17-C ) :   1.7191 B(  0-C , 52-H ) :   0.9626 
B(  1-N ,  8-C ) :   1.0959 B(  1-N , 10-C ) :   0.9777 B(  2-C , 12-C ) :   1.4871 
B(  2-C , 16-C ) :   1.3723 B(  2-C , 53-H ) :   0.9734 B(  3-N , 14-C ) :   1.2210 
B(  3-N , 16-C ) :   1.1831 B(  3-N , 61-H ) :   0.8989 B(  4-C ,  6-C ) :   1.2158 
B(  4-C , 17-C ) :   1.2162 B(  4-C , 18-C ) :   1.4721 B(  5-N , 19-C ) :   1.4576 
B(  5-N , 27-C ) :   1.3719 B(  6-C ,  8-C ) :   1.7170 B(  6-C , 54-H ) :   0.9039 
B(  7-N , 30-C ) :   1.1946 B(  7-N , 38-C ) :   1.1902 B(  7-N , 62-H ) :   0.8966 
B(  8-C , 55-H ) :   0.9637 B(  9-N , 41-C ) :   1.3926 B(  9-N , 49-C ) :   1.4272 
B( 10-C , 56-H ) :   0.9775 B( 10-C , 57-H ) :   0.9832 B( 10-C , 58-H ) :   0.9834 
B( 11-N , 20-C ) :   1.1324 B( 11-N , 24-C ) :   1.1082 B( 11-N , 25-C ) :   0.9595 
B( 12-C , 14-C ) :   1.3595 B( 12-C , 59-H ) :   0.9409 B( 13-N , 31-C ) :   1.1626 
B( 13-N , 35-C ) :   1.1597 B( 13-N , 36-C ) :   0.9412 B( 14-C , 18-C ) :   1.1167 
B( 15-N , 42-C ) :   1.1068 B( 15-N , 46-C ) :   1.1234 B( 15-N , 47-C ) :   0.9618 
B( 16-C , 51-C ) :   1.1666 B( 17-C , 60-H ) :   0.9077 B( 18-C , 19-C ) :   1.1166 
B( 19-C , 21-C ) :   1.2513 B( 20-C , 28-C ) :   1.6271 B( 20-C , 63-H ) :   0.9702 
B( 21-C , 26-C ) :   1.5883 B( 21-C , 64-H ) :   0.9441 B( 22-C , 23-C ) :   1.2909 
B( 22-C , 28-C ) :   1.2652 B( 22-C , 29-C ) :   1.2234 B( 23-C , 24-C ) :   1.6184 
B( 23-C , 65-H ) :   0.9703 B( 24-C , 66-H ) :   0.9695 B( 25-C , 67-H ) :   0.9760 
B( 25-C , 68-H ) :   0.9828 B( 25-C , 69-H ) :   0.9823 B( 26-C , 27-C ) :   1.2562 
B( 26-C , 70-H ) :   0.9675 B( 27-C , 29-C ) :   1.2073 B( 28-C , 71-H ) :   0.9720 
B( 29-C , 30-C ) :   1.2480 B( 30-C , 32-C ) :   1.2774 B( 31-C , 39-C ) :   1.5876 
B( 31-C , 72-H ) :   0.9681 B( 32-C , 37-C ) :   1.5817 B( 32-C , 73-H ) :   0.9786 
B( 33-C , 34-C ) :   1.3081 B( 33-C , 39-C ) :   1.3037 B( 33-C , 40-C ) :   1.1747 
B( 34-C , 35-C ) :   1.5847 B( 34-C , 74-H ) :   0.9696 B( 35-C , 75-H ) :   0.9681 
B( 36-C , 76-H ) :   0.9768 B( 36-C , 77-H ) :   0.9815 B( 36-C , 78-H ) :   0.9823 
B( 37-C , 38-C ) :   1.2830 B( 37-C , 79-H ) :   0.9765 B( 38-C , 40-C ) :   1.2354 
B( 39-C , 80-H ) :   0.9705 B( 40-C , 41-C ) :   1.2505 B( 41-C , 43-C ) :   1.1855 
B( 42-C , 50-C ) :   1.6347 B( 42-C , 81-H ) :   0.9697 B( 43-C , 48-C ) :   1.6671 
B( 43-C , 82-H ) :   0.9720 B( 44-C , 45-C ) :   1.2623 B( 44-C , 50-C ) :   1.2710 
B( 44-C , 51-C ) :   1.2639 B( 45-C , 46-C ) :   1.6359 B( 45-C , 83-H ) :   0.9719 
B( 46-C , 84-H ) :   0.9700 B( 47-C , 85-H ) :   0.9762 B( 47-C , 86-H ) :   0.9829 
B( 47-C , 87-H ) :   0.9825 B( 48-C , 49-C ) :   1.1890 B( 48-C , 88-H ) :   0.9749 
B( 49-C , 51-C ) :   1.2433 B( 50-C , 89-H ) :   0.9708 

-------
TIMINGS
-------

Total SCF time: 0 days 0 hours 28 min 34 sec 

Total time                  ....    1714.711 sec
Sum of individual times     ....    1709.942 sec  ( 99.7%)

Fock matrix formation       ....    1682.107 sec  ( 98.1%)
Diagonalization             ....       8.816 sec  (  0.5%)
Density matrix formation    ....       0.549 sec  (  0.0%)
Population analysis         ....       0.587 sec  (  0.0%)
Initial guess               ....       2.523 sec  (  0.1%)
Orbital Transformation      ....       0.000 sec  (  0.0%)
Orbital Orthonormalization  ....       0.000 sec  (  0.0%)
DIIS solution               ....       3.964 sec  (  0.2%)
SOSCF solution              ....      10.101 sec  (  0.6%)

Maximum memory used throughout the entire SCF-calculation: 302.7 MB


           ************************************************************
           *        Program running with 16 parallel MPI-processes    *
           *              working on a common directory               *
           ************************************************************

------------------------------------------------------------------------------
                                ORCA  MP2 
------------------------------------------------------------------------------

Freezing NCore=104 chemical core electrons

----------
MP2 ENERGY (disk based algorithm)
----------

Dimension of the basis                    ...  918
Memory devoted to MP2                     ... 2000 MB   
Data format for buffers                   ... DOUBLE
Compression type for matrix containers    ... UNCOMPRESSED

-------------------------------
PARTIAL EXCHANGE TRANSFORMATION
-------------------------------

Transformation type                        ... one-operator
Generation of integrals (i,mue|j,nue)      ... ON
Generation of integrals (mue,kappa|nue,tau)... OFF
Generation of integrals (i,mue|a,nue)      ... OFF
Dimension of the basis                     ...  918
Number of internal MOs                     ...  127 (  52- 178)
Pair cutoff                                ... 2.500e-12 Eh
Number of AO pairs in the trafo            ... 421821
Total Number of distinct AO pairs          ... 421821
Memory devoted for trafo                   ... 2000.0 MB 
Max. Number of MO pairs treated together   ...  311      
Number Format for Storage                  ... Double (8 Byte)
Integral package used                      ... LIBINT

Starting integral evaluation:
    ... done with AO integral generation
Closing buffer AOK     (38.25 GB; CompressionRatio= 1.33)
Collecting buffer AOK 
Number of MO pairs included in the trafo   ... 8128
------------------------
SORTING OF (i,mue|j,nue)
------------------------

IBATCH = 1 of  2
IBATCH = 2 of  2
Closing buffer KAO     (51.03 GB; CompressionRatio= 1.00)
Collecting buffer KAO 
N(AO-Batches) Done                         ...  86219980 
N(AO-Batches) Skipped                      ...  82313137 
N(IJ)-pairs Skipped                        ...         0 
TOTAL TIME for half transformation         ...  2270.184 sec
AO-integral generation                     ...   211.497 sec
Half transformation                        ...   423.848 sec
K-integral sorting                         ...  1413.935 sec
Process 10:   Internal MO 132
Process 13:   Internal MO 156
Process  1:   Internal MO  60
Process  4:   Internal MO  84

Finished integral transformation - now doing MP2 part

OPERATOR COMBINATION   0   0: ij=( 52..178, 52..178)
Process  7:   Internal MO 108
Process  0:   Internal MO  54
Process  2:   Internal MO  69
Process  0:   Internal MO  57
Process  1:   Internal MO  63
Process  5:   Internal MO  93
Process  3:   Internal MO  78
Process  8:   Internal MO 117
Process  1:   Internal MO  66
Process  2:   Internal MO  72
Process 14:   Internal MO 165
Process  6:   Internal MO 102
Process 11:   Internal MO 141
Process  4:   Internal MO  87
Process  2:   Internal MO  75
Process  3:   Internal MO  81
Process  9:   Internal MO 126
Process  5:   Internal MO  96
Process  7:   Internal MO 111
Process 12:   Internal MO 150
Process  4:   Internal MO  90
Process 10:   Internal MO 135
Process 15:   Internal MO 174
Process  6:   Internal MO 105
Process  8:   Internal MO 120
Process  5:   Internal MO  99
Process  9:   Internal MO 129
Process  7:   Internal MO 114
Process 13:   Internal MO 159
Process 11:   Internal MO 144
Process 12:   Internal MO 153
Process 14:   Internal MO 168
Process 10:   Internal MO 138
Process  8:   Internal MO 123
Process 15:   Internal MO 177
Process 11:   Internal MO 147
Process 13:   Internal MO 162
Process 14:   Internal MO 171
-----------------------------------------------
 MP2 CORRELATION ENERGY   :     -7.287080348 Eh
-----------------------------------------------


-------
TIMINGS
-------
Total time                : 2555.291 sec
Integral trafo            : 2272.844 sec ( 88.9%)
K(i,j)                    :    6.201 sec (  0.2%)
T(i,j)                    :    0.304 sec (  0.0%)

---------------------------------------
MP2 TOTAL ENERGY:    -2130.816469236 Eh
---------------------------------------

Maximum memory used throughout the entire MP2-calculation: 2275.3 MB

-------------------------   --------------------
FINAL SINGLE POINT ENERGY     -2130.816469236387
-------------------------   --------------------


                            ***************************************
                            *     ORCA property calculations      *
                            ***************************************


  WARNING: The energy has been calculated at the MP2 level but the densities
           used in the property calculations are still SCF densities
           MP2 response densities have not been calculated 
           use %mp2 Density relaxed end
           or  %mp2 Density unrelaxed end

                                    ---------------------
                                    Active property flags
                                    ---------------------
   (+) Dipole Moment


------------------------------------------------------------------------------
                       ORCA ELECTRIC PROPERTIES CALCULATION
------------------------------------------------------------------------------

Dipole Moment Calculation                       ... on
Quadrupole Moment Calculation                   ... off
Polarizability Calculation                      ... off
GBWName                                         ... /scratch/allen/tmpyp4_amber_gaff2/conf1/conf1/Conf167.orca.gbw
Electron density                                ... /scratch/allen/tmpyp4_amber_gaff2/conf1/conf1/Conf167.orca.scfp
The origin for moment calculation is the CENTER OF MASS  = ( 0.003446, -0.001743  0.001028)

-------------
DIPOLE MOMENT
-------------
                                X             Y             Z
Electronic contribution:      2.63622      -4.46090      -0.21610
Nuclear contribution   :      0.05327       0.22136       0.21229
                        -----------------------------------------
Total Dipole Moment    :      2.68949      -4.23954      -0.00381
                        -----------------------------------------
Magnitude (a.u.)       :      5.02066
Magnitude (Debye)      :     12.76152



--------------------
Rotational spectrum 
--------------------
 
Rotational constants in cm-1:     0.001501     0.001479     0.000760 
Rotational constants in MHz :    45.003568    44.349131    22.785824 

 Dipole components along the rotational axes: 
x,y,z [a.u.] :     3.426187    -3.669921    -0.000893 
x,y,z [Debye]:     8.708674    -9.328198    -0.002270 

 

Timings for individual modules:

Sum of individual times         ...     4293.623 sec (=  71.560 min)
GTO integral calculation        ...        3.499 sec (=   0.058 min)   0.1 %
SCF iterations                  ...     1715.948 sec (=  28.599 min)  40.0 %
MP2 module                      ...     2574.176 sec (=  42.903 min)  60.0 %
                             ****ORCA TERMINATED NORMALLY****
TOTAL RUN TIME: 0 days 1 hours 11 minutes 36 seconds 996 msec
# of primitive gaussian functions

