
                                 *****************
                                 * O   R   C   A *
                                 *****************

                                            #,                                       
                                            ###                                      
                                            ####                                     
                                            #####                                    
                                            ######                                   
                                           ########,                                 
                                     ,,################,,,,,                         
                               ,,#################################,,                 
                          ,,##########################################,,             
                       ,#########################################, ''#####,          
                    ,#############################################,,   '####,        
                  ,##################################################,,,,####,       
                ,###########''''           ''''###############################       
              ,#####''   ,,,,##########,,,,          '''####'''          '####       
            ,##' ,,,,###########################,,,                        '##       
           ' ,,###''''                  '''############,,,                           
         ,,##''                                '''############,,,,        ,,,,,,###''
      ,#''                                            '''#######################'''  
     '                                                          ''''####''''         
             ,#######,   #######,   ,#######,      ##                                
            ,#'     '#,  ##    ##  ,#'     '#,    #''#        ######   ,####,        
            ##       ##  ##   ,#'  ##            #'  '#       #        #'  '#        
            ##       ##  #######   ##           ,######,      #####,   #    #        
            '#,     ,#'  ##    ##  '#,     ,#' ,#      #,         ##   #,  ,#        
             '#######'   ##     ##  '#######'  #'      '#     #####' # '####'        



                  #######################################################
                  #                        -***-                        #
                  #          Department of theory and spectroscopy      #
                  #    Directorship and core code : Frank Neese         #
                  #        Max Planck Institute fuer Kohlenforschung    #
                  #                Kaiser Wilhelm Platz 1               #
                  #                 D-45470 Muelheim/Ruhr               #
                  #                      Germany                        #
                  #                                                     #
                  #                  All rights reserved                #
                  #                        -***-                        #
                  #######################################################


                         Program Version 5.0.4 -  RELEASE  -


 With contributions from (in alphabetic order):
   Daniel Aravena         : Magnetic Suceptibility
   Michael Atanasov       : Ab Initio Ligand Field Theory (pilot matlab implementation)
   Alexander A. Auer      : GIAO ZORA, VPT2 properties, NMR spectrum
   Ute Becker             : Parallelization
   Giovanni Bistoni       : ED, misc. LED, open-shell LED, HFLD
   Martin Brehm           : Molecular dynamics
   Dmytro Bykov           : SCF Hessian
   Vijay G. Chilkuri      : MRCI spin determinant printing, contributions to CSF-ICE
   Dipayan Datta          : RHF DLPNO-CCSD density
   Achintya Kumar Dutta   : EOM-CC, STEOM-CC
   Dmitry Ganyushin       : Spin-Orbit,Spin-Spin,Magnetic field MRCI
   Miquel Garcia          : C-PCM and meta-GGA Hessian, CC/C-PCM, Gaussian charge scheme
   Yang Guo               : DLPNO-NEVPT2, F12-NEVPT2, CIM, IAO-localization
   Andreas Hansen         : Spin unrestricted coupled pair/coupled cluster methods
   Benjamin Helmich-Paris : MC-RPA, TRAH-SCF, COSX integrals
   Lee Huntington         : MR-EOM, pCC
   Robert Izsak           : Overlap fitted RIJCOSX, COSX-SCS-MP3, EOM
   Marcus Kettner         : VPT2
   Christian Kollmar      : KDIIS, OOCD, Brueckner-CCSD(T), CCSD density, CASPT2, CASPT2-K
   Simone Kossmann        : Meta GGA functionals, TD-DFT gradient, OOMP2, MP2 Hessian
   Martin Krupicka        : Initial AUTO-CI
   Lucas Lang             : DCDCAS
   Marvin Lechner         : AUTO-CI (C++ implementation), FIC-MRCC
   Dagmar Lenk            : GEPOL surface, SMD
   Dimitrios Liakos       : Extrapolation schemes; Compound Job, initial MDCI parallelization
   Dimitrios Manganas     : Further ROCIS development; embedding schemes
   Dimitrios Pantazis     : SARC Basis sets
   Anastasios Papadopoulos: AUTO-CI, single reference methods and gradients
   Taras Petrenko         : DFT Hessian,TD-DFT gradient, ASA, ECA, R-Raman, ABS, FL, XAS/XES, NRVS
   Peter Pinski           : DLPNO-MP2, DLPNO-MP2 Gradient
   Christoph Reimann      : Effective Core Potentials
   Marius Retegan         : Local ZFS, SOC
   Christoph Riplinger    : Optimizer, TS searches, QM/MM, DLPNO-CCSD(T), (RO)-DLPNO pert. Triples
   Tobias Risthaus        : Range-separated hybrids, TD-DFT gradient, RPA, STAB
   Michael Roemelt        : Original ROCIS implementation
   Masaaki Saitow         : Open-shell DLPNO-CCSD energy and density
   Barbara Sandhoefer     : DKH picture change effects
   Avijit Sen             : IP-ROCIS
   Kantharuban Sivalingam : CASSCF convergence, NEVPT2, FIC-MRCI
   Bernardo de Souza      : ESD, SOC TD-DFT
   Georgi Stoychev        : AutoAux, RI-MP2 NMR, DLPNO-MP2 response
   Willem Van den Heuvel  : Paramagnetic NMR
   Boris Wezisla          : Elementary symmetry handling
   Frank Wennmohs         : Technical directorship


 We gratefully acknowledge several colleagues who have allowed us to
 interface, adapt or use parts of their codes:
   Stefan Grimme, W. Hujo, H. Kruse, P. Pracht,  : VdW corrections, initial TS optimization,
                  C. Bannwarth, S. Ehlert          DFT functionals, gCP, sTDA/sTD-DF
   Ed Valeev, F. Pavosevic, A. Kumar             : LibInt (2-el integral package), F12 methods
   Garnet Chan, S. Sharma, J. Yang, R. Olivares  : DMRG
   Ulf Ekstrom                                   : XCFun DFT Library
   Mihaly Kallay                                 : mrcc  (arbitrary order and MRCC methods)
   Jiri Pittner, Ondrej Demel                    : Mk-CCSD
   Frank Weinhold                                : gennbo (NPA and NBO analysis)
   Christopher J. Cramer and Donald G. Truhlar   : smd solvation model
   Lars Goerigk                                  : TD-DFT with DH, B97 family of functionals
   V. Asgeirsson, H. Jonsson                     : NEB implementation
   FAccTs GmbH                                   : IRC, NEB, NEB-TS, DLPNO-Multilevel, CI-OPT
                                                   MM, QMMM, 2- and 3-layer-ONIOM, Crystal-QMMM,
                                                   LR-CPCM, SF, NACMEs, symmetry and pop. for TD-DFT,
                                                   nearIR, NL-DFT gradient (VV10), updates on ESD,
                                                   ML-optimized integration grids
   S Lehtola, MJT Oliveira, MAL Marques          : LibXC Library
   Liviu Ungur et al                             : ANISO software


 Your calculation uses the libint2 library for the computation of 2-el integrals
 For citations please refer to: http://libint.valeyev.net

 Your ORCA version has been built with support for libXC version: 5.1.0
 For citations please refer to: https://tddft.org/programs/libxc/

 This ORCA versions uses:
   CBLAS   interface :  Fast vector & matrix operations
   LAPACKE interface :  Fast linear algebra routines
   SCALAPACK package :  Parallel linear algebra routines
   Shared memory     :  Shared parallel matrices
   BLAS/LAPACK       :  OpenBLAS 0.3.15  USE64BITINT DYNAMIC_ARCH NO_AFFINITY Sandybridge SINGLE_THREADED
        Core in use  :  Sandybridge
   Copyright (c) 2011-2014, The OpenBLAS Project


================================================================================

----- Orbital basis set information -----
Your calculation utilizes the basis: cc-pVDZ 
       H, B-Ne : Obtained from the ccRepo (grant-hill.group.shef.ac.uk/ccrepo) Feb. 2017
                 T. H. Dunning, Jr., J. Chem. Phys. 90, 1007 (1989)
            He : Obtained from the ccRepo (grant-hill.group.shef.ac.uk/ccrepo) Feb. 2017
                 D. E. Woon, T. H. Dunning, Jr., J. Chem. Phys. 100, 2975 (1994)
  Li-Be, Na-Mg : Obtained from the ccRepo (grant-hill.group.shef.ac.uk/ccrepo) Feb. 2017
                 B. P. Prascher, D. E. Woon, K. A. Peterson, T. H. Dunning, Jr., A. K. Wilson, Theor. Chem. Acc. 128, 69 (2011)
         Al-Ar : Obtained from the ccRepo (grant-hill.group.shef.ac.uk/ccrepo) Feb. 2017
                 D. E. Woon, T. H. Dunning, Jr., J. Chem. Phys. 98, 1358 (1993)
            Ca : Obtained from the Peterson Research Group Website (tyr0.chem.wsu.edu/~kipeters) Feb. 2017
                 J. Koput, K. A. Peterson, J. Phys. Chem. 106, 9595 (2002)
         Sc-Zn : Obtained from the ccRepo (grant-hill.group.shef.ac.uk/ccrepo) Feb. 2017
                 N. B. Balabanov, K. A. Peterson, J. Chem. Phys. 123, 064107 (2005)
                 N. B. Balabanov, K. A. Peterson, J. Chem. Phys. 125, 074110 (2006)
         Ga-Kr : Obtained from the ccRepo (grant-hill.group.shef.ac.uk/ccrepo) Feb. 2017
                 A. K. Wilson, D. E. Woon, K. A. Peterson, T. H. Dunning, Jr., J. Chem. Phys. 110, 7667 (1999)

================================================================================
                                        WARNINGS
                       Please study these warnings very carefully!
================================================================================


WARNING: No MP2 level density has been requested!
         To caclulate MP2 level properties use
         %mp2 Density relaxed end
         or
         %mp2 Density unrelaxed end

WARNING: Post HF methods need fully converged wavefunctions
  ===> : Setting SCFConvForced true
         You can overwrite this default with %scf ConvForced false 


INFO   : the flag for use of the SHARK integral package has been found!

================================================================================
                                       INPUT FILE
================================================================================
NAME = /scratch/allen/tmpyp4_amber_gaff2/2.Mdgx/conf11/conf11/Conf320.orca
|  1> ! PAL2
|  2> ! mp2 cc-pvdz TightSCF  NoKeepInts
|  3> 
|  4> %scf
|  5>   MaxCore 2000
|  6> end
|  7> %mp2
|  8>   MaxCore 2000
|  9> end
| 10> * xyz 0 1
| 11>    C       -3.27600         6.31300         0.86700
| 12>    C        1.47400         4.04100         0.05700
| 13>    C       -2.80200         4.09300         0.04900
| 14>    C       -3.96100         4.19000        -0.73600
| 15>    C       -4.73100         5.33500        -0.69700
| 16>    C       -5.21300         7.60300         0.08900
| 17>    C        0.13200         4.30700         0.06100
| 18>    C       -0.56900         3.05600         0.04700
| 19>    C        1.64900         2.61800         0.02300
| 20>    C       -2.47100         5.19100         0.85800
| 21>    N       -4.38700         6.37500         0.09900
| 22>    N        0.38800         2.06700         0.02500
| 23>    N       -2.01000         0.39500        -0.07500
| 24>    N       -0.38800        -2.07400        -0.02700
| 25>    N        2.01000        -0.40100         0.06500
| 26>    C       -1.96000         2.86100         0.02400
| 27>    C       -2.62300         1.61500        -0.01800
| 28>    C       -5.57300        -4.32900         1.06600
| 29>    C       -4.07300         1.47100         0.05600
| 30>    C       -4.10600        -2.75600        -0.02600
| 31>    C       -4.99500        -2.75700        -1.11100
| 32>    C       -6.13200        -3.54200        -1.07600
| 33>    C       -7.65100        -5.11300         0.04000
| 34>    C       -4.32400         0.14100         0.03700
| 35>    C       -3.02500        -0.52000        -0.04800
| 36>    C       -4.42200        -3.56600         1.07500
| 37>    N       -6.40700        -4.31300         0.00100
| 38>    C       -2.86700        -1.92200        -0.04000
| 39>    C       -1.65000        -2.62400        -0.02700
| 40>    C        3.56800        -6.14200        -1.04000
| 41>    C       -1.47600        -4.04900        -0.03400
| 42>    C        2.80300        -4.09900        -0.00800
| 43>    C        3.65700        -4.38400         1.06900
| 44>    C        4.42700        -5.53000         1.05900
| 45>    C        5.24500        -7.58800         0.01400
| 46>    C       -0.13400        -4.31500        -0.02200
| 47>    C        0.56800        -3.06400        -0.02700
| 48>    C        2.77500        -5.01200        -1.07400
| 49>    N        4.37600        -6.39100         0.01700
| 50>    C        1.95900        -2.86900        -0.00900
| 51>    C        2.62100        -1.62200         0.00900
| 52>    C        5.54300         4.33900        -1.13000
| 53>    C        4.07000        -1.47900        -0.09400
| 54>    C        4.10400         2.75100        -0.02100
| 55>    C        5.02700         2.72900         1.03600
| 56>    C        6.16600         3.50900         0.97800
| 57>    C        7.61900         5.15300        -0.11500
| 58>    C        4.32100        -0.14800        -0.09200
| 59>    C        3.02500         0.51400         0.01500
| 60>    C        4.38700         3.58200        -1.11500
| 61>    C        2.86600         1.91600         0.01300
| 62>    N        6.41300         4.29600        -0.09500
| 63>    H       -3.06600         7.17800         1.48400
| 64>    H        2.27400         4.76600         0.08100
| 65>    H       -4.26400         3.38000        -1.38800
| 66>    H       -5.62800         5.46000        -1.29000
| 67>    H       -4.87800         8.25000        -0.72400
| 68>    H       -6.25600         7.32300        -0.05800
| 69>    H       -5.09400         8.11200         1.04600
| 70>    H       -0.33200         5.28200         0.06900
| 71>    H       -1.59600         5.17200         1.49700
| 72>    H        0.18200         1.07200         0.00500
| 73>    H       -0.18300        -1.08000        -0.02100
| 74>    H       -5.86400        -4.96200         1.89500
| 75>    H       -4.79400         2.27200         0.13900
| 76>    H       -4.80000        -2.16000        -1.99400
| 77>    H       -6.84100        -3.58200        -1.89300
| 78>    H       -8.42800        -4.53600         0.54600
| 79>    H       -7.95600        -5.33700        -0.98100
| 80>    H       -7.45600        -6.03700         0.58400
| 81>    H       -5.28700        -0.34400         0.10000
| 82>    H       -3.78000        -3.60100         1.94700
| 83>    H        3.58700        -6.86800        -1.84300
| 84>    H       -2.27600        -4.77400        -0.05000
| 85>    H        3.71400        -3.72400         1.92600
| 86>    H        5.09200        -5.79500         1.87100
| 87>    H        6.20500        -7.32900        -0.43900
| 88>    H        5.39300        -7.91700         1.04200
| 89>    H        4.75900        -8.37300        -0.56400
| 90>    H        0.32900        -5.29000        -0.00800
| 91>    H        2.14600        -4.84200        -1.94000
| 92>    H        5.80800         4.98600        -1.95600
| 93>    H        4.78800        -2.28100        -0.18500
| 94>    H        4.86000         2.11400         1.91200
| 95>    H        6.90100         3.53100         1.77200
| 96>    H        7.38300         6.10900         0.35600
| 97>    H        8.41400         4.65200         0.43500
| 98>    H        7.92100         5.31000        -1.15000
| 99>    H        5.28300         0.33600        -0.17900
|100>    H        3.72000         3.63200        -1.96700
|101> *
|102> 
|103>                          ****END OF INPUT****
================================================================================

                       ****************************
                       * Single Point Calculation *
                       ****************************

---------------------------------
CARTESIAN COORDINATES (ANGSTROEM)
---------------------------------
  C     -3.276000    6.313000    0.867000
  C      1.474000    4.041000    0.057000
  C     -2.802000    4.093000    0.049000
  C     -3.961000    4.190000   -0.736000
  C     -4.731000    5.335000   -0.697000
  C     -5.213000    7.603000    0.089000
  C      0.132000    4.307000    0.061000
  C     -0.569000    3.056000    0.047000
  C      1.649000    2.618000    0.023000
  C     -2.471000    5.191000    0.858000
  N     -4.387000    6.375000    0.099000
  N      0.388000    2.067000    0.025000
  N     -2.010000    0.395000   -0.075000
  N     -0.388000   -2.074000   -0.027000
  N      2.010000   -0.401000    0.065000
  C     -1.960000    2.861000    0.024000
  C     -2.623000    1.615000   -0.018000
  C     -5.573000   -4.329000    1.066000
  C     -4.073000    1.471000    0.056000
  C     -4.106000   -2.756000   -0.026000
  C     -4.995000   -2.757000   -1.111000
  C     -6.132000   -3.542000   -1.076000
  C     -7.651000   -5.113000    0.040000
  C     -4.324000    0.141000    0.037000
  C     -3.025000   -0.520000   -0.048000
  C     -4.422000   -3.566000    1.075000
  N     -6.407000   -4.313000    0.001000
  C     -2.867000   -1.922000   -0.040000
  C     -1.650000   -2.624000   -0.027000
  C      3.568000   -6.142000   -1.040000
  C     -1.476000   -4.049000   -0.034000
  C      2.803000   -4.099000   -0.008000
  C      3.657000   -4.384000    1.069000
  C      4.427000   -5.530000    1.059000
  C      5.245000   -7.588000    0.014000
  C     -0.134000   -4.315000   -0.022000
  C      0.568000   -3.064000   -0.027000
  C      2.775000   -5.012000   -1.074000
  N      4.376000   -6.391000    0.017000
  C      1.959000   -2.869000   -0.009000
  C      2.621000   -1.622000    0.009000
  C      5.543000    4.339000   -1.130000
  C      4.070000   -1.479000   -0.094000
  C      4.104000    2.751000   -0.021000
  C      5.027000    2.729000    1.036000
  C      6.166000    3.509000    0.978000
  C      7.619000    5.153000   -0.115000
  C      4.321000   -0.148000   -0.092000
  C      3.025000    0.514000    0.015000
  C      4.387000    3.582000   -1.115000
  C      2.866000    1.916000    0.013000
  N      6.413000    4.296000   -0.095000
  H     -3.066000    7.178000    1.484000
  H      2.274000    4.766000    0.081000
  H     -4.264000    3.380000   -1.388000
  H     -5.628000    5.460000   -1.290000
  H     -4.878000    8.250000   -0.724000
  H     -6.256000    7.323000   -0.058000
  H     -5.094000    8.112000    1.046000
  H     -0.332000    5.282000    0.069000
  H     -1.596000    5.172000    1.497000
  H      0.182000    1.072000    0.005000
  H     -0.183000   -1.080000   -0.021000
  H     -5.864000   -4.962000    1.895000
  H     -4.794000    2.272000    0.139000
  H     -4.800000   -2.160000   -1.994000
  H     -6.841000   -3.582000   -1.893000
  H     -8.428000   -4.536000    0.546000
  H     -7.956000   -5.337000   -0.981000
  H     -7.456000   -6.037000    0.584000
  H     -5.287000   -0.344000    0.100000
  H     -3.780000   -3.601000    1.947000
  H      3.587000   -6.868000   -1.843000
  H     -2.276000   -4.774000   -0.050000
  H      3.714000   -3.724000    1.926000
  H      5.092000   -5.795000    1.871000
  H      6.205000   -7.329000   -0.439000
  H      5.393000   -7.917000    1.042000
  H      4.759000   -8.373000   -0.564000
  H      0.329000   -5.290000   -0.008000
  H      2.146000   -4.842000   -1.940000
  H      5.808000    4.986000   -1.956000
  H      4.788000   -2.281000   -0.185000
  H      4.860000    2.114000    1.912000
  H      6.901000    3.531000    1.772000
  H      7.383000    6.109000    0.356000
  H      8.414000    4.652000    0.435000
  H      7.921000    5.310000   -1.150000
  H      5.283000    0.336000   -0.179000
  H      3.720000    3.632000   -1.967000

----------------------------
CARTESIAN COORDINATES (A.U.)
----------------------------
  NO LB      ZA    FRAG     MASS         X           Y           Z
   0 C     6.0000    0    12.011   -6.190743   11.929841    1.638393
   1 C     6.0000    0    12.011    2.785456    7.636383    0.107714
   2 C     6.0000    0    12.011   -5.295013    7.734649    0.092597
   3 C     6.0000    0    12.011   -7.485205    7.917953   -1.390838
   4 C     6.0000    0    12.011   -8.940294   10.081689   -1.317139
   5 C     6.0000    0    12.011   -9.851142   14.367588    0.168186
   6 C     6.0000    0    12.011    0.249444    8.139050    0.115273
   7 C     6.0000    0    12.011   -1.075254    5.775003    0.088817
   8 C     6.0000    0    12.011    3.116158    4.947303    0.043464
   9 C     6.0000    0    12.011   -4.669513    9.809568    1.621385
  10 N     7.0000    0    14.007   -8.290229   12.047004    0.187083
  11 N     7.0000    0    14.007    0.733214    3.906064    0.047243
  12 N     7.0000    0    14.007   -3.798350    0.746442   -0.141729
  13 N     7.0000    0    14.007   -0.733214   -3.919292   -0.051023
  14 N     7.0000    0    14.007    3.798350   -0.757780    0.122832
  15 C     6.0000    0    12.011   -3.703863    5.406506    0.045353
  16 C     6.0000    0    12.011   -4.956752    3.051908   -0.034015
  17 C     6.0000    0    12.011  -10.531444   -8.180624    2.014448
  18 C     6.0000    0    12.011   -7.696855    2.779787    0.105825
  19 C     6.0000    0    12.011   -7.759216   -5.208085   -0.049133
  20 C     6.0000    0    12.011   -9.439182   -5.209975   -2.099486
  21 C     6.0000    0    12.011  -11.587801   -6.693410   -2.033345
  22 C     6.0000    0    12.011  -14.458295   -9.662170    0.075589
  23 C     6.0000    0    12.011   -8.171176    0.266451    0.069920
  24 C     6.0000    0    12.011   -5.716422   -0.982658   -0.090707
  25 C     6.0000    0    12.011   -8.356369   -6.738763    2.031456
  26 N     7.0000    0    14.007  -12.107475   -8.150389    0.001890
  27 C     6.0000    0    12.011   -5.417845   -3.632054   -0.075589
  28 C     6.0000    0    12.011   -3.118048   -4.958641   -0.051023
  29 C     6.0000    0    12.011    6.742543  -11.606698   -1.965315
  30 C     6.0000    0    12.011   -2.789236   -7.651501   -0.064251
  31 C     6.0000    0    12.011    5.296902   -7.745987   -0.015118
  32 C     6.0000    0    12.011    6.910728   -8.284559    2.020117
  33 C     6.0000    0    12.011    8.365818  -10.450186    2.001220
  34 C     6.0000    0    12.011    9.911614  -14.339242    0.026456
  35 C     6.0000    0    12.011   -0.253223   -8.154168   -0.041574
  36 C     6.0000    0    12.011    1.073364   -5.790121   -0.051023
  37 C     6.0000    0    12.011    5.243990   -9.471307   -2.029566
  38 N     7.0000    0    14.007    8.269442  -12.077240    0.032125
  39 C     6.0000    0    12.011    3.701973   -5.421624   -0.017008
  40 C     6.0000    0    12.011    4.952972   -3.065136    0.017008
  41 C     6.0000    0    12.011   10.474752    8.199522   -2.135391
  42 C     6.0000    0    12.011    7.691185   -2.794905   -0.177634
  43 C     6.0000    0    12.011    7.755436    5.198637   -0.039684
  44 C     6.0000    0    12.011    9.499653    5.157063    1.957756
  45 C     6.0000    0    12.011   11.652051    6.631049    1.848152
  46 C     6.0000    0    12.011   14.397823    9.737759   -0.217319
  47 C     6.0000    0    12.011    8.165507   -0.279679   -0.173855
  48 C     6.0000    0    12.011    5.716422    0.971319    0.028346
  49 C     6.0000    0    12.011    8.290229    6.768999   -2.107045
  50 C     6.0000    0    12.011    5.415955    3.620715    0.024566
  51 N     7.0000    0    14.007   12.118814    8.118263   -0.179524
  52 H     1.0000    0     1.008   -5.793900   13.564454    2.804354
  53 H     1.0000    0     1.008    4.297237    9.006435    0.153068
  54 H     1.0000    0     1.008   -8.057792    6.387274   -2.622940
  55 H     1.0000    0     1.008  -10.635379   10.317905   -2.437747
  56 H     1.0000    0     1.008   -9.218084   15.590241   -1.368162
  57 H     1.0000    0     1.008  -11.822127   13.838464   -0.109604
  58 H     1.0000    0     1.008   -9.626265   15.329458    1.976654
  59 H     1.0000    0     1.008   -0.627389    9.981533    0.130391
  60 H     1.0000    0     1.008   -3.016003    9.773664    2.828920
  61 H     1.0000    0     1.008    0.343930    2.025786    0.009449
  62 H     1.0000    0     1.008   -0.345820   -2.040904   -0.039684
  63 H     1.0000    0     1.008  -11.081354   -9.376821    3.581031
  64 H     1.0000    0     1.008   -9.059347    4.293458    0.262672
  65 H     1.0000    0     1.008   -9.070685   -4.081808   -3.768114
  66 H     1.0000    0     1.008  -12.927616   -6.768999   -3.577252
  67 H     1.0000    0     1.008  -15.926612   -8.571798    1.031790
  68 H     1.0000    0     1.008  -15.034661  -10.085468   -1.853821
  69 H     1.0000    0     1.008  -14.089798  -11.408277    1.103600
  70 H     1.0000    0     1.008   -9.990982   -0.650066    0.188973
  71 H     1.0000    0     1.008   -7.143165   -6.804904    3.679297
  72 H     1.0000    0     1.008    6.778448  -12.978639   -3.482765
  73 H     1.0000    0     1.008   -4.301017   -9.021553   -0.094486
  74 H     1.0000    0     1.008    7.018443   -7.037340    3.639613
  75 H     1.0000    0     1.008    9.622485  -10.950963    3.535678
  76 H     1.0000    0     1.008   11.725751  -13.849803   -0.829590
  77 H     1.0000    0     1.008   10.191293  -14.960962    1.969095
  78 H     1.0000    0     1.008    8.993207  -15.822677   -1.065806
  79 H     1.0000    0     1.008    0.621720   -9.996651   -0.015118
  80 H     1.0000    0     1.008    4.055352   -9.150054   -3.666069
  81 H     1.0000    0     1.008   10.975529    9.422175   -3.696304
  82 H     1.0000    0     1.008    9.048009   -4.310465   -0.349599
  83 H     1.0000    0     1.008    9.184069    3.994881    3.613156
  84 H     1.0000    0     1.008   13.041000    6.672623    3.348595
  85 H     1.0000    0     1.008   13.951848   11.544337    0.672743
  86 H     1.0000    0     1.008   15.900156    8.791006    0.822031
  87 H     1.0000    0     1.008   14.968521   10.034446   -2.173185
  88 H     1.0000    0     1.008    9.983423    0.634948   -0.338261
  89 H     1.0000    0     1.008    7.029781    6.863485   -3.717091

--------------------------------
INTERNAL COORDINATES (ANGSTROEM)
--------------------------------
 C      0   0   0     0.000000000000     0.00000000     0.00000000
 C      1   0   0     5.327343052592     0.00000000     0.00000000
 C      1   2   0     2.412923537951    51.75116632     0.00000000
 C      3   1   2     1.403180316282    87.92524916   212.96331010
 C      4   3   1     1.380378933482   120.15107991     0.14251430
 C      5   4   3     2.448253254874   152.53621051     1.63606942
 C      2   1   3     1.368114030335    16.67025696    11.83594385
 C      7   2   1     1.434084376876   108.05010202   210.70727919
 C      2   1   3     1.434123425651   122.38306468   337.64420478
 C      1   2   3     1.380938086954    29.85782220    33.14817022
 N      1   2   3     1.352031434546   131.74855675   313.21221720
 N      9   2   1     1.376127174356   106.58526707     9.00889556
 N     12   9   2     2.925062050624   168.53581413   171.12065651
 N     13  12   9     2.954513327098    91.55032014    11.12112580
 N     14  13  12     2.925371258490    88.43092389   359.84326247
 C      8   7   2     1.404790019896   127.24786865   181.11170171
 C     13  12   9     1.366535034311    81.72106996   188.00453233
 C     14  13  12     5.758810554272    80.56209567   166.76250791
 C     17  13  12     1.459010623676   111.08861209   183.82872609
 C     18  14  13     2.412235892279    27.27532823    36.33507194
 C     20  18  14     1.402692767501    87.95206320   148.94598259
 C     21  20  18     1.382106725257   120.14573887   359.70382047
 C     18  14  13     2.446510985056   144.15733107    82.80075377
 C     19  17  13     1.353610726908   106.29293361   359.75308708
 C     13  12   9     1.366813447402   172.21332906    33.46711076
 C     18  14  13     1.380960173213    15.08449437   309.23336894
 N     22  21  20     1.352773077792   120.73759875     0.27865223
 C     25  13  17     1.410897586645   125.60330303   182.37774668
 C     14  13  12     1.376642291955    80.24689249   177.85461986
 C     14  13  12     5.764089607215   164.51507311   312.20821879
 C     29  14  13     1.435600919476   106.58649366   178.76395472
 C     30  14  13     2.413316804732    27.10625047    82.12560436
 C     32  30  14     1.403734305344    87.90059683   149.76154742
 C     33  32  30     1.380694028378   120.14881443   359.74174632
 C     34  33  32     2.448777858443   152.49203239     2.45173620
 C     31  29  14     1.368160809262   108.16950133     0.70383075
 C     14  13  12     1.376239804685   169.26375223   353.09862627
 C     30  14  13     1.380907310430    14.68948582   353.70041132
 N     34  33  32     1.352658863128   120.85575621     0.19603406
 C     37  14  29     1.404717053360   126.01551127   180.90772073
 C     15  14  13     1.366491126938    81.61824056   183.09049352
 C      2   1   3     4.249062720177   150.04370128   144.20553505
 C     41  15  14     1.459677704153   111.05201287   175.08990246
 C     42   2   1     2.412953791518    41.78584867   167.69087500
 C     44  42   2     1.403446472082    87.95153797   233.97558675
 C     45  44  42     1.381696421071   120.11137308     0.19721020
 C     42   2   1     2.450019795838   135.97209175    78.00572410
 C     43  41  15     1.354461516618   106.26758155     0.30894352
 C     15  14  13     1.367461151185   171.87382904   332.35056460
 C     42   2   1     1.381886391857    32.59078432   216.54615419
 C      9   2   1     1.404988612053   126.98745415   190.01323309
 N     42   2   1     1.352765315936   113.57249190   105.74231330
 H      1   2   3     1.083057708527   104.73503496   164.64311406
 H      2   1   3     1.079907866440   111.76638889   166.52248579
 H      4   3   1     1.083057246871   121.07528426   179.52167803
 H      5   4   3     1.082535449766   122.85514203   179.46508142
 H      6   5   4     1.091697302369   104.44917765   100.05623266
 H      6   5   4     1.089888985172    84.67021142   209.58427829
 H      6   5   4     1.090454492402   133.84269385   322.39248407
 H      7   2   1     1.079807853278   126.66122480    30.94569297
 H     10   1   2     1.083654465224   118.75706095    59.64996742
 H     12   9   2     1.016297692608   125.29023241   180.00180175
 H     14  13  12     1.014936943854    44.97226959   359.42596618
 H     18  14  13     1.082871645210   128.03556573   234.20482432
 H     19  17  13     1.080893611786   126.41830519   178.11313280
 H     21  20  18     1.083569563987   121.05669627   180.67006309
 H     22  21  20     1.082483256222   122.73097286   180.59748951
 H     23  18  14     1.092105306278   103.92715769   234.93429879
 H     23  18  14     1.088871893291   134.19244188    12.25587044
 H     23  18  14     1.089833473518    84.85857450   125.45241208
 H     24  19  17     1.080075460327   127.28078426   178.44613241
 H     26  18  14     1.083408048706   118.76995697   244.94906660
 H     30  14  13     1.082703098730   127.99711412   279.66882698
 H     31  29  14     1.079759695488   125.22293469   180.92530585
 H     33  32  30     1.083188810873   121.01964473   180.74284758
 H     34  33  32     1.082494341787   122.70821597   180.59516895
 H     35  34  33     1.092652735319   105.73575241    97.19771933
 H     35  34  33     1.089462711615    84.05943581   206.43036958
 H     35  34  33     1.089268102902   133.08365142   318.50306270
 H     36  31  29     1.079439669458   126.61599965   178.98859863
 H     38  30  73     1.083742127999   118.77264435   359.90091293
 H     42   2   1     1.082178358682   119.31790784   322.37384375
 H     43  41  15     1.080281907652   126.36969097   182.06329380
 H     45  44  42     1.083277434455   121.10105945   179.58025624
 H     46  45  44     1.082194529648   122.72144639   179.46906377
 H     47  42   2     1.091546151109   106.65128841   315.16475048
 H     47  42   2     1.088818625851   132.46019523    94.52397119
 H     47  42   2     1.089531091801    83.63838232   206.04504406
 H     48  43  41     1.080402239909   127.23657387   181.62955349
 H     50  42   2     1.083186502870   118.77001737    94.71359229

---------------------------
INTERNAL COORDINATES (A.U.)
---------------------------
 C      0   0   0     0.000000000000     0.00000000     0.00000000
 C      1   0   0    10.067219390847     0.00000000     0.00000000
 C      1   2   0     4.559764668821    51.75116632     0.00000000
 C      3   1   2     2.651626514281    87.92524916   212.96331010
 C      4   3   1     2.608538145315   120.15107991     0.14251430
 C      5   4   3     4.626528158193   152.53621051     1.63606942
 C      2   1   3     2.585360837309    16.67025696    11.83594385
 C      7   2   1     2.710026725231   108.05010202   210.70727919
 C      2   1   3     2.710100516721   122.38306468   337.64420478
 C      1   2   3     2.609594792244    29.85782220    33.14817022
 N      1   2   3     2.554969135744   131.74855675   313.21221720
 N      9   2   1     2.600503484979   106.58526707     9.00889556
 N     12   9   2     5.527566200405   168.53581413   171.12065651
 N     13  12   9     5.583221047236    91.55032014    11.12112580
 N     14  13  12     5.528150518591    88.43092389   359.84326247
 C      8   7   2     2.654668413270   127.24786865   181.11170171
 C     13  12   9     2.582376967257    81.72106996   188.00453233
 C     14  13  12    10.882574804710    80.56209567   166.76250791
 C     17  13  12     2.757130505230   111.08861209   183.82872609
 C     18  14  13     4.558465206823    27.27532823    36.33507194
 C     20  18  14     2.650705180609    87.95206320   148.94598259
 C     21  20  18     2.611803198586   120.14573887   359.70382047
 C     18  14  13     4.623235745386   144.15733107    82.80075377
 C     19  17  13     2.557953565794   106.29293361   359.75308708
 C     13  12   9     2.582903091751   172.21332906    33.46711076
 C     18  14  13     2.609636529225    15.08449437   309.23336894
 N     22  21  20     2.556370638369   120.73759875     0.27865223
 C     25  13  17     2.666210041769   125.60330303   182.37774668
 C     14  13  12     2.601476916169    80.24689249   177.85461986
 C     14  13  12    10.892550769017   164.51507311   312.20821879
 C     29  14  13     2.712892575415   106.58649366   178.76395472
 C     30  14  13     4.560507835333    27.10625047    82.12560436
 C     32  30  14     2.652673401891    87.90059683   149.76154742
 C     33  32  30     2.609133588376   120.14881443   359.74174632
 C     34  33  32     4.627519515267   152.49203239     2.45173620
 C     31  29  14     2.585449236669   108.16950133     0.70383075
 C     14  13  12     2.600716325456   169.26375223   353.09862627
 C     30  14  13     2.609536633043    14.68948582   353.70041132
 N     34  33  32     2.556154803934   120.85575621     0.19603406
 C     37  14  29     2.654530526499   126.01551127   180.90772073
 C     15  14  13     2.582293994346    81.61824056   183.09049352
 C      2   1   3     8.029564866989   150.04370128   144.20553505
 C     41  15  14     2.758391104639   111.05201287   175.08990246
 C     42   2   1     4.559821839776    41.78584867   167.69087500
 C     44  42   2     2.652129475853    87.95153797   233.97558675
 C     45  44  42     2.611027836043   120.11137308     0.19721020
 C     42   2   1     4.629866436820   135.97209175    78.00572410
 C     43  41  15     2.559561325344   106.26758155     0.30894352
 C     15  14  13     2.584127074516   171.87382904   332.35056460
 C     42   2   1     2.611386828803    32.59078432   216.54615419
 C      9   2   1     2.655043698059   126.98745415   190.01323309
 N     42   2   1     2.556355970587   113.57249190   105.74231330
 H      1   2   3     2.046682456349   104.73503496   164.64311406
 H      2   1   3     2.040730117440   111.76638889   166.52248579
 H      4   3   1     2.046681583945   121.07528426   179.52167803
 H      5   4   3     2.045695530319   122.85514203   179.46508142
 H      6   5   4     2.063008922618   104.44917765   100.05623266
 H      6   5   4     2.059591698353    84.67021142   209.58427829
 H      6   5   4     2.060660352144   133.84269385   322.39248407
 H      7   2   1     2.040541119952   126.66122480    30.94569297
 H     10   1   2     2.047810163074   118.75706095    59.64996742
 H     12   9   2     1.920524309565   125.29023241   180.00180175
 H     14  13  12     1.917952867083    44.97226959   359.42596618
 H     18  14  13     2.046330847636   128.03556573   234.20482432
 H     19  17  13     2.042592906181   126.41830519   178.11313280
 H     21  20  18     2.047649722989   121.05669627   180.67006309
 H     22  21  20     2.045596898814   122.73097286   180.59748951
 H     23  18  14     2.063779938267   103.92715769   234.93429879
 H     23  18  14     2.057669673245   134.19244188    12.25587044
 H     23  18  14     2.059486796529    84.85857450   125.45241208
 H     24  19  17     2.041046823986   127.28078426   178.44613241
 H     26  18  14     2.047344503340   118.76995697   244.94906660
 H     30  14  13     2.046012340948   127.99711412   279.66882698
 H     31  29  14     2.040450114918   125.22293469   180.92530585
 H     33  32  30     2.046930203877   121.01964473   180.74284758
 H     34  33  32     2.045617847496   122.70821597   180.59516895
 H     35  34  33     2.064814429233   105.73575241    97.19771933
 H     35  34  33     2.058786158072    84.05943581   206.43036958
 H     35  34  33     2.058418400901   133.08365142   318.50306270
 H     36  31  29     2.039845353366   126.61599965   178.98859863
 H     38  30  73     2.047975821711   118.77264435   359.90091293
 H     42   2   1     2.045020725966   119.31790784   322.37384375
 H     43  41  15     2.041436952892   126.36969097   182.06329380
 H     45  44  42     2.047097678177   121.10105945   179.58025624
 H     46  45  44     2.045051284662   122.72144639   179.46906377
 H     47  42   2     2.062723288131   106.65128841   315.16475048
 H     47  42   2     2.057569012371   132.46019523    94.52397119
 H     47  42   2     2.058915377895    83.63838232   206.04504406
 H     48  43  41     2.041664347903   127.23657387   181.62955349
 H     50  42   2     2.046925842384   118.77001737    94.71359229

---------------------
BASIS SET INFORMATION
---------------------
There are 3 groups of distinct atoms

 Group   1 Type C   : 17s4p1d contracted to 3s2p1d pattern {881/31/1}
 Group   2 Type N   : 17s4p1d contracted to 3s2p1d pattern {881/31/1}
 Group   3 Type H   : 4s1p contracted to 2s1p pattern {31/1}

Atom   0C    basis set group =>   1
Atom   1N    basis set group =>   2
Atom   2C    basis set group =>   1
Atom   3N    basis set group =>   2
Atom   4C    basis set group =>   1
Atom   5N    basis set group =>   2
Atom   6C    basis set group =>   1
Atom   7N    basis set group =>   2
Atom   8C    basis set group =>   1
Atom   9N    basis set group =>   2
Atom  10C    basis set group =>   1
Atom  11N    basis set group =>   2
Atom  12C    basis set group =>   1
Atom  13N    basis set group =>   2
Atom  14C    basis set group =>   1
Atom  15N    basis set group =>   2
Atom  16C    basis set group =>   1
Atom  17C    basis set group =>   1
Atom  18C    basis set group =>   1
Atom  19C    basis set group =>   1
Atom  20C    basis set group =>   1
Atom  21C    basis set group =>   1
Atom  22C    basis set group =>   1
Atom  23C    basis set group =>   1
Atom  24C    basis set group =>   1
Atom  25C    basis set group =>   1
Atom  26C    basis set group =>   1
Atom  27C    basis set group =>   1
Atom  28C    basis set group =>   1
Atom  29C    basis set group =>   1
Atom  30C    basis set group =>   1
Atom  31C    basis set group =>   1
Atom  32C    basis set group =>   1
Atom  33C    basis set group =>   1
Atom  34C    basis set group =>   1
Atom  35C    basis set group =>   1
Atom  36C    basis set group =>   1
Atom  37C    basis set group =>   1
Atom  38C    basis set group =>   1
Atom  39C    basis set group =>   1
Atom  40C    basis set group =>   1
Atom  41C    basis set group =>   1
Atom  42C    basis set group =>   1
Atom  43C    basis set group =>   1
Atom  44C    basis set group =>   1
Atom  45C    basis set group =>   1
Atom  46C    basis set group =>   1
Atom  47C    basis set group =>   1
Atom  48C    basis set group =>   1
Atom  49C    basis set group =>   1
Atom  50C    basis set group =>   1
Atom  51C    basis set group =>   1
Atom  52H    basis set group =>   3
Atom  53H    basis set group =>   3
Atom  54H    basis set group =>   3
Atom  55H    basis set group =>   3
Atom  56H    basis set group =>   3
Atom  57H    basis set group =>   3
Atom  58H    basis set group =>   3
Atom  59H    basis set group =>   3
Atom  60H    basis set group =>   3
Atom  61H    basis set group =>   3
Atom  62H    basis set group =>   3
Atom  63H    basis set group =>   3
Atom  64H    basis set group =>   3
Atom  65H    basis set group =>   3
Atom  66H    basis set group =>   3
Atom  67H    basis set group =>   3
Atom  68H    basis set group =>   3
Atom  69H    basis set group =>   3
Atom  70H    basis set group =>   3
Atom  71H    basis set group =>   3
Atom  72H    basis set group =>   3
Atom  73H    basis set group =>   3
Atom  74H    basis set group =>   3
Atom  75H    basis set group =>   3
Atom  76H    basis set group =>   3
Atom  77H    basis set group =>   3
Atom  78H    basis set group =>   3
Atom  79H    basis set group =>   3
Atom  80H    basis set group =>   3
Atom  81H    basis set group =>   3
Atom  82H    basis set group =>   3
Atom  83H    basis set group =>   3
Atom  84H    basis set group =>   3
Atom  85H    basis set group =>   3
Atom  86H    basis set group =>   3
Atom  87H    basis set group =>   3
Atom  88H    basis set group =>   3
Atom  89H    basis set group =>   3


           ************************************************************
           *        Program running with 8 parallel MPI-processes     *
           *              working on a common directory               *
           ************************************************************
------------------------------------------------------------------------------
                           ORCA GTO INTEGRAL CALCULATION
------------------------------------------------------------------------------
------------------------------------------------------------------------------
                   ___                                                        
                  /   \      - P O W E R E D   B Y -                         
                 /     \                                                     
                 |  |  |   _    _      __       _____    __    __             
                 |  |  |  | |  | |    /  \     |  _  \  |  |  /  |          
                  \  \/   | |  | |   /    \    | | | |  |  | /  /          
                 / \  \   | |__| |  /  /\  \   | |_| |  |  |/  /          
                |  |  |   |  __  | /  /__\  \  |    /   |      \           
                |  |  |   | |  | | |   __   |  |    \   |  |\   \          
                \     /   | |  | | |  |  |  |  | |\  \  |  | \   \       
                 \___/    |_|  |_| |__|  |__|  |_| \__\ |__|  \__/        
                                                                              
                      - O R C A' S   B I G   F R I E N D -                    
                                      &                                       
                       - I N T E G R A L  F E E D E R -                       
                                                                              
 v1 FN, 2020, v2 2021                                                         
------------------------------------------------------------------------------


Reading SHARK input file /scratch/chu_02/allen/tmpyp4_amber_gaff2/conf1/conf1/Conf320.orca.SHARKINP.tmp ... ok
----------------------
SHARK INTEGRAL PACKAGE
----------------------

Number of atoms                             ...     90
Number of basis functions                   ...   1230
Number of shells                            ...    738
Maximum angular momentum                    ...      2
Integral batch strategy                     ... SHARK/LIBINT Hybrid
RI-J (if used) integral strategy            ... SPLIT-RIJ (Revised 2003 algorithm where possible)
Printlevel                                  ...      1
Contraction scheme used                     ... PARTIAL GENERAL contraction
Coulomb Range Separation                    ... NOT USED
Exchange Range Separation                   ... NOT USED
Finite Nucleus Model                        ... NOT USED
Auxiliary Coulomb fitting basis             ... NOT available
Auxiliary J/K fitting basis                 ... NOT available
Auxiliary Correlation fitting basis         ... NOT available
Auxiliary 'external' fitting basis          ... NOT available
Integral threshold                          ...     2.500000e-11
Primitive cut-off                           ...     2.500000e-12
Primitive pair pre-selection threshold      ...     2.500000e-12

Calculating pre-screening integrals         ... done (  0.1 sec) Dimension = 738
Calculating pre-screening integrals (ORCA)  ... done (  0.3 sec) Dimension = 426
Organizing shell pair data                  ... done (  0.5 sec)
Shell pair information
Total number of shell pairs                 ...    272691
Shell pairs after pre-screening             ...     71638
Total number of primitive shell pairs       ...    422091
Primitive shell pairs kept                  ...     92423
          la=0 lb=0:  29409 shell pairs
          la=1 lb=0:  25990 shell pairs
          la=1 lb=1:   4706 shell pairs
          la=2 lb=0:   7881 shell pairs
          la=2 lb=1:   3122 shell pairs
          la=2 lb=2:    530 shell pairs

Calculating one electron integrals          ... done (  0.2 sec)
Calculating Nuclear repulsion               ... done (  0.0 sec) ENN=   6228.736944359015 Eh

SHARK setup successfully completed in   1.6 seconds

Maximum memory used throughout the entire GTOINT-calculation: 99.0 MB


           ************************************************************
           *        Program running with 8 parallel MPI-processes     *
           *              working on a common directory               *
           ************************************************************
-------------------------------------------------------------------------------
                                 ORCA SCF
-------------------------------------------------------------------------------

------------
SCF SETTINGS
------------
Hamiltonian:
 Ab initio Hamiltonian  Method          .... Hartree-Fock(GTOs)


General Settings:
 Integral files         IntName         .... /scratch/chu_02/allen/tmpyp4_amber_gaff2/conf1/conf1/Conf320.orca
 Hartree-Fock type      HFTyp           .... RHF
 Total Charge           Charge          ....    0
 Multiplicity           Mult            ....    1
 Number of Electrons    NEL             ....  358
 Basis Dimension        Dim             ....  918
 Nuclear Repulsion      ENuc            ....   6228.7369443590 Eh

Convergence Acceleration:
 DIIS                   CNVDIIS         .... on
   Start iteration      DIISMaxIt       ....    12
   Startup error        DIISStart       ....  0.200000
   # of expansion vecs  DIISMaxEq       ....     5
   Bias factor          DIISBfac        ....   1.050
   Max. coefficient     DIISMaxC        ....  10.000
 Trust-Rad. Augm. Hess. CNVTRAH         .... auto
   Auto Start mean grad. ratio tolernc. ....  1.125000
   Auto Start start iteration           ....    20
   Auto Start num. interpolation iter.  ....    10
   Max. Number of Micro iterations      ....    16
   Max. Number of Macro iterations      .... Maxiter - #DIIS iter
   Number of Davidson start vectors     ....     2
   Converg. threshold I  (grad. norm)   ....   1.000e-05
   Converg. threshold II (energy diff.) ....   1.000e-08
   Grad. Scal. Fac. for Micro threshold ....   0.100
   Minimum threshold for Micro iter.    ....   0.010
   NR start threshold (gradient norm)   ....   0.001
   Initial trust radius                 ....   0.400
   Minimum AH scaling param. (alpha)    ....   1.000
   Maximum AH scaling param. (alpha)    .... 1000.000
   Orbital update algorithm             .... Taylor
   White noise on init. David. guess    .... on
   Maximum white noise                  ....   0.010
   Quad. conv. algorithm                .... NR
 SOSCF                  CNVSOSCF        .... on
   Start iteration      SOSCFMaxIt      ....   150
   Startup grad/error   SOSCFStart      ....  0.003300
 Level Shifting         CNVShift        .... on
   Level shift para.    LevelShift      ....    0.2500
   Turn off err/grad.   ShiftErr        ....    0.0010
 Zerner damping         CNVZerner       .... off
 Static damping         CNVDamp         .... on
   Fraction old density DampFac         ....    0.7000
   Max. Damping (<1)    DampMax         ....    0.9800
   Min. Damping (>=0)   DampMin         ....    0.0000
   Turn off err/grad.   DampErr         ....    0.1000
 Fernandez-Rico         CNVRico         .... off

SCF Procedure:
 Maximum # iterations   MaxIter         ....   125
 SCF integral mode      SCFMode         .... Direct
   Integral package                     .... SHARK and LIBINT hybrid scheme
 Reset frequency        DirectResetFreq ....    20
 Integral Threshold     Thresh          ....  2.500e-11 Eh
 Primitive CutOff       TCut            ....  2.500e-12 Eh

Convergence Tolerance:
 Convergence Check Mode ConvCheckMode   .... Total+1el-Energy
 Convergence forced     ConvForced      .... 1
 Energy Change          TolE            ....  1.000e-08 Eh
 1-El. energy change                    ....  1.000e-05 Eh
 Orbital Gradient       TolG            ....  1.000e-05
 Orbital Rotation angle TolX            ....  1.000e-05
 DIIS Error             TolErr          ....  5.000e-07


Diagonalization of the overlap matrix:
Smallest eigenvalue                        ... 2.232e-04
Time for diagonalization                   ...    0.207 sec
Threshold for overlap eigenvalues          ... 1.000e-08
Number of eigenvalues below threshold      ... 0
Time for construction of square roots      ...    0.119 sec
Total time needed                          ...    0.331 sec

Time for model grid setup =    1.319 sec

------------------------------
INITIAL GUESS: MODEL POTENTIAL
------------------------------
Loading Hartree-Fock densities                     ... done
Calculating cut-offs                               ... done
Initializing the effective Hamiltonian             ... done
Setting up the integral package (SHARK)            ... done
Starting the Coulomb interaction                   ... done (   1.6 sec)
Reading the grid                                   ... done
Mapping shells                                     ... done
Starting the XC term evaluation                    ... done (   0.3 sec)
Transforming the Hamiltonian                       ... done (   0.1 sec)
Diagonalizing the Hamiltonian                      ... done (   0.2 sec)
Back transforming the eigenvectors                 ... done (   0.0 sec)
Now organizing SCF variables                       ... done
                      ------------------
                      INITIAL GUESS DONE (   3.6 sec)
                      ------------------
--------------
SCF ITERATIONS
--------------
ITER       Energy         Delta-E        Max-DP      RMS-DP      [F,P]     Damp
               ***  Starting incremental Fock matrix formation  ***
  0  -2121.6956034532   0.000000000000 0.06960274  0.00120804  0.2323866 0.7000
  1  -2122.3534561103  -0.657852657052 0.05242628  0.00098150  0.1439085 0.7000
                               ***Turning on DIIS***
  2  -2122.7622701958  -0.408814085595 0.12221676  0.00222802  0.0802418 0.0000
  3  -2117.8830123205   4.879257875342 0.03018951  0.00066992  0.0440165 0.0000
  4  -2123.4342230105  -5.551210690033 0.00915734  0.00022529  0.0073007 0.0000
  5  -2123.5982368753  -0.164013864733 0.00517683  0.00013261  0.0049995 0.0000
  6  -2123.5812959061   0.016940969188 0.00353103  0.00008537  0.0019593 0.0000
  7  -2123.6812315300  -0.099935623890 0.00300093  0.00006703  0.0015527 0.0000
  8  -2123.6937699743  -0.012538444342 0.00315528  0.00006285  0.0014425 0.0000
  9  -2123.6619114055   0.031858568806 0.00252414  0.00004351  0.0011481 0.0000
 10  -2123.6722739544  -0.010362548868 0.00511481  0.00008887  0.0008834 0.0000
                      *** Initiating the SOSCF procedure ***
                           *** Shutting down DIIS ***
                      *** Re-Reading the Fockian *** 
                      *** Removing any level shift *** 
ITER      Energy       Delta-E        Grad      Rot      Max-DP    RMS-DP
 11  -2123.56189540   0.1103785500  0.000212  0.000212  0.000246  0.000005
               *** Restarting incremental Fock matrix formation ***
 12  -2123.62729366  -0.0653982563  0.000846  0.005681  0.001288  0.000032
 13  -2123.62738307  -0.0000894126  0.001011  0.027638  0.006175  0.000124
 14  -2123.62753455  -0.0001514741  0.000371  0.001943  0.000530  0.000012
 15  -2123.62755031  -0.0000157655  0.000174  0.003792  0.000911  0.000019
 16  -2123.62756059  -0.0000102815  0.000167  0.003655  0.000581  0.000012
 17  -2123.62756423  -0.0000036310  0.000141  0.002376  0.000354  0.000008
 18  -2123.62756617  -0.0000019468  0.000077  0.001010  0.000318  0.000004
 19  -2123.62756705  -0.0000008824  0.000048  0.000548  0.000146  0.000003
 20  -2123.62756732  -0.0000002668  0.000023  0.000452  0.000099  0.000002
 21  -2123.62756746  -0.0000001420  0.000024  0.000305  0.000092  0.000002
 22  -2123.62756755  -0.0000000832  0.000015  0.000320  0.000090  0.000001
 23  -2123.62756760  -0.0000000504  0.000008  0.000191  0.000044  0.000001
 24  -2123.62756762  -0.0000000258  0.000005  0.000137  0.000031  0.000001
 25  -2123.62756763  -0.0000000102  0.000004  0.000101  0.000018  0.000000
 26  -2123.62756764  -0.0000000059  0.000003  0.000124  0.000018  0.000000
 27  -2123.62756764  -0.0000000051  0.000003  0.000133  0.000018  0.000000
                  ***Gradient check signals convergence***
              ***Rediagonalizing the Fockian in SOSCF/NRSCF***

               *****************************************************
               *                     SUCCESS                       *
               *           SCF CONVERGED AFTER  28 CYCLES          *
               *****************************************************


----------------
TOTAL SCF ENERGY
----------------

Total Energy       :        -2123.62756765 Eh          -57786.84394 eV

Components:
Nuclear Repulsion  :         6228.73694436 Eh          169492.54909 eV
Electronic Energy  :        -8352.36451200 Eh         -227279.39303 eV
One Electron Energy:       -15298.37954104 Eh         -416290.07109 eV
Two Electron Energy:         6946.01502904 Eh          189010.67806 eV

Virial components:
Potential Energy   :        -4245.69652221 Eh         -115531.27587 eV
Kinetic Energy     :         2122.06895457 Eh           57744.43192 eV
Virial Ratio       :            2.00073448


---------------
SCF CONVERGENCE
---------------

  Last Energy change         ...   -1.7608e-09  Tolerance :   1.0000e-08
  Last MAX-Density change    ...    1.3671e-05  Tolerance :   1.0000e-07
  Last RMS-Density change    ...    3.6406e-07  Tolerance :   5.0000e-09
  Last Orbital Gradient      ...    2.3612e-06  Tolerance :   1.0000e-05
  Last Orbital Rotation      ...    1.1973e-04  Tolerance :   1.0000e-05

             **** THE GBW FILE WAS UPDATED (/scratch/chu_02/allen/tmpyp4_amber_gaff2/conf1/conf1/Conf320.orca.gbw) ****
             **** DENSITY /scratch/chu_02/allen/tmpyp4_amber_gaff2/conf1/conf1/Conf320.orca.scfp WAS UPDATED ****
             **** ENERGY FILE WAS UPDATED (/scratch/chu_02/allen/tmpyp4_amber_gaff2/conf1/conf1/Conf320.orca.en.tmp) ****
             **** THE GBW FILE WAS UPDATED (/scratch/chu_02/allen/tmpyp4_amber_gaff2/conf1/conf1/Conf320.orca.gbw) ****
             **** DENSITY /scratch/chu_02/allen/tmpyp4_amber_gaff2/conf1/conf1/Conf320.orca.scfp WAS UPDATED ****
----------------
ORBITAL ENERGIES
----------------

  NO   OCC          E(Eh)            E(eV) 
   0   2.0000     -15.665076      -426.2684 
   1   2.0000     -15.638226      -425.5378 
   2   2.0000     -15.628591      -425.2756 
   3   2.0000     -15.596474      -424.4016 
   4   2.0000     -15.523973      -422.4288 
   5   2.0000     -15.515805      -422.2065 
   6   2.0000     -15.450037      -420.4169 
   7   2.0000     -15.443473      -420.2383 
   8   2.0000     -11.318833      -308.0011 
   9   2.0000     -11.317686      -307.9699 
  10   2.0000     -11.315389      -307.9074 
  11   2.0000     -11.301957      -307.5419 
  12   2.0000     -11.296190      -307.3849 
  13   2.0000     -11.295703      -307.3717 
  14   2.0000     -11.291227      -307.2499 
  15   2.0000     -11.287557      -307.1500 
  16   2.0000     -11.284337      -307.0624 
  17   2.0000     -11.277124      -306.8662 
  18   2.0000     -11.268211      -306.6236 
  19   2.0000     -11.261865      -306.4509 
  20   2.0000     -11.259551      -306.3880 
  21   2.0000     -11.253021      -306.2103 
  22   2.0000     -11.252098      -306.1851 
  23   2.0000     -11.241806      -305.9051 
  24   2.0000     -11.234265      -305.6999 
  25   2.0000     -11.233703      -305.6846 
  26   2.0000     -11.233300      -305.6736 
  27   2.0000     -11.227132      -305.5058 
  28   2.0000     -11.226875      -305.4988 
  29   2.0000     -11.208554      -305.0003 
  30   2.0000     -11.207304      -304.9662 
  31   2.0000     -11.206593      -304.9469 
  32   2.0000     -11.201389      -304.8053 
  33   2.0000     -11.201220      -304.8007 
  34   2.0000     -11.190159      -304.4997 
  35   2.0000     -11.189850      -304.4913 
  36   2.0000     -11.184850      -304.3552 
  37   2.0000     -11.181400      -304.2614 
  38   2.0000     -11.180651      -304.2410 
  39   2.0000     -11.174355      -304.0696 
  40   2.0000     -11.170153      -303.9553 
  41   2.0000     -11.168110      -303.8997 
  42   2.0000     -11.166696      -303.8612 
  43   2.0000     -11.163854      -303.7839 
  44   2.0000     -11.162697      -303.7524 
  45   2.0000     -11.160623      -303.6960 
  46   2.0000     -11.154379      -303.5261 
  47   2.0000     -11.150105      -303.4098 
  48   2.0000     -11.148712      -303.3719 
  49   2.0000     -11.143633      -303.2337 
  50   2.0000     -11.136094      -303.0285 
  51   2.0000     -11.129895      -302.8598 
  52   2.0000      -1.347851       -36.6769 
  53   2.0000      -1.324886       -36.0520 
  54   2.0000      -1.316722       -35.8298 
  55   2.0000      -1.290062       -35.1044 
  56   2.0000      -1.224186       -33.3118 
  57   2.0000      -1.210633       -32.9430 
  58   2.0000      -1.168067       -31.7847 
  59   2.0000      -1.154566       -31.4173 
  60   2.0000      -1.133047       -30.8318 
  61   2.0000      -1.113246       -30.2930 
  62   2.0000      -1.106371       -30.1059 
  63   2.0000      -1.085242       -29.5309 
  64   2.0000      -1.070437       -29.1281 
  65   2.0000      -1.048894       -28.5419 
  66   2.0000      -1.041463       -28.3397 
  67   2.0000      -1.034425       -28.1481 
  68   2.0000      -1.017824       -27.6964 
  69   2.0000      -1.014171       -27.5970 
  70   2.0000      -1.009440       -27.4683 
  71   2.0000      -0.992662       -27.0117 
  72   2.0000      -0.987550       -26.8726 
  73   2.0000      -0.977310       -26.5940 
  74   2.0000      -0.972509       -26.4633 
  75   2.0000      -0.959221       -26.1017 
  76   2.0000      -0.951037       -25.8790 
  77   2.0000      -0.947475       -25.7821 
  78   2.0000      -0.936300       -25.4780 
  79   2.0000      -0.920992       -25.0615 
  80   2.0000      -0.900807       -24.5122 
  81   2.0000      -0.891089       -24.2478 
  82   2.0000      -0.875960       -23.8361 
  83   2.0000      -0.870257       -23.6809 
  84   2.0000      -0.865680       -23.5564 
  85   2.0000      -0.855059       -23.2673 
  86   2.0000      -0.842978       -22.9386 
  87   2.0000      -0.838200       -22.8086 
  88   2.0000      -0.822438       -22.3797 
  89   2.0000      -0.798632       -21.7319 
  90   2.0000      -0.794081       -21.6081 
  91   2.0000      -0.745578       -20.2882 
  92   2.0000      -0.737757       -20.0754 
  93   2.0000      -0.732201       -19.9242 
  94   2.0000      -0.723515       -19.6878 
  95   2.0000      -0.719782       -19.5863 
  96   2.0000      -0.713949       -19.4276 
  97   2.0000      -0.706246       -19.2179 
  98   2.0000      -0.702600       -19.1187 
  99   2.0000      -0.696307       -18.9475 
 100   2.0000      -0.694436       -18.8966 
 101   2.0000      -0.681985       -18.5578 
 102   2.0000      -0.679366       -18.4865 
 103   2.0000      -0.674723       -18.3601 
 104   2.0000      -0.674630       -18.3576 
 105   2.0000      -0.670865       -18.2552 
 106   2.0000      -0.665198       -18.1009 
 107   2.0000      -0.662734       -18.0339 
 108   2.0000      -0.656324       -17.8595 
 109   2.0000      -0.653580       -17.7848 
 110   2.0000      -0.649437       -17.6721 
 111   2.0000      -0.645406       -17.5624 
 112   2.0000      -0.642584       -17.4856 
 113   2.0000      -0.636593       -17.3226 
 114   2.0000      -0.635401       -17.2901 
 115   2.0000      -0.628989       -17.1157 
 116   2.0000      -0.623898       -16.9771 
 117   2.0000      -0.615795       -16.7566 
 118   2.0000      -0.614766       -16.7286 
 119   2.0000      -0.612408       -16.6645 
 120   2.0000      -0.608814       -16.5667 
 121   2.0000      -0.602285       -16.3890 
 122   2.0000      -0.600320       -16.3355 
 123   2.0000      -0.587884       -15.9971 
 124   2.0000      -0.586017       -15.9463 
 125   2.0000      -0.583842       -15.8872 
 126   2.0000      -0.578546       -15.7430 
 127   2.0000      -0.577559       -15.7162 
 128   2.0000      -0.563396       -15.3308 
 129   2.0000      -0.558364       -15.1939 
 130   2.0000      -0.553511       -15.0618 
 131   2.0000      -0.548882       -14.9358 
 132   2.0000      -0.542592       -14.7647 
 133   2.0000      -0.539082       -14.6692 
 134   2.0000      -0.535942       -14.5837 
 135   2.0000      -0.534111       -14.5339 
 136   2.0000      -0.525063       -14.2877 
 137   2.0000      -0.524208       -14.2644 
 138   2.0000      -0.517868       -14.0919 
 139   2.0000      -0.514417       -13.9980 
 140   2.0000      -0.510841       -13.9007 
 141   2.0000      -0.509974       -13.8771 
 142   2.0000      -0.509263       -13.8578 
 143   2.0000      -0.502659       -13.6781 
 144   2.0000      -0.500672       -13.6240 
 145   2.0000      -0.496986       -13.5237 
 146   2.0000      -0.494121       -13.4457 
 147   2.0000      -0.485882       -13.2215 
 148   2.0000      -0.483450       -13.1553 
 149   2.0000      -0.468424       -12.7465 
 150   2.0000      -0.464232       -12.6324 
 151   2.0000      -0.456326       -12.4173 
 152   2.0000      -0.448743       -12.2109 
 153   2.0000      -0.446731       -12.1562 
 154   2.0000      -0.444968       -12.1082 
 155   2.0000      -0.440352       -11.9826 
 156   2.0000      -0.431954       -11.7541 
 157   2.0000      -0.427667       -11.6374 
 158   2.0000      -0.401079       -10.9139 
 159   2.0000      -0.385712       -10.4958 
 160   2.0000      -0.379124       -10.3165 
 161   2.0000      -0.377568       -10.2741 
 162   2.0000      -0.370798       -10.0899 
 163   2.0000      -0.359509        -9.7827 
 164   2.0000      -0.353367        -9.6156 
 165   2.0000      -0.337828        -9.1928 
 166   2.0000      -0.337327        -9.1791 
 167   2.0000      -0.330822        -9.0021 
 168   2.0000      -0.328144        -8.9292 
 169   2.0000      -0.302808        -8.2398 
 170   2.0000      -0.299690        -8.1550 
 171   2.0000      -0.286874        -7.8062 
 172   2.0000      -0.284082        -7.7303 
 173   2.0000      -0.259912        -7.0726 
 174   2.0000      -0.245343        -6.6761 
 175   2.0000      -0.189530        -5.1574 
 176   2.0000      -0.179754        -4.8913 
 177   2.0000      -0.072581        -1.9750 
 178   2.0000      -0.057325        -1.5599 
 179   0.0000       0.028977         0.7885 
 180   0.0000       0.067671         1.8414 
 181   0.0000       0.092148         2.5075 
 182   0.0000       0.105793         2.8788 
 183   0.0000       0.115993         3.1563 
 184   0.0000       0.134356         3.6560 
 185   0.0000       0.141509         3.8507 
 186   0.0000       0.148605         4.0437 
 187   0.0000       0.162712         4.4276 
 188   0.0000       0.163462         4.4480 
 189   0.0000       0.164880         4.4866 
 190   0.0000       0.167585         4.5602 
 191   0.0000       0.183453         4.9920 
 192   0.0000       0.188135         5.1194 
 193   0.0000       0.191558         5.2126 
 194   0.0000       0.202516         5.5108 
 195   0.0000       0.205934         5.6037 
 196   0.0000       0.207638         5.6501 
 197   0.0000       0.210666         5.7325 
 198   0.0000       0.222954         6.0669 
 199   0.0000       0.223690         6.0869 
 200   0.0000       0.228702         6.2233 
 201   0.0000       0.237175         6.4539 
 202   0.0000       0.241203         6.5635 
 203   0.0000       0.241617         6.5747 
 204   0.0000       0.250708         6.8221 
 205   0.0000       0.254921         6.9367 
 206   0.0000       0.257942         7.0190 
 207   0.0000       0.259323         7.0565 
 208   0.0000       0.260706         7.0942 
 209   0.0000       0.261625         7.1192 
 210   0.0000       0.264415         7.1951 
 211   0.0000       0.270025         7.3477 
 212   0.0000       0.271562         7.3896 
 213   0.0000       0.272078         7.4036 
 214   0.0000       0.276495         7.5238 
 215   0.0000       0.277761         7.5583 
 216   0.0000       0.278995         7.5918 
 217   0.0000       0.281189         7.6515 
 218   0.0000       0.284316         7.7366 
 219   0.0000       0.288188         7.8420 
 220   0.0000       0.289756         7.8847 
 221   0.0000       0.293499         7.9865 
 222   0.0000       0.294108         8.0031 
 223   0.0000       0.296401         8.0655 
 224   0.0000       0.297533         8.0963 
 225   0.0000       0.299793         8.1578 
 226   0.0000       0.307035         8.3548 
 227   0.0000       0.308442         8.3931 
 228   0.0000       0.309579         8.4241 
 229   0.0000       0.319509         8.6943 
 230   0.0000       0.323827         8.8118 
 231   0.0000       0.324331         8.8255 
 232   0.0000       0.329062         8.9542 
 233   0.0000       0.330544         8.9946 
 234   0.0000       0.342843         9.3292 
 235   0.0000       0.346320         9.4238 
 236   0.0000       0.355393         9.6707 
 237   0.0000       0.380591        10.3564 
 238   0.0000       0.394841        10.7442 
 239   0.0000       0.397486        10.8161 
 240   0.0000       0.401867        10.9353 
 241   0.0000       0.413858        11.2617 
 242   0.0000       0.418405        11.3854 
 243   0.0000       0.420699        11.4478 
 244   0.0000       0.426993        11.6191 
 245   0.0000       0.434392        11.8204 
 246   0.0000       0.435818        11.8592 
 247   0.0000       0.438520        11.9327 
 248   0.0000       0.443527        12.0690 
 249   0.0000       0.444049        12.0832 
 250   0.0000       0.451475        12.2853 
 251   0.0000       0.459052        12.4914 
 252   0.0000       0.461283        12.5521 
 253   0.0000       0.466525        12.6948 
 254   0.0000       0.469716        12.7816 
 255   0.0000       0.474036        12.8992 
 256   0.0000       0.481601        13.1050 
 257   0.0000       0.482650        13.1336 
 258   0.0000       0.487971        13.2784 
 259   0.0000       0.499479        13.5915 
 260   0.0000       0.501838        13.6557 
 261   0.0000       0.504275        13.7220 
 262   0.0000       0.506325        13.7778 
 263   0.0000       0.509223        13.8567 
 264   0.0000       0.513972        13.9859 
 265   0.0000       0.518176        14.1003 
 266   0.0000       0.520346        14.1593 
 267   0.0000       0.524422        14.2702 
 268   0.0000       0.534079        14.5330 
 269   0.0000       0.538234        14.6461 
 270   0.0000       0.540500        14.7078 
 271   0.0000       0.546714        14.8768 
 272   0.0000       0.547960        14.9108 
 273   0.0000       0.555886        15.1264 
 274   0.0000       0.560561        15.2536 
 275   0.0000       0.565806        15.3964 
 276   0.0000       0.569265        15.4905 
 277   0.0000       0.574309        15.6277 
 278   0.0000       0.578979        15.7548 
 279   0.0000       0.586033        15.9468 
 280   0.0000       0.587951        15.9989 
 281   0.0000       0.590660        16.0727 
 282   0.0000       0.592682        16.1277 
 283   0.0000       0.597507        16.2590 
 284   0.0000       0.598165        16.2769 
 285   0.0000       0.599013        16.3000 
 286   0.0000       0.607492        16.5307 
 287   0.0000       0.612447        16.6655 
 288   0.0000       0.613014        16.6810 
 289   0.0000       0.622015        16.9259 
 290   0.0000       0.627400        17.0724 
 291   0.0000       0.628737        17.1088 
 292   0.0000       0.633421        17.2363 
 293   0.0000       0.635543        17.2940 
 294   0.0000       0.646234        17.5849 
 295   0.0000       0.650145        17.6913 
 296   0.0000       0.653889        17.7932 
 297   0.0000       0.657393        17.8886 
 298   0.0000       0.664617        18.0852 
 299   0.0000       0.666555        18.1379 
 300   0.0000       0.670189        18.2368 
 301   0.0000       0.670441        18.2436 
 302   0.0000       0.678653        18.4671 
 303   0.0000       0.680799        18.5255 
 304   0.0000       0.683138        18.5891 
 305   0.0000       0.687130        18.6978 
 306   0.0000       0.690721        18.7955 
 307   0.0000       0.692008        18.8305 
 308   0.0000       0.695127        18.9154 
 309   0.0000       0.698309        19.0020 
 310   0.0000       0.700331        19.0570 
 311   0.0000       0.703604        19.1460 
 312   0.0000       0.706337        19.2204 
 313   0.0000       0.708959        19.2918 
 314   0.0000       0.711494        19.3607 
 315   0.0000       0.713102        19.4045 
 316   0.0000       0.717140        19.5144 
 317   0.0000       0.718830        19.5604 
 318   0.0000       0.722520        19.6608 
 319   0.0000       0.724852        19.7242 
 320   0.0000       0.726291        19.7634 
 321   0.0000       0.728628        19.8270 
 322   0.0000       0.733170        19.9506 
 323   0.0000       0.737331        20.0638 
 324   0.0000       0.738091        20.0845 
 325   0.0000       0.740042        20.1376 
 326   0.0000       0.742657        20.2087 
 327   0.0000       0.745553        20.2875 
 328   0.0000       0.748572        20.3697 
 329   0.0000       0.750218        20.4145 
 330   0.0000       0.752189        20.4681 
 331   0.0000       0.755162        20.5490 
 332   0.0000       0.760399        20.6915 
 333   0.0000       0.762377        20.7453 
 334   0.0000       0.769863        20.9490 
 335   0.0000       0.772009        21.0074 
 336   0.0000       0.775612        21.1055 
 337   0.0000       0.784101        21.3365 
 338   0.0000       0.784782        21.3550 
 339   0.0000       0.786442        21.4002 
 340   0.0000       0.790938        21.5225 
 341   0.0000       0.795332        21.6421 
 342   0.0000       0.796939        21.6858 
 343   0.0000       0.800805        21.7910 
 344   0.0000       0.804658        21.8959 
 345   0.0000       0.806504        21.9461 
 346   0.0000       0.808267        21.9941 
 347   0.0000       0.812454        22.1080 
 348   0.0000       0.815191        22.1825 
 349   0.0000       0.817668        22.2499 
 350   0.0000       0.819904        22.3107 
 351   0.0000       0.822059        22.3694 
 352   0.0000       0.824629        22.4393 
 353   0.0000       0.825659        22.4673 
 354   0.0000       0.828056        22.5325 
 355   0.0000       0.831839        22.6355 
 356   0.0000       0.832338        22.6491 
 357   0.0000       0.836103        22.7515 
 358   0.0000       0.836964        22.7749 
 359   0.0000       0.838776        22.8243 
 360   0.0000       0.842264        22.9192 
 361   0.0000       0.842802        22.9338 
 362   0.0000       0.844040        22.9675 
 363   0.0000       0.845853        23.0168 
 364   0.0000       0.849213        23.1083 
 365   0.0000       0.853043        23.2125 
 366   0.0000       0.854862        23.2620 
 367   0.0000       0.858829        23.3699 
 368   0.0000       0.861484        23.4422 
 369   0.0000       0.863700        23.5025 
 370   0.0000       0.866430        23.5768 
 371   0.0000       0.871303        23.7094 
 372   0.0000       0.874494        23.7962 
 373   0.0000       0.878180        23.8965 
 374   0.0000       0.881697        23.9922 
 375   0.0000       0.883190        24.0328 
 376   0.0000       0.885947        24.1079 
 377   0.0000       0.888216        24.1696 
 378   0.0000       0.889977        24.2175 
 379   0.0000       0.895028        24.3550 
 380   0.0000       0.897105        24.4115 
 381   0.0000       0.899406        24.4741 
 382   0.0000       0.902968        24.5710 
 383   0.0000       0.903086        24.5742 
 384   0.0000       0.904011        24.5994 
 385   0.0000       0.905456        24.6387 
 386   0.0000       0.906359        24.6633 
 387   0.0000       0.908778        24.7291 
 388   0.0000       0.911091        24.7920 
 389   0.0000       0.915565        24.9138 
 390   0.0000       0.919089        25.0097 
 391   0.0000       0.922074        25.0909 
 392   0.0000       0.923495        25.1296 
 393   0.0000       0.925432        25.1823 
 394   0.0000       0.928292        25.2601 
 395   0.0000       0.930486        25.3198 
 396   0.0000       0.931629        25.3509 
 397   0.0000       0.936255        25.4768 
 398   0.0000       0.939497        25.5650 
 399   0.0000       0.941608        25.6224 
 400   0.0000       0.943067        25.6622 
 401   0.0000       0.948678        25.8148 
 402   0.0000       0.953168        25.9370 
 403   0.0000       0.955231        25.9932 
 404   0.0000       0.958551        26.0835 
 405   0.0000       0.959875        26.1195 
 406   0.0000       0.961882        26.1741 
 407   0.0000       0.964902        26.2563 
 408   0.0000       0.967638        26.3308 
 409   0.0000       0.975556        26.5462 
 410   0.0000       0.976631        26.5755 
 411   0.0000       0.982002        26.7216 
 412   0.0000       0.987614        26.8743 
 413   0.0000       0.988588        26.9008 
 414   0.0000       0.989982        26.9388 
 415   0.0000       1.000074        27.2134 
 416   0.0000       1.003420        27.3044 
 417   0.0000       1.005383        27.3579 
 418   0.0000       1.007125        27.4053 
 419   0.0000       1.017745        27.6942 
 420   0.0000       1.022008        27.8102 
 421   0.0000       1.028806        27.9952 
 422   0.0000       1.034736        28.1566 
 423   0.0000       1.042214        28.3601 
 424   0.0000       1.043495        28.3949 
 425   0.0000       1.052899        28.6508 
 426   0.0000       1.056516        28.7493 
 427   0.0000       1.060460        28.8566 
 428   0.0000       1.066584        29.0232 
 429   0.0000       1.071706        29.1626 
 430   0.0000       1.077922        29.3318 
 431   0.0000       1.083050        29.4713 
 432   0.0000       1.085879        29.5483 
 433   0.0000       1.087746        29.5991 
 434   0.0000       1.098366        29.8881 
 435   0.0000       1.104598        30.0576 
 436   0.0000       1.107044        30.1242 
 437   0.0000       1.112020        30.2596 
 438   0.0000       1.114299        30.3216 
 439   0.0000       1.116624        30.3849 
 440   0.0000       1.121234        30.5103 
 441   0.0000       1.124296        30.5937 
 442   0.0000       1.126534        30.6545 
 443   0.0000       1.127670        30.6855 
 444   0.0000       1.131939        30.8016 
 445   0.0000       1.133864        30.8540 
 446   0.0000       1.140964        31.0472 
 447   0.0000       1.142138        31.0792 
 448   0.0000       1.145549        31.1720 
 449   0.0000       1.150624        31.3101 
 450   0.0000       1.151250        31.3271 
 451   0.0000       1.151312        31.3288 
 452   0.0000       1.156202        31.4619 
 453   0.0000       1.158398        31.5216 
 454   0.0000       1.163433        31.6586 
 455   0.0000       1.170734        31.8573 
 456   0.0000       1.171693        31.8834 
 457   0.0000       1.177161        32.0322 
 458   0.0000       1.178787        32.0764 
 459   0.0000       1.185771        32.2665 
 460   0.0000       1.186899        32.2972 
 461   0.0000       1.195415        32.5289 
 462   0.0000       1.202044        32.7093 
 463   0.0000       1.202801        32.7299 
 464   0.0000       1.205552        32.8047 
 465   0.0000       1.208668        32.8895 
 466   0.0000       1.212009        32.9804 
 467   0.0000       1.214681        33.0531 
 468   0.0000       1.221634        33.2423 
 469   0.0000       1.226528        33.3755 
 470   0.0000       1.229883        33.4668 
 471   0.0000       1.233224        33.5577 
 472   0.0000       1.234222        33.5849 
 473   0.0000       1.235534        33.6206 
 474   0.0000       1.242174        33.8013 
 475   0.0000       1.245890        33.9024 
 476   0.0000       1.250699        34.0333 
 477   0.0000       1.252248        34.0754 
 478   0.0000       1.253435        34.1077 
 479   0.0000       1.255124        34.1537 
 480   0.0000       1.258722        34.2516 
 481   0.0000       1.263209        34.3737 
 482   0.0000       1.269028        34.5320 
 483   0.0000       1.272632        34.6301 
 484   0.0000       1.274458        34.6798 
 485   0.0000       1.276315        34.7303 
 486   0.0000       1.279138        34.8071 
 487   0.0000       1.282400        34.8959 
 488   0.0000       1.287365        35.0310 
 489   0.0000       1.290194        35.1080 
 490   0.0000       1.294456        35.2239 
 491   0.0000       1.297126        35.2966 
 492   0.0000       1.299654        35.3654 
 493   0.0000       1.304019        35.4842 
 494   0.0000       1.310540        35.6616 
 495   0.0000       1.314284        35.7635 
 496   0.0000       1.317303        35.8456 
 497   0.0000       1.323282        36.0083 
 498   0.0000       1.324419        36.0393 
 499   0.0000       1.328604        36.1532 
 500   0.0000       1.333532        36.2872 
 501   0.0000       1.335832        36.3499 
 502   0.0000       1.340635        36.4805 
 503   0.0000       1.348285        36.6887 
 504   0.0000       1.349080        36.7103 
 505   0.0000       1.351268        36.7699 
 506   0.0000       1.352635        36.8071 
 507   0.0000       1.357116        36.9290 
 508   0.0000       1.362192        37.0671 
[...]
 76 H s       :     0.887648  s :     0.887648
      pz      :     0.022063  p :     0.079710
      px      :     0.043508
      py      :     0.014138
 77 H s       :     0.886174  s :     0.886174
      pz      :     0.047857  p :     0.079148
      px      :     0.015019
      py      :     0.016272
 78 H s       :     0.886594  s :     0.886594
      pz      :     0.025817  p :     0.079097
      px      :     0.020490
      py      :     0.032789
 79 H s       :     0.909862  s :     0.909862
      pz      :     0.021913  p :     0.086480
      px      :     0.021699
      py      :     0.042869
 80 H s       :     0.866817  s :     0.866817
      pz      :     0.039202  p :     0.084579
      px      :     0.030162
      py      :     0.015215
 81 H s       :     0.887165  s :     0.887165
      pz      :     0.037787  p :     0.084041
      px      :     0.016184
      py      :     0.030069
 82 H s       :     0.915926  s :     0.915926
      pz      :     0.022030  p :     0.086762
      px      :     0.031537
      py      :     0.033195
 83 H s       :     0.873575  s :     0.873575
      pz      :     0.039229  p :     0.084022
      px      :     0.015277
      py      :     0.029516
 84 H s       :     0.887200  s :     0.887200
      pz      :     0.035751  p :     0.083532
      px      :     0.031692
      py      :     0.016089
 85 H s       :     0.893454  s :     0.893454
      pz      :     0.022485  p :     0.079755
      px      :     0.014088
      py      :     0.043182
 86 H s       :     0.891158  s :     0.891158
      pz      :     0.024720  p :     0.078819
      px      :     0.032969
      py      :     0.021130
 87 H s       :     0.890138  s :     0.890138
      pz      :     0.047986  p :     0.078712
      px      :     0.015592
      py      :     0.015134
 88 H s       :     0.911686  s :     0.911686
      pz      :     0.021810  p :     0.087018
      px      :     0.042778
      py      :     0.022430
 89 H s       :     0.871620  s :     0.871620
      pz      :     0.037933  p :     0.083841
      px      :     0.030470
      py      :     0.015438


                      *****************************
                      * MAYER POPULATION ANALYSIS *
                      *****************************

  NA   - Mulliken gross atomic population
  ZA   - Total nuclear charge
  QA   - Mulliken gross atomic charge
  VA   - Mayer's total valence
  BVA  - Mayer's bonded valence
  FA   - Mayer's free valence

  ATOM       NA         ZA         QA         VA         BVA        FA
  0 C      5.7919     6.0000     0.2081     3.8418     3.8418    -0.0000
  1 N      7.4534     7.0000    -0.4534     3.3325     3.3325    -0.0000
  2 C      6.0643     6.0000    -0.0643     3.9212     3.9212    -0.0000
  3 N      7.3361     7.0000    -0.3361     3.4573     3.4573     0.0000
  4 C      6.0545     6.0000    -0.0545     3.9967     3.9967     0.0000
  5 N      7.5606     7.0000    -0.5606     3.0941     3.0941     0.0000
  6 C      6.1022     6.0000    -0.1022     4.0085     4.0085     0.0000
  7 N      7.3398     7.0000    -0.3398     3.4357     3.4357     0.0000
  8 C      5.7976     6.0000     0.2024     3.8375     3.8375     0.0000
  9 N      7.5627     7.0000    -0.5627     3.0799     3.0799    -0.0000
 10 C      5.8817     6.0000     0.1183     3.9066     3.9066     0.0000
 11 N      7.4376     7.0000    -0.4376     3.3828     3.3828     0.0000
 12 C      6.0798     6.0000    -0.0798     3.9120     3.9120     0.0000
 13 N      7.4329     7.0000    -0.4329     3.4122     3.4122    -0.0000
 14 C      5.7704     6.0000     0.2296     3.7817     3.7817    -0.0000
 15 N      7.4414     7.0000    -0.4414     3.3697     3.3697     0.0000
 16 C      5.7701     6.0000     0.2299     3.7816     3.7816    -0.0000
 17 C      6.1104     6.0000    -0.1104     4.0082     4.0082     0.0000
 18 C      6.1788     6.0000    -0.1788     3.7666     3.7666     0.0000
 19 C      5.7842     6.0000     0.2158     3.8624     3.8624     0.0000
 20 C      5.7869     6.0000     0.2131     3.8276     3.8276     0.0000
 21 C      6.0912     6.0000    -0.0912     3.9058     3.9058     0.0000
 22 C      6.0883     6.0000    -0.0883     3.9821     3.9821     0.0000
 23 C      6.0425     6.0000    -0.0425     3.9918     3.9918    -0.0000
 24 C      5.8015     6.0000     0.1985     3.8218     3.8218     0.0000
 25 C      5.8860     6.0000     0.1140     3.8900     3.8900     0.0000
 26 C      6.0741     6.0000    -0.0741     3.9066     3.9066    -0.0000
 27 C      5.7867     6.0000     0.2133     3.8685     3.8685     0.0000
 28 C      6.0584     6.0000    -0.0584     3.9885     3.9885    -0.0000
 29 C      6.1810     6.0000    -0.1810     3.7429     3.7429     0.0000
 30 C      5.7575     6.0000     0.2425     3.7966     3.7966     0.0000
 31 C      5.7751     6.0000     0.2249     3.8210     3.8210    -0.0000
 32 C      6.0622     6.0000    -0.0622     3.9221     3.9221    -0.0000
 33 C      6.0675     6.0000    -0.0675     3.9766     3.9766    -0.0000
 34 C      6.0496     6.0000    -0.0496     3.9866     3.9866    -0.0000
 35 C      5.7807     6.0000     0.2193     3.8194     3.8194    -0.0000
 36 C      5.8898     6.0000     0.1102     3.8803     3.8803    -0.0000
 37 C      6.0651     6.0000    -0.0651     3.9175     3.9175     0.0000
 38 C      5.7659     6.0000     0.2341     3.8014     3.8014     0.0000
 39 C      6.0598     6.0000    -0.0598     3.9857     3.9857    -0.0000
 40 C      6.1830     6.0000    -0.1830     3.7315     3.7315     0.0000
 41 C      5.7770     6.0000     0.2230     3.8845     3.8845    -0.0000
 42 C      5.8017     6.0000     0.1983     3.8267     3.8267     0.0000
 43 C      6.0730     6.0000    -0.0730     3.9007     3.9007     0.0000
 44 C      6.0908     6.0000    -0.0908     3.9857     3.9857    -0.0000
 45 C      6.0590     6.0000    -0.0590     3.9923     3.9923     0.0000
 46 C      5.7920     6.0000     0.2080     3.8281     3.8281    -0.0000
 47 C      5.8843     6.0000     0.1157     3.8939     3.8939    -0.0000
 48 C      6.0698     6.0000    -0.0698     3.9078     3.9078     0.0000
 49 C      5.7655     6.0000     0.2345     3.8917     3.8917    -0.0000
 50 C      6.0484     6.0000    -0.0484     3.9906     3.9906    -0.0000
 51 C      6.1925     6.0000    -0.1925     3.7367     3.7367    -0.0000
 52 H      0.9570     1.0000     0.0430     0.9858     0.9858    -0.0000
 53 H      1.0159     1.0000    -0.0159     0.9985     0.9985    -0.0000
 54 H      0.9501     1.0000     0.0499     1.0129     1.0129     0.0000
 55 H      0.9589     1.0000     0.0411     0.9867     0.9867    -0.0000
 56 H      0.9496     1.0000     0.0504     0.9700     0.9700    -0.0000
 57 H      0.9499     1.0000     0.0501     0.9824     0.9824    -0.0000
 58 H      0.9511     1.0000     0.0489     0.9854     0.9854    -0.0000
 59 H      1.0012     1.0000    -0.0012     1.0036     1.0036     0.0000
 60 H      0.9513     1.0000     0.0487     1.0101     1.0101     0.0000
 61 H      0.8287     1.0000     0.1713     1.0419     1.0419     0.0000
 62 H      0.8251     1.0000     0.1749     1.0436     1.0436     0.0000
 63 H      0.9432     1.0000     0.0568     0.9852     0.9852     0.0000
 64 H      1.0067     1.0000    -0.0067     0.9966     0.9966     0.0000
 65 H      0.9531     1.0000     0.0469     1.0096     1.0096    -0.0000
 66 H      0.9430     1.0000     0.0570     0.9853     0.9853     0.0000
 67 H      0.9366     1.0000     0.0634     0.9720     0.9720    -0.0000
 68 H      0.9420     1.0000     0.0580     0.9868     0.9868     0.0000
 69 H      0.9422     1.0000     0.0578     0.9829     0.9829     0.0000
 70 H      1.0274     1.0000    -0.0274     0.9930     0.9930    -0.0000
 71 H      0.9532     1.0000     0.0468     1.0061     1.0061    -0.0000
 72 H      0.9334     1.0000     0.0666     0.9840     0.9840    -0.0000
 73 H      1.0097     1.0000    -0.0097     1.0001     1.0001     0.0000
 74 H      0.9440     1.0000     0.0560     1.0102     1.0102    -0.0000
 75 H      0.9343     1.0000     0.0657     0.9845     0.9845    -0.0000
 76 H      0.9292     1.0000     0.0708     0.9720     0.9720     0.0000
 77 H      0.9352     1.0000     0.0648     0.9854     0.9854    -0.0000
 78 H      0.9360     1.0000     0.0640     0.9852     0.9852     0.0000
 79 H      1.0152     1.0000    -0.0152     0.9983     0.9983     0.0000
 80 H      0.9434     1.0000     0.0566     1.0071     1.0071    -0.0000
 81 H      0.9464     1.0000     0.0536     0.9856     0.9856    -0.0000
 82 H      1.0249     1.0000    -0.0249     0.9935     0.9935    -0.0000
 83 H      0.9586     1.0000     0.0414     1.0086     1.0086     0.0000
 84 H      0.9470     1.0000     0.0530     0.9854     0.9854    -0.0000
 85 H      0.9404     1.0000     0.0596     0.9715     0.9715    -0.0000
 86 H      0.9447     1.0000     0.0553     0.9839     0.9839    -0.0000
 87 H      0.9433     1.0000     0.0567     0.9856     0.9856    -0.0000
 88 H      1.0168     1.0000    -0.0168     0.9961     0.9961     0.0000
 89 H      0.9539     1.0000     0.0461     1.0070     1.0070    -0.0000

  Mayer bond orders larger than 0.100000
B(  0-C ,  1-N ) :   1.0965 B(  0-C , 17-C ) :   1.6921 B(  0-C , 52-H ) :   0.9677 
B(  1-N ,  8-C ) :   1.0866 B(  1-N , 10-C ) :   0.9752 B(  2-C , 12-C ) :   1.5178 
B(  2-C , 16-C ) :   1.3460 B(  2-C , 53-H ) :   0.9766 B(  3-N , 14-C ) :   1.2153 
B(  3-N , 16-C ) :   1.1929 B(  3-N , 61-H ) :   0.8993 B(  4-C ,  6-C ) :   1.2194 
B(  4-C , 17-C ) :   1.2181 B(  4-C , 18-C ) :   1.3976 B(  5-N , 19-C ) :   1.4462 
B(  5-N , 27-C ) :   1.3851 B(  6-C ,  8-C ) :   1.6952 B(  6-C , 54-H ) :   0.9649 
B(  7-N , 30-C ) :   1.1937 B(  7-N , 38-C ) :   1.1948 B(  7-N , 62-H ) :   0.8971 
B(  8-C , 55-H ) :   0.9693 B(  9-N , 41-C ) :   1.3958 B(  9-N , 49-C ) :   1.4257 
B( 10-C , 56-H ) :   0.9766 B( 10-C , 57-H ) :   0.9830 B( 10-C , 58-H ) :   0.9834 
B( 11-N , 20-C ) :   1.1310 B( 11-N , 24-C ) :   1.1138 B( 11-N , 25-C ) :   0.9585 
B( 12-C , 14-C ) :   1.3485 B( 12-C , 59-H ) :   0.9747 B( 13-N , 31-C ) :   1.1501 
B( 13-N , 35-C ) :   1.1441 B( 13-N , 36-C ) :   0.9474 B( 14-C , 18-C ) :   1.1475 
B( 15-N , 42-C ) :   1.1084 B( 15-N , 46-C ) :   1.1195 B( 15-N , 47-C ) :   0.9624 
B( 16-C , 51-C ) :   1.1791 B( 17-C , 60-H ) :   0.9653 B( 18-C , 19-C ) :   1.1527 
B( 19-C , 21-C ) :   1.2349 B( 20-C , 28-C ) :   1.6246 B( 20-C , 63-H ) :   0.9701 
B( 21-C , 26-C ) :   1.6237 B( 21-C , 64-H ) :   0.9714 B( 22-C , 23-C ) :   1.2900 
B( 22-C , 28-C ) :   1.2694 B( 22-C , 29-C ) :   1.2207 B( 23-C , 24-C ) :   1.6168 
B( 23-C , 65-H ) :   0.9706 B( 24-C , 66-H ) :   0.9694 B( 25-C , 67-H ) :   0.9761 
B( 25-C , 68-H ) :   0.9828 B( 25-C , 69-H ) :   0.9822 B( 26-C , 27-C ) :   1.2297 
B( 26-C , 70-H ) :   0.9714 B( 27-C , 29-C ) :   1.2188 B( 28-C , 71-H ) :   0.9717 
B( 29-C , 30-C ) :   1.2353 B( 30-C , 32-C ) :   1.2886 B( 31-C , 39-C ) :   1.6021 
B( 31-C , 72-H ) :   0.9686 B( 32-C , 37-C ) :   1.5705 B( 32-C , 73-H ) :   0.9783 
B( 33-C , 34-C ) :   1.2980 B( 33-C , 39-C ) :   1.2912 B( 33-C , 40-C ) :   1.1980 
B( 34-C , 35-C ) :   1.5986 B( 34-C , 74-H ) :   0.9699 B( 35-C , 75-H ) :   0.9687 
B( 36-C , 76-H ) :   0.9766 B( 36-C , 77-H ) :   0.9817 B( 36-C , 78-H ) :   0.9826 
B( 37-C , 38-C ) :   1.2920 B( 37-C , 79-H ) :   0.9770 B( 38-C , 40-C ) :   1.2268 
B( 39-C , 80-H ) :   0.9709 B( 40-C , 41-C ) :   1.2401 B( 41-C , 43-C ) :   1.1960 
B( 42-C , 50-C ) :   1.6356 B( 42-C , 81-H ) :   0.9697 B( 43-C , 48-C ) :   1.6556 
B( 43-C , 82-H ) :   0.9726 B( 44-C , 45-C ) :   1.2637 B( 44-C , 50-C ) :   1.2688 
B( 44-C , 51-C ) :   1.2635 B( 45-C , 46-C ) :   1.6363 B( 45-C , 83-H ) :   0.9717 
B( 46-C , 84-H ) :   0.9702 B( 47-C , 85-H ) :   0.9762 B( 47-C , 86-H ) :   0.9829 
B( 47-C , 87-H ) :   0.9825 B( 48-C , 49-C ) :   1.1988 B( 48-C , 88-H ) :   0.9746 
B( 49-C , 51-C ) :   1.2313 B( 50-C , 89-H ) :   0.9710 

-------
TIMINGS
-------

Total SCF time: 0 days 0 hours 41 min 59 sec 

Total time                  ....    2519.779 sec
Sum of individual times     ....    2516.837 sec  ( 99.9%)

Fock matrix formation       ....    2499.380 sec  ( 99.2%)
Diagonalization             ....       4.695 sec  (  0.2%)
Density matrix formation    ....       0.494 sec  (  0.0%)
Population analysis         ....       0.311 sec  (  0.0%)
Initial guess               ....       2.279 sec  (  0.1%)
Orbital Transformation      ....       0.000 sec  (  0.0%)
Orbital Orthonormalization  ....       0.000 sec  (  0.0%)
DIIS solution               ....       2.561 sec  (  0.1%)
SOSCF solution              ....       5.797 sec  (  0.2%)

Maximum memory used throughout the entire SCF-calculation: 304.2 MB


           ************************************************************
           *        Program running with 8 parallel MPI-processes     *
           *              working on a common directory               *
           ************************************************************

------------------------------------------------------------------------------
                                ORCA  MP2 
------------------------------------------------------------------------------

Freezing NCore=104 chemical core electrons

----------
MP2 ENERGY (disk based algorithm)
----------

Dimension of the basis                    ...  918
Memory devoted to MP2                     ... 7000 MB   
Data format for buffers                   ... DOUBLE
Compression type for matrix containers    ... UNCOMPRESSED

-------------------------------
PARTIAL EXCHANGE TRANSFORMATION
-------------------------------

Transformation type                        ... one-operator
Generation of integrals (i,mue|j,nue)      ... ON
Generation of integrals (mue,kappa|nue,tau)... OFF
Generation of integrals (i,mue|a,nue)      ... OFF
Dimension of the basis                     ...  918
Number of internal MOs                     ...  127 (  52- 178)
Pair cutoff                                ... 2.500e-12 Eh
Number of AO pairs in the trafo            ... 421821
Total Number of distinct AO pairs          ... 421821
Memory devoted for trafo                   ... 7000.0 MB 
Max. Number of MO pairs treated together   ... 1088      
Number Format for Storage                  ... Double (8 Byte)
Integral package used                      ... LIBINT

Starting integral evaluation:
    ... done with AO integral generation
Closing buffer AOK     (38.23 GB; CompressionRatio= 1.33)
Collecting buffer AOK 
Number of MO pairs included in the trafo   ... 8128
------------------------
SORTING OF (i,mue|j,nue)
------------------------

IBATCH = 1 of  1
Closing buffer KAO     (51.03 GB; CompressionRatio= 1.00)
Collecting buffer KAO 
N(AO-Batches) Done                         ... 174381174 
N(AO-Batches) Skipped                      ... 167215809 
N(IJ)-pairs Skipped                        ...         0 
TOTAL TIME for half transformation         ...  1150.600 sec
AO-integral generation                     ...   250.518 sec
Half transformation                        ...   471.137 sec
K-integral sorting                         ...   102.126 sec

Finished integral transformation - now doing MP2 part

OPERATOR COMBINATION   0   0: ij=( 52..178, 52..178)
Process 5:   Internal MO 132
Process 2:   Internal MO  84
Process 0:   Internal MO  54
Process 0:   Internal MO  57
Process 1:   Internal MO  69
Process 0:   Internal MO  60
Process 4:   Internal MO 117
Process 0:   Internal MO  63
Process 1:   Internal MO  72
Process 3:   Internal MO 102
Process 2:   Internal MO  87
Process 0:   Internal MO  66
Process 7:   Internal MO 165
Process 1:   Internal MO  75
Process 6:   Internal MO 150
Process 2:   Internal MO  90
Process 1:   Internal MO  78
Process 5:   Internal MO 135
Process 3:   Internal MO 105
Process 4:   Internal MO 120
Process 1:   Internal MO  81
Process 2:   Internal MO  93
Process 3:   Internal MO 108
Process 7:   Internal MO 168
Process 2:   Internal MO  96
Process 4:   Internal MO 123
Process 5:   Internal MO 138
Process 6:   Internal MO 153
Process 3:   Internal MO 111
Process 2:   Internal MO  99
Process 4:   Internal MO 126
Process 5:   Internal MO 141
Process 3:   Internal MO 114
Process 7:   Internal MO 171
Process 6:   Internal MO 156
Process 4:   Internal MO 129
Process 5:   Internal MO 144
Process 6:   Internal MO 159
Process 7:   Internal MO 174
Process 5:   Internal MO 147
Process 6:   Internal MO 162
Process 7:   Internal MO 177
-----------------------------------------------
 MP2 CORRELATION ENERGY   :     -7.283149048 Eh
-----------------------------------------------


-------
TIMINGS
-------
Total time                : 1294.719 sec
Integral trafo            : 1159.608 sec ( 89.6%)
K(i,j)                    :    8.360 sec (  0.6%)
T(i,j)                    :    0.103 sec (  0.0%)

---------------------------------------
MP2 TOTAL ENERGY:    -2130.910716694 Eh
---------------------------------------

Maximum memory used throughout the entire MP2-calculation: 6735.8 MB

-------------------------   --------------------
FINAL SINGLE POINT ENERGY     -2130.910716693577
-------------------------   --------------------


                            ***************************************
                            *     ORCA property calculations      *
                            ***************************************


  WARNING: The energy has been calculated at the MP2 level but the densities
           used in the property calculations are still SCF densities
           MP2 response densities have not been calculated 
           use %mp2 Density relaxed end
           or  %mp2 Density unrelaxed end

                                    ---------------------
                                    Active property flags
                                    ---------------------
   (+) Dipole Moment


------------------------------------------------------------------------------
                       ORCA ELECTRIC PROPERTIES CALCULATION
------------------------------------------------------------------------------

Dipole Moment Calculation                       ... on
Quadrupole Moment Calculation                   ... off
Polarizability Calculation                      ... off
GBWName                                         ... /scratch/chu_02/allen/tmpyp4_amber_gaff2/conf1/conf1/Conf320.orca.gbw
Electron density                                ... /scratch/chu_02/allen/tmpyp4_amber_gaff2/conf1/conf1/Conf320.orca.scfp
The origin for moment calculation is the CENTER OF MASS  = (-0.001187, -0.004909  0.000004)

-------------
DIPOLE MOMENT
-------------
                                X             Y             Z
Electronic contribution:      1.62384      -3.38444      -0.06290
Nuclear contribution   :      0.00364       0.19099       0.07222
                        -----------------------------------------
Total Dipole Moment    :      1.62748      -3.19345       0.00932
                        -----------------------------------------
Magnitude (a.u.)       :      3.58426
Magnitude (Debye)      :      9.11046



--------------------
Rotational spectrum 
--------------------
 
Rotational constants in cm-1:     0.001501     0.001475     0.000761 
Rotational constants in MHz :    45.004636    44.223037    22.819107 

 Dipole components along the rotational axes: 
x,y,z [a.u.] :     2.414618    -2.648851     0.011388 
x,y,z [Debye]:     6.137470    -6.732843     0.028946 

 

Timings for individual modules:

Sum of individual times         ...     3820.135 sec (=  63.669 min)
GTO integral calculation        ...        2.904 sec (=   0.048 min)   0.1 %
SCF iterations                  ...     2521.160 sec (=  42.019 min)  66.0 %
MP2 module                      ...     1296.070 sec (=  21.601 min)  33.9 %
                             ****ORCA TERMINATED NORMALLY****
TOTAL RUN TIME: 0 days 1 hours 3 minutes 45 seconds 355 msec
# of primitive gaussian functions

