
                                 *****************
                                 * O   R   C   A *
                                 *****************

                                            #,                                       
                                            ###                                      
                                            ####                                     
                                            #####                                    
                                            ######                                   
                                           ########,                                 
                                     ,,################,,,,,                         
                               ,,#################################,,                 
                          ,,##########################################,,             
                       ,#########################################, ''#####,          
                    ,#############################################,,   '####,        
                  ,##################################################,,,,####,       
                ,###########''''           ''''###############################       
              ,#####''   ,,,,##########,,,,          '''####'''          '####       
            ,##' ,,,,###########################,,,                        '##       
           ' ,,###''''                  '''############,,,                           
         ,,##''                                '''############,,,,        ,,,,,,###''
      ,#''                                            '''#######################'''  
     '                                                          ''''####''''         
             ,#######,   #######,   ,#######,      ##                                
            ,#'     '#,  ##    ##  ,#'     '#,    #''#        ######   ,####,        
            ##       ##  ##   ,#'  ##            #'  '#       #        #'  '#        
            ##       ##  #######   ##           ,######,      #####,   #    #        
            '#,     ,#'  ##    ##  '#,     ,#' ,#      #,         ##   #,  ,#        
             '#######'   ##     ##  '#######'  #'      '#     #####' # '####'        



                  #######################################################
                  #                        -***-                        #
                  #          Department of theory and spectroscopy      #
                  #    Directorship and core code : Frank Neese         #
                  #        Max Planck Institute fuer Kohlenforschung    #
                  #                Kaiser Wilhelm Platz 1               #
                  #                 D-45470 Muelheim/Ruhr               #
                  #                      Germany                        #
                  #                                                     #
                  #                  All rights reserved                #
                  #                        -***-                        #
                  #######################################################


                         Program Version 5.0.4 -  RELEASE  -


 With contributions from (in alphabetic order):
   Daniel Aravena         : Magnetic Suceptibility
   Michael Atanasov       : Ab Initio Ligand Field Theory (pilot matlab implementation)
   Alexander A. Auer      : GIAO ZORA, VPT2 properties, NMR spectrum
   Ute Becker             : Parallelization
   Giovanni Bistoni       : ED, misc. LED, open-shell LED, HFLD
   Martin Brehm           : Molecular dynamics
   Dmytro Bykov           : SCF Hessian
   Vijay G. Chilkuri      : MRCI spin determinant printing, contributions to CSF-ICE
   Dipayan Datta          : RHF DLPNO-CCSD density
   Achintya Kumar Dutta   : EOM-CC, STEOM-CC
   Dmitry Ganyushin       : Spin-Orbit,Spin-Spin,Magnetic field MRCI
   Miquel Garcia          : C-PCM and meta-GGA Hessian, CC/C-PCM, Gaussian charge scheme
   Yang Guo               : DLPNO-NEVPT2, F12-NEVPT2, CIM, IAO-localization
   Andreas Hansen         : Spin unrestricted coupled pair/coupled cluster methods
   Benjamin Helmich-Paris : MC-RPA, TRAH-SCF, COSX integrals
   Lee Huntington         : MR-EOM, pCC
   Robert Izsak           : Overlap fitted RIJCOSX, COSX-SCS-MP3, EOM
   Marcus Kettner         : VPT2
   Christian Kollmar      : KDIIS, OOCD, Brueckner-CCSD(T), CCSD density, CASPT2, CASPT2-K
   Simone Kossmann        : Meta GGA functionals, TD-DFT gradient, OOMP2, MP2 Hessian
   Martin Krupicka        : Initial AUTO-CI
   Lucas Lang             : DCDCAS
   Marvin Lechner         : AUTO-CI (C++ implementation), FIC-MRCC
   Dagmar Lenk            : GEPOL surface, SMD
   Dimitrios Liakos       : Extrapolation schemes; Compound Job, initial MDCI parallelization
   Dimitrios Manganas     : Further ROCIS development; embedding schemes
   Dimitrios Pantazis     : SARC Basis sets
   Anastasios Papadopoulos: AUTO-CI, single reference methods and gradients
   Taras Petrenko         : DFT Hessian,TD-DFT gradient, ASA, ECA, R-Raman, ABS, FL, XAS/XES, NRVS
   Peter Pinski           : DLPNO-MP2, DLPNO-MP2 Gradient
   Christoph Reimann      : Effective Core Potentials
   Marius Retegan         : Local ZFS, SOC
   Christoph Riplinger    : Optimizer, TS searches, QM/MM, DLPNO-CCSD(T), (RO)-DLPNO pert. Triples
   Tobias Risthaus        : Range-separated hybrids, TD-DFT gradient, RPA, STAB
   Michael Roemelt        : Original ROCIS implementation
   Masaaki Saitow         : Open-shell DLPNO-CCSD energy and density
   Barbara Sandhoefer     : DKH picture change effects
   Avijit Sen             : IP-ROCIS
   Kantharuban Sivalingam : CASSCF convergence, NEVPT2, FIC-MRCI
   Bernardo de Souza      : ESD, SOC TD-DFT
   Georgi Stoychev        : AutoAux, RI-MP2 NMR, DLPNO-MP2 response
   Willem Van den Heuvel  : Paramagnetic NMR
   Boris Wezisla          : Elementary symmetry handling
   Frank Wennmohs         : Technical directorship


 We gratefully acknowledge several colleagues who have allowed us to
 interface, adapt or use parts of their codes:
   Stefan Grimme, W. Hujo, H. Kruse, P. Pracht,  : VdW corrections, initial TS optimization,
                  C. Bannwarth, S. Ehlert          DFT functionals, gCP, sTDA/sTD-DF
   Ed Valeev, F. Pavosevic, A. Kumar             : LibInt (2-el integral package), F12 methods
   Garnet Chan, S. Sharma, J. Yang, R. Olivares  : DMRG
   Ulf Ekstrom                                   : XCFun DFT Library
   Mihaly Kallay                                 : mrcc  (arbitrary order and MRCC methods)
   Jiri Pittner, Ondrej Demel                    : Mk-CCSD
   Frank Weinhold                                : gennbo (NPA and NBO analysis)
   Christopher J. Cramer and Donald G. Truhlar   : smd solvation model
   Lars Goerigk                                  : TD-DFT with DH, B97 family of functionals
   V. Asgeirsson, H. Jonsson                     : NEB implementation
   FAccTs GmbH                                   : IRC, NEB, NEB-TS, DLPNO-Multilevel, CI-OPT
                                                   MM, QMMM, 2- and 3-layer-ONIOM, Crystal-QMMM,
                                                   LR-CPCM, SF, NACMEs, symmetry and pop. for TD-DFT,
                                                   nearIR, NL-DFT gradient (VV10), updates on ESD,
                                                   ML-optimized integration grids
   S Lehtola, MJT Oliveira, MAL Marques          : LibXC Library
   Liviu Ungur et al                             : ANISO software


 Your calculation uses the libint2 library for the computation of 2-el integrals
 For citations please refer to: http://libint.valeyev.net

 Your ORCA version has been built with support for libXC version: 5.1.0
 For citations please refer to: https://tddft.org/programs/libxc/

 This ORCA versions uses:
   CBLAS   interface :  Fast vector & matrix operations
   LAPACKE interface :  Fast linear algebra routines
   SCALAPACK package :  Parallel linear algebra routines
   Shared memory     :  Shared parallel matrices
   BLAS/LAPACK       :  OpenBLAS 0.3.15  USE64BITINT DYNAMIC_ARCH NO_AFFINITY Sandybridge SINGLE_THREADED
        Core in use  :  Sandybridge
   Copyright (c) 2011-2014, The OpenBLAS Project


================================================================================

----- Orbital basis set information -----
Your calculation utilizes the basis: cc-pVDZ 
       H, B-Ne : Obtained from the ccRepo (grant-hill.group.shef.ac.uk/ccrepo) Feb. 2017
                 T. H. Dunning, Jr., J. Chem. Phys. 90, 1007 (1989)
            He : Obtained from the ccRepo (grant-hill.group.shef.ac.uk/ccrepo) Feb. 2017
                 D. E. Woon, T. H. Dunning, Jr., J. Chem. Phys. 100, 2975 (1994)
  Li-Be, Na-Mg : Obtained from the ccRepo (grant-hill.group.shef.ac.uk/ccrepo) Feb. 2017
                 B. P. Prascher, D. E. Woon, K. A. Peterson, T. H. Dunning, Jr., A. K. Wilson, Theor. Chem. Acc. 128, 69 (2011)
         Al-Ar : Obtained from the ccRepo (grant-hill.group.shef.ac.uk/ccrepo) Feb. 2017
                 D. E. Woon, T. H. Dunning, Jr., J. Chem. Phys. 98, 1358 (1993)
            Ca : Obtained from the Peterson Research Group Website (tyr0.chem.wsu.edu/~kipeters) Feb. 2017
                 J. Koput, K. A. Peterson, J. Phys. Chem. 106, 9595 (2002)
         Sc-Zn : Obtained from the ccRepo (grant-hill.group.shef.ac.uk/ccrepo) Feb. 2017
                 N. B. Balabanov, K. A. Peterson, J. Chem. Phys. 123, 064107 (2005)
                 N. B. Balabanov, K. A. Peterson, J. Chem. Phys. 125, 074110 (2006)
         Ga-Kr : Obtained from the ccRepo (grant-hill.group.shef.ac.uk/ccrepo) Feb. 2017
                 A. K. Wilson, D. E. Woon, K. A. Peterson, T. H. Dunning, Jr., J. Chem. Phys. 110, 7667 (1999)

================================================================================
                                        WARNINGS
                       Please study these warnings very carefully!
================================================================================


WARNING: No MP2 level density has been requested!
         To caclulate MP2 level properties use
         %mp2 Density relaxed end
         or
         %mp2 Density unrelaxed end

WARNING: Post HF methods need fully converged wavefunctions
  ===> : Setting SCFConvForced true
         You can overwrite this default with %scf ConvForced false 


INFO   : the flag for use of the SHARK integral package has been found!

================================================================================
                                       INPUT FILE
================================================================================
NAME = /scratch/allen/tmpyp4_amber_gaff2/2.Mdgx/conf11/conf11/Conf212.orca
|  1> ! PAL2
|  2> ! mp2 cc-pvdz TightSCF  NoKeepInts
|  3> 
|  4> %scf
|  5>   MaxCore 2000
|  6> end
|  7> %mp2
|  8>   MaxCore 2000
|  9> end
| 10> * xyz 0 1
| 11>    C       -4.83100         5.25500         0.64700
| 12>    C        1.47400         4.04100         0.05700
| 13>    C       -2.80200         4.09300         0.04900
| 14>    C       -2.35100         5.28700        -0.53500
| 15>    C       -3.14500         6.41600        -0.50800
| 16>    C       -5.17700         7.62600         0.12100
| 17>    C        0.13200         4.30700         0.06100
| 18>    C       -0.56900         3.05600         0.04700
| 19>    C        1.64900         2.61800         0.02300
| 20>    C       -4.07000         4.10200         0.64900
| 21>    N       -4.36700         6.38900         0.07400
| 22>    N        0.38800         2.06700         0.02500
| 23>    N       -2.01000         0.39500        -0.07500
| 24>    N       -0.38800        -2.07400        -0.02700
| 25>    N        2.01000        -0.40100         0.06500
| 26>    C       -1.96000         2.86100         0.02400
| 27>    C       -2.62300         1.61500        -0.01800
| 28>    C       -5.57300        -4.32900         1.06600
| 29>    C       -4.07300         1.47100         0.05600
| 30>    C       -4.10600        -2.75600        -0.02600
| 31>    C       -4.99500        -2.75700        -1.11100
| 32>    C       -6.13200        -3.54200        -1.07600
| 33>    C       -7.65100        -5.11300         0.04000
| 34>    C       -4.32400         0.14100         0.03700
| 35>    C       -3.02500        -0.52000        -0.04800
| 36>    C       -4.42200        -3.56600         1.07500
| 37>    N       -6.40700        -4.31300         0.00100
| 38>    C       -2.86700        -1.92200        -0.04000
| 39>    C       -1.65000        -2.62400        -0.02700
| 40>    C        3.56800        -6.14200        -1.04000
| 41>    C       -1.47600        -4.04900        -0.03400
| 42>    C        2.80300        -4.09900        -0.00800
| 43>    C        3.65700        -4.38400         1.06900
| 44>    C        4.42700        -5.53000         1.05900
| 45>    C        5.24500        -7.58800         0.01400
| 46>    C       -0.13400        -4.31500        -0.02200
| 47>    C        0.56800        -3.06400        -0.02700
| 48>    C        2.77500        -5.01200        -1.07400
| 49>    N        4.37600        -6.39100         0.01700
| 50>    C        1.95900        -2.86900        -0.00900
| 51>    C        2.62100        -1.62200         0.00900
| 52>    C        5.54300         4.33900        -1.13000
| 53>    C        4.07000        -1.47900        -0.09400
| 54>    C        4.10400         2.75100        -0.02100
| 55>    C        5.02700         2.72900         1.03600
| 56>    C        6.16600         3.50900         0.97800
| 57>    C        7.61900         5.15300        -0.11500
| 58>    C        4.32100        -0.14800        -0.09200
| 59>    C        3.02500         0.51400         0.01500
| 60>    C        4.38700         3.58200        -1.11500
| 61>    C        2.86600         1.91600         0.01300
| 62>    N        6.41300         4.29600        -0.09500
| 63>    H       -5.81900         5.30500         1.08700
| 64>    H        2.27400         4.76600         0.08100
| 65>    H       -1.37700         5.34500        -1.00600
| 66>    H       -2.83700         7.36000        -0.93700
| 67>    H       -4.88700         8.20900         0.99800
| 68>    H       -4.99500         8.20000        -0.78800
| 69>    H       -6.23000         7.35300         0.18400
| 70>    H       -0.33200         5.28200         0.06900
| 71>    H       -4.48100         3.20800         1.10500
| 72>    H        0.18200         1.07200         0.00500
| 73>    H       -0.18300        -1.08000        -0.02100
| 74>    H       -5.86400        -4.96200         1.89500
| 75>    H       -4.79400         2.27200         0.13900
| 76>    H       -4.80000        -2.16000        -1.99400
| 77>    H       -6.84100        -3.58200        -1.89300
| 78>    H       -8.42800        -4.53600         0.54600
| 79>    H       -7.95600        -5.33700        -0.98100
| 80>    H       -7.45600        -6.03700         0.58400
| 81>    H       -5.28700        -0.34400         0.10000
| 82>    H       -3.78000        -3.60100         1.94700
| 83>    H        3.58700        -6.86800        -1.84300
| 84>    H       -2.27600        -4.77400        -0.05000
| 85>    H        3.71400        -3.72400         1.92600
| 86>    H        5.09200        -5.79500         1.87100
| 87>    H        6.20500        -7.32900        -0.43900
| 88>    H        5.39300        -7.91700         1.04200
| 89>    H        4.75900        -8.37300        -0.56400
| 90>    H        0.32900        -5.29000        -0.00800
| 91>    H        2.14600        -4.84200        -1.94000
| 92>    H        5.80800         4.98600        -1.95600
| 93>    H        4.78800        -2.28100        -0.18500
| 94>    H        4.86000         2.11400         1.91200
| 95>    H        6.90100         3.53100         1.77200
| 96>    H        7.38300         6.10900         0.35600
| 97>    H        8.41400         4.65200         0.43500
| 98>    H        7.92100         5.31000        -1.15000
| 99>    H        5.28300         0.33600        -0.17900
|100>    H        3.72000         3.63200        -1.96700
|101> *
|102> 
|103>                          ****END OF INPUT****
================================================================================

                       ****************************
                       * Single Point Calculation *
                       ****************************

---------------------------------
CARTESIAN COORDINATES (ANGSTROEM)
---------------------------------
  C     -4.831000    5.255000    0.647000
  C      1.474000    4.041000    0.057000
  C     -2.802000    4.093000    0.049000
  C     -2.351000    5.287000   -0.535000
  C     -3.145000    6.416000   -0.508000
  C     -5.177000    7.626000    0.121000
  C      0.132000    4.307000    0.061000
  C     -0.569000    3.056000    0.047000
  C      1.649000    2.618000    0.023000
  C     -4.070000    4.102000    0.649000
  N     -4.367000    6.389000    0.074000
  N      0.388000    2.067000    0.025000
  N     -2.010000    0.395000   -0.075000
  N     -0.388000   -2.074000   -0.027000
  N      2.010000   -0.401000    0.065000
  C     -1.960000    2.861000    0.024000
  C     -2.623000    1.615000   -0.018000
  C     -5.573000   -4.329000    1.066000
  C     -4.073000    1.471000    0.056000
  C     -4.106000   -2.756000   -0.026000
  C     -4.995000   -2.757000   -1.111000
  C     -6.132000   -3.542000   -1.076000
  C     -7.651000   -5.113000    0.040000
  C     -4.324000    0.141000    0.037000
  C     -3.025000   -0.520000   -0.048000
  C     -4.422000   -3.566000    1.075000
  N     -6.407000   -4.313000    0.001000
  C     -2.867000   -1.922000   -0.040000
  C     -1.650000   -2.624000   -0.027000
  C      3.568000   -6.142000   -1.040000
  C     -1.476000   -4.049000   -0.034000
  C      2.803000   -4.099000   -0.008000
  C      3.657000   -4.384000    1.069000
  C      4.427000   -5.530000    1.059000
  C      5.245000   -7.588000    0.014000
  C     -0.134000   -4.315000   -0.022000
  C      0.568000   -3.064000   -0.027000
  C      2.775000   -5.012000   -1.074000
  N      4.376000   -6.391000    0.017000
  C      1.959000   -2.869000   -0.009000
  C      2.621000   -1.622000    0.009000
  C      5.543000    4.339000   -1.130000
  C      4.070000   -1.479000   -0.094000
  C      4.104000    2.751000   -0.021000
  C      5.027000    2.729000    1.036000
  C      6.166000    3.509000    0.978000
  C      7.619000    5.153000   -0.115000
  C      4.321000   -0.148000   -0.092000
  C      3.025000    0.514000    0.015000
  C      4.387000    3.582000   -1.115000
  C      2.866000    1.916000    0.013000
  N      6.413000    4.296000   -0.095000
  H     -5.819000    5.305000    1.087000
  H      2.274000    4.766000    0.081000
  H     -1.377000    5.345000   -1.006000
  H     -2.837000    7.360000   -0.937000
  H     -4.887000    8.209000    0.998000
  H     -4.995000    8.200000   -0.788000
  H     -6.230000    7.353000    0.184000
  H     -0.332000    5.282000    0.069000
  H     -4.481000    3.208000    1.105000
  H      0.182000    1.072000    0.005000
  H     -0.183000   -1.080000   -0.021000
  H     -5.864000   -4.962000    1.895000
  H     -4.794000    2.272000    0.139000
  H     -4.800000   -2.160000   -1.994000
  H     -6.841000   -3.582000   -1.893000
  H     -8.428000   -4.536000    0.546000
  H     -7.956000   -5.337000   -0.981000
  H     -7.456000   -6.037000    0.584000
  H     -5.287000   -0.344000    0.100000
  H     -3.780000   -3.601000    1.947000
  H      3.587000   -6.868000   -1.843000
  H     -2.276000   -4.774000   -0.050000
  H      3.714000   -3.724000    1.926000
  H      5.092000   -5.795000    1.871000
  H      6.205000   -7.329000   -0.439000
  H      5.393000   -7.917000    1.042000
  H      4.759000   -8.373000   -0.564000
  H      0.329000   -5.290000   -0.008000
  H      2.146000   -4.842000   -1.940000
  H      5.808000    4.986000   -1.956000
  H      4.788000   -2.281000   -0.185000
  H      4.860000    2.114000    1.912000
  H      6.901000    3.531000    1.772000
  H      7.383000    6.109000    0.356000
  H      8.414000    4.652000    0.435000
  H      7.921000    5.310000   -1.150000
  H      5.283000    0.336000   -0.179000
  H      3.720000    3.632000   -1.967000

----------------------------
CARTESIAN COORDINATES (A.U.)
----------------------------
  NO LB      ZA    FRAG     MASS         X           Y           Z
   0 C     6.0000    0    12.011   -9.129267    9.930511    1.222653
   1 C     6.0000    0    12.011    2.785456    7.636383    0.107714
   2 C     6.0000    0    12.011   -5.295013    7.734649    0.092597
   3 C     6.0000    0    12.011   -4.442746    9.990982   -1.011003
   4 C     6.0000    0    12.011   -5.943189   12.124483   -0.959981
   5 C     6.0000    0    12.011   -9.783112   14.411051    0.228657
   6 C     6.0000    0    12.011    0.249444    8.139050    0.115273
   7 C     6.0000    0    12.011   -1.075254    5.775003    0.088817
   8 C     6.0000    0    12.011    3.116158    4.947303    0.043464
   9 C     6.0000    0    12.011   -7.691185    7.751657    1.226432
  10 N     7.0000    0    14.007   -8.252434   12.073460    0.139840
  11 N     7.0000    0    14.007    0.733214    3.906064    0.047243
  12 N     7.0000    0    14.007   -3.798350    0.746442   -0.141729
  13 N     7.0000    0    14.007   -0.733214   -3.919292   -0.051023
  14 N     7.0000    0    14.007    3.798350   -0.757780    0.122832
  15 C     6.0000    0    12.011   -3.703863    5.406506    0.045353
  16 C     6.0000    0    12.011   -4.956752    3.051908   -0.034015
  17 C     6.0000    0    12.011  -10.531444   -8.180624    2.014448
  18 C     6.0000    0    12.011   -7.696855    2.779787    0.105825
  19 C     6.0000    0    12.011   -7.759216   -5.208085   -0.049133
  20 C     6.0000    0    12.011   -9.439182   -5.209975   -2.099486
  21 C     6.0000    0    12.011  -11.587801   -6.693410   -2.033345
  22 C     6.0000    0    12.011  -14.458295   -9.662170    0.075589
  23 C     6.0000    0    12.011   -8.171176    0.266451    0.069920
  24 C     6.0000    0    12.011   -5.716422   -0.982658   -0.090707
  25 C     6.0000    0    12.011   -8.356369   -6.738763    2.031456
  26 N     7.0000    0    14.007  -12.107475   -8.150389    0.001890
  27 C     6.0000    0    12.011   -5.417845   -3.632054   -0.075589
  28 C     6.0000    0    12.011   -3.118048   -4.958641   -0.051023
  29 C     6.0000    0    12.011    6.742543  -11.606698   -1.965315
  30 C     6.0000    0    12.011   -2.789236   -7.651501   -0.064251
  31 C     6.0000    0    12.011    5.296902   -7.745987   -0.015118
  32 C     6.0000    0    12.011    6.910728   -8.284559    2.020117
  33 C     6.0000    0    12.011    8.365818  -10.450186    2.001220
  34 C     6.0000    0    12.011    9.911614  -14.339242    0.026456
  35 C     6.0000    0    12.011   -0.253223   -8.154168   -0.041574
  36 C     6.0000    0    12.011    1.073364   -5.790121   -0.051023
  37 C     6.0000    0    12.011    5.243990   -9.471307   -2.029566
  38 N     7.0000    0    14.007    8.269442  -12.077240    0.032125
  39 C     6.0000    0    12.011    3.701973   -5.421624   -0.017008
  40 C     6.0000    0    12.011    4.952972   -3.065136    0.017008
  41 C     6.0000    0    12.011   10.474752    8.199522   -2.135391
  42 C     6.0000    0    12.011    7.691185   -2.794905   -0.177634
  43 C     6.0000    0    12.011    7.755436    5.198637   -0.039684
  44 C     6.0000    0    12.011    9.499653    5.157063    1.957756
  45 C     6.0000    0    12.011   11.652051    6.631049    1.848152
  46 C     6.0000    0    12.011   14.397823    9.737759   -0.217319
  47 C     6.0000    0    12.011    8.165507   -0.279679   -0.173855
  48 C     6.0000    0    12.011    5.716422    0.971319    0.028346
  49 C     6.0000    0    12.011    8.290229    6.768999   -2.107045
  50 C     6.0000    0    12.011    5.415955    3.620715    0.024566
  51 N     7.0000    0    14.007   12.118814    8.118263   -0.179524
  52 H     1.0000    0     1.008  -10.996316   10.024997    2.054132
  53 H     1.0000    0     1.008    4.297237    9.006435    0.153068
  54 H     1.0000    0     1.008   -2.602153   10.100586   -1.901064
  55 H     1.0000    0     1.008   -5.361153   13.908384   -1.770673
  56 H     1.0000    0     1.008   -9.235092   15.512762    1.885947
  57 H     1.0000    0     1.008   -9.439182   15.495754   -1.489104
  58 H     1.0000    0     1.008  -11.772994   13.895156    0.347710
  59 H     1.0000    0     1.008   -0.627389    9.981533    0.130391
  60 H     1.0000    0     1.008   -8.467863    6.062241    2.088147
  61 H     1.0000    0     1.008    0.343930    2.025786    0.009449
  62 H     1.0000    0     1.008   -0.345820   -2.040904   -0.039684
  63 H     1.0000    0     1.008  -11.081354   -9.376821    3.581031
  64 H     1.0000    0     1.008   -9.059347    4.293458    0.262672
  65 H     1.0000    0     1.008   -9.070685   -4.081808   -3.768114
  66 H     1.0000    0     1.008  -12.927616   -6.768999   -3.577252
  67 H     1.0000    0     1.008  -15.926612   -8.571798    1.031790
  68 H     1.0000    0     1.008  -15.034661  -10.085468   -1.853821
  69 H     1.0000    0     1.008  -14.089798  -11.408277    1.103600
  70 H     1.0000    0     1.008   -9.990982   -0.650066    0.188973
  71 H     1.0000    0     1.008   -7.143165   -6.804904    3.679297
  72 H     1.0000    0     1.008    6.778448  -12.978639   -3.482765
  73 H     1.0000    0     1.008   -4.301017   -9.021553   -0.094486
  74 H     1.0000    0     1.008    7.018443   -7.037340    3.639613
  75 H     1.0000    0     1.008    9.622485  -10.950963    3.535678
  76 H     1.0000    0     1.008   11.725751  -13.849803   -0.829590
  77 H     1.0000    0     1.008   10.191293  -14.960962    1.969095
  78 H     1.0000    0     1.008    8.993207  -15.822677   -1.065806
  79 H     1.0000    0     1.008    0.621720   -9.996651   -0.015118
  80 H     1.0000    0     1.008    4.055352   -9.150054   -3.666069
  81 H     1.0000    0     1.008   10.975529    9.422175   -3.696304
  82 H     1.0000    0     1.008    9.048009   -4.310465   -0.349599
  83 H     1.0000    0     1.008    9.184069    3.994881    3.613156
  84 H     1.0000    0     1.008   13.041000    6.672623    3.348595
  85 H     1.0000    0     1.008   13.951848   11.544337    0.672743
  86 H     1.0000    0     1.008   15.900156    8.791006    0.822031
  87 H     1.0000    0     1.008   14.968521   10.034446   -2.173185
  88 H     1.0000    0     1.008    9.983423    0.634948   -0.338261
  89 H     1.0000    0     1.008    7.029781    6.863485   -3.717091

--------------------------------
INTERNAL COORDINATES (ANGSTROEM)
--------------------------------
 C      0   0   0     0.000000000000     0.00000000     0.00000000
 C      1   0   0     6.447861738592     0.00000000     0.00000000
 C      1   2   0     2.413439247215    20.70625311     0.00000000
 C      3   1   2     1.403600014249    87.91715679   309.78397366
 C      4   3   1     1.380509326300   120.18189785     0.10103757
 C      5   4   3     2.447195333438   152.49356967     1.74498097
 C      2   1   3     1.368114030335     5.09215588    66.09719708
 C      7   2   4     1.434084376876   108.05010202   127.76079871
 C      2   1   3     1.434123425651   107.95744734   332.29952717
 C      1   2   7     1.381497014112    45.92074610    98.74673834
 N      1   2   7     1.352620050125    77.50515181   298.06754432
 N      9   2   1     1.376127174356   106.58526707     4.58745988
 N     12   9   2     2.925062050624   168.53581413   171.12065651
 N     13  12   9     2.954513327098    91.55032014    11.12112580
 N     14  13  12     2.925371258490    88.43092389   359.84326247
 C      8   7   2     1.404790019896   127.24786865   181.11170171
 C     13  12   9     1.366535034311    81.72106996   188.00453233
 C     14  13  12     5.758810554272    80.56209567   166.76250791
 C     17  13  12     1.459010623676   111.08861209   183.82872609
 C     18  14  13     2.412235892279    27.27532823    36.33507194
 C     20  18  14     1.402692767501    87.95206320   148.94598259
 C     21  20  18     1.382106725257   120.14573887   359.70382047
 C     18  14  13     2.446510985056   144.15733107    82.80075377
 C     19  17  13     1.353610726908   106.29293361   359.75308708
 C     13  12   9     1.366813447402   172.21332906    33.46711076
 C     18  14  13     1.380960173213    15.08449437   309.23336894
 N     22  21  20     1.352773077792   120.73759875     0.27865223
 C     25  13  17     1.410897586645   125.60330303   182.37774668
 C     14  13  12     1.376642291955    80.24689249   177.85461986
 C     14  13  12     5.764089607215   164.51507311   312.20821879
 C     29  14  13     1.435600919476   106.58649366   178.76395472
 C     30  14  13     2.413316804732    27.10625047    82.12560436
 C     32  30  14     1.403734305344    87.90059683   149.76154742
 C     33  32  30     1.380694028378   120.14881443   359.74174632
 C     34  33  32     2.448777858443   152.49203239     2.45173620
 C     31  29  14     1.368160809262   108.16950133     0.70383075
 C     14  13  12     1.376239804685   169.26375223   353.09862627
 C     30  14  13     1.380907310430    14.68948582   353.70041132
 N     34  33  32     1.352658863128   120.85575621     0.19603406
 C     37  14  29     1.404717053360   126.01551127   180.90772073
 C     15  14  13     1.366491126938    81.61824056   183.09049352
 C      2   1   3     4.249062720177   161.57945148   114.84532232
 C     41  15  14     1.459677704153   111.05201287   175.08990246
 C     42   2   1     2.412953791518    41.78584867   191.76016297
 C     44  42   2     1.403446472082    87.95153797   233.97558675
 C     45  44  42     1.381696421071   120.11137308     0.19721020
 C     42   2   1     2.450019795838   135.97209175   102.07501207
 C     43  41  15     1.354461516618   106.26758155     0.30894352
 C     15  14  13     1.367461151185   171.87382904   332.35056460
 C     42   2   1     1.381886391857    32.59078432   240.61544216
 C      9   2   1     1.404988612053   126.98745415   185.59179741
 N     42   2   1     1.352765315936   113.57249190   129.81160127
 H      1   2   7     1.082702175116   159.75045994   161.96522825
 H      2   1   3     1.079907866440   126.58071889   158.08004526
 H      4   3   1     1.083457890275   121.01539493   179.60618441
 H      5   4   3     1.081684334730   122.83294044   179.46957812
 H      6   5   4     1.092299409503   104.46678678   100.03455028
 H      6   5   4     1.090358198025    84.68769153   209.47739151
 H      6   5   4     1.089636177813   133.90001709   322.20604260
 H      7   2  54     1.079807853278   126.66122480     1.30600390
 H     10   1   2     1.084478215549   118.67604558   158.81336432
 H     12   9   2     1.016297692608   125.29023241   180.00180175
 H     14  13  12     1.014936943854    44.97226959   359.42596618
 H     18  14  13     1.082871645210   128.03556573   234.20482432
 H     19  17  13     1.080893611786   126.41830519   178.11313280
 H     21  20  18     1.083569563987   121.05669627   180.67006309
 H     22  21  20     1.082483256222   122.73097286   180.59748951
 H     23  18  14     1.092105306278   103.92715769   234.93429879
 H     23  18  14     1.088871893291   134.19244188    12.25587044
 H     23  18  14     1.089833473518    84.85857450   125.45241208
 H     24  19  17     1.080075460327   127.28078426   178.44613241
 H     26  18  14     1.083408048706   118.76995697   244.94906660
 H     30  14  13     1.082703098730   127.99711412   279.66882698
 H     31  29  14     1.079759695488   125.22293469   180.92530585
 H     33  32  30     1.083188810873   121.01964473   180.74284758
 H     34  33  32     1.082494341787   122.70821597   180.59516895
 H     35  34  33     1.092652735319   105.73575241    97.19771933
 H     35  34  33     1.089462711615    84.05943581   206.43036958
 H     35  34  33     1.089268102902   133.08365142   318.50306270
 H     36  31  29     1.079439669458   126.61599965   178.98859863
 H     38  30  73     1.083742127999   118.77264435   359.90091293
 H     42   2   1     1.082178358682   119.31790784   346.44313172
 H     43  41  15     1.080281907652   126.36969097   182.06329380
 H     45  44  42     1.083277434455   121.10105945   179.58025624
 H     46  45  44     1.082194529648   122.72144639   179.46906377
 H     47  42   2     1.091546151109   106.65128841   315.16475048
 H     47  42   2     1.088818625851   132.46019523    94.52397119
 H     47  42   2     1.089531091801    83.63838232   206.04504406
 H     48  43  41     1.080402239909   127.23657387   181.62955349
 H     50  42   2     1.083186502870   118.77001737    94.71359229

---------------------------
INTERNAL COORDINATES (A.U.)
---------------------------
 C      0   0   0     0.000000000000     0.00000000     0.00000000
 C      1   0   0    12.184692835328     0.00000000     0.00000000
 C      1   2   0     4.560739218094    20.70625311     0.00000000
 C      3   1   2     2.652419628499    87.91715679   309.78397366
 C      4   3   1     2.608784552030   120.18189785     0.10103757
 C      5   4   3     4.624528976408   152.49356967     1.74498097
 C      2   1   3     2.585360837309     5.09215588    66.09719708
 C      7   2   4     2.710026725231   108.05010202   127.76079871
 C      2   1   3     2.710100516721   107.95744734   332.29952717
 C      1   2   7     2.610651011501    45.92074610    98.74673834
 N      1   2   7     2.556081457987    77.50515181   298.06754432
 N      9   2   1     2.600503484979   106.58526707     4.58745988
 N     12   9   2     5.527566200405   168.53581413   171.12065651
 N     13  12   9     5.583221047236    91.55032014    11.12112580
 N     14  13  12     5.528150518591    88.43092389   359.84326247
 C      8   7   2     2.654668413270   127.24786865   181.11170171
 C     13  12   9     2.582376967257    81.72106996   188.00453233
 C     14  13  12    10.882574804710    80.56209567   166.76250791
 C     17  13  12     2.757130505230   111.08861209   183.82872609
 C     18  14  13     4.558465206823    27.27532823    36.33507194
 C     20  18  14     2.650705180609    87.95206320   148.94598259
 C     21  20  18     2.611803198586   120.14573887   359.70382047
 C     18  14  13     4.623235745386   144.15733107    82.80075377
 C     19  17  13     2.557953565794   106.29293361   359.75308708
 C     13  12   9     2.582903091751   172.21332906    33.46711076
 C     18  14  13     2.609636529225    15.08449437   309.23336894
 N     22  21  20     2.556370638369   120.73759875     0.27865223
 C     25  13  17     2.666210041769   125.60330303   182.37774668
 C     14  13  12     2.601476916169    80.24689249   177.85461986
 C     14  13  12    10.892550769017   164.51507311   312.20821879
 C     29  14  13     2.712892575415   106.58649366   178.76395472
 C     30  14  13     4.560507835333    27.10625047    82.12560436
 C     32  30  14     2.652673401891    87.90059683   149.76154742
 C     33  32  30     2.609133588376   120.14881443   359.74174632
 C     34  33  32     4.627519515267   152.49203239     2.45173620
 C     31  29  14     2.585449236669   108.16950133     0.70383075
 C     14  13  12     2.600716325456   169.26375223   353.09862627
 C     30  14  13     2.609536633043    14.68948582   353.70041132
 N     34  33  32     2.556154803934   120.85575621     0.19603406
 C     37  14  29     2.654530526499   126.01551127   180.90772073
 C     15  14  13     2.582293994346    81.61824056   183.09049352
 C      2   1   3     8.029564866989   161.57945148   114.84532232
 C     41  15  14     2.758391104639   111.05201287   175.08990246
 C     42   2   1     4.559821839776    41.78584867   191.76016297
 C     44  42   2     2.652129475853    87.95153797   233.97558675
 C     45  44  42     2.611027836043   120.11137308     0.19721020
 C     42   2   1     4.629866436820   135.97209175   102.07501207
 C     43  41  15     2.559561325344   106.26758155     0.30894352
 C     15  14  13     2.584127074516   171.87382904   332.35056460
 C     42   2   1     2.611386828803    32.59078432   240.61544216
 C      9   2   1     2.655043698059   126.98745415   185.59179741
 N     42   2   1     2.556355970587   113.57249190   129.81160127
 H      1   2   7     2.046010595569   159.75045994   161.96522825
 H      2   1   3     2.040730117440   126.58071889   158.08004526
 H      4   3   1     2.047438690257   121.01539493   179.60618441
 H      5   4   3     2.044087155992   122.83294044   179.46957812
 H      6   5   4     2.064146740204   104.46678678   100.03455028
 H      6   5   4     2.060478382143    84.68769153   209.47739151
 H      6   5   4     2.059113961680   133.90001709   322.20604260
 H      7   2  54     2.040541119952   126.66122480     1.30600390
 H     10   1   2     2.049366825591   118.67604558   158.81336432
 H     12   9   2     1.920524309565   125.29023241   180.00180175
 H     14  13  12     1.917952867083    44.97226959   359.42596618
 H     18  14  13     2.046330847636   128.03556573   234.20482432
 H     19  17  13     2.042592906181   126.41830519   178.11313280
 H     21  20  18     2.047649722989   121.05669627   180.67006309
 H     22  21  20     2.045596898814   122.73097286   180.59748951
 H     23  18  14     2.063779938267   103.92715769   234.93429879
 H     23  18  14     2.057669673245   134.19244188    12.25587044
 H     23  18  14     2.059486796529    84.85857450   125.45241208
 H     24  19  17     2.041046823986   127.28078426   178.44613241
 H     26  18  14     2.047344503340   118.76995697   244.94906660
 H     30  14  13     2.046012340948   127.99711412   279.66882698
 H     31  29  14     2.040450114918   125.22293469   180.92530585
 H     33  32  30     2.046930203877   121.01964473   180.74284758
 H     34  33  32     2.045617847496   122.70821597   180.59516895
 H     35  34  33     2.064814429233   105.73575241    97.19771933
 H     35  34  33     2.058786158072    84.05943581   206.43036958
 H     35  34  33     2.058418400901   133.08365142   318.50306270
 H     36  31  29     2.039845353366   126.61599965   178.98859863
 H     38  30  73     2.047975821711   118.77264435   359.90091293
 H     42   2   1     2.045020725966   119.31790784   346.44313172
 H     43  41  15     2.041436952892   126.36969097   182.06329380
 H     45  44  42     2.047097678177   121.10105945   179.58025624
 H     46  45  44     2.045051284662   122.72144639   179.46906377
 H     47  42   2     2.062723288131   106.65128841   315.16475048
 H     47  42   2     2.057569012371   132.46019523    94.52397119
 H     47  42   2     2.058915377895    83.63838232   206.04504406
 H     48  43  41     2.041664347903   127.23657387   181.62955349
 H     50  42   2     2.046925842384   118.77001737    94.71359229

---------------------
BASIS SET INFORMATION
---------------------
There are 3 groups of distinct atoms

 Group   1 Type C   : 17s4p1d contracted to 3s2p1d pattern {881/31/1}
 Group   2 Type N   : 17s4p1d contracted to 3s2p1d pattern {881/31/1}
 Group   3 Type H   : 4s1p contracted to 2s1p pattern {31/1}

Atom   0C    basis set group =>   1
Atom   1N    basis set group =>   2
Atom   2C    basis set group =>   1
Atom   3N    basis set group =>   2
Atom   4C    basis set group =>   1
Atom   5N    basis set group =>   2
Atom   6C    basis set group =>   1
Atom   7N    basis set group =>   2
Atom   8C    basis set group =>   1
Atom   9N    basis set group =>   2
Atom  10C    basis set group =>   1
Atom  11N    basis set group =>   2
Atom  12C    basis set group =>   1
Atom  13N    basis set group =>   2
Atom  14C    basis set group =>   1
Atom  15N    basis set group =>   2
Atom  16C    basis set group =>   1
Atom  17C    basis set group =>   1
Atom  18C    basis set group =>   1
Atom  19C    basis set group =>   1
Atom  20C    basis set group =>   1
Atom  21C    basis set group =>   1
Atom  22C    basis set group =>   1
Atom  23C    basis set group =>   1
Atom  24C    basis set group =>   1
Atom  25C    basis set group =>   1
Atom  26C    basis set group =>   1
Atom  27C    basis set group =>   1
Atom  28C    basis set group =>   1
Atom  29C    basis set group =>   1
Atom  30C    basis set group =>   1
Atom  31C    basis set group =>   1
Atom  32C    basis set group =>   1
Atom  33C    basis set group =>   1
Atom  34C    basis set group =>   1
Atom  35C    basis set group =>   1
Atom  36C    basis set group =>   1
Atom  37C    basis set group =>   1
Atom  38C    basis set group =>   1
Atom  39C    basis set group =>   1
Atom  40C    basis set group =>   1
Atom  41C    basis set group =>   1
Atom  42C    basis set group =>   1
Atom  43C    basis set group =>   1
Atom  44C    basis set group =>   1
Atom  45C    basis set group =>   1
Atom  46C    basis set group =>   1
Atom  47C    basis set group =>   1
Atom  48C    basis set group =>   1
Atom  49C    basis set group =>   1
Atom  50C    basis set group =>   1
Atom  51C    basis set group =>   1
Atom  52H    basis set group =>   3
Atom  53H    basis set group =>   3
Atom  54H    basis set group =>   3
Atom  55H    basis set group =>   3
Atom  56H    basis set group =>   3
Atom  57H    basis set group =>   3
Atom  58H    basis set group =>   3
Atom  59H    basis set group =>   3
Atom  60H    basis set group =>   3
Atom  61H    basis set group =>   3
Atom  62H    basis set group =>   3
Atom  63H    basis set group =>   3
Atom  64H    basis set group =>   3
Atom  65H    basis set group =>   3
Atom  66H    basis set group =>   3
Atom  67H    basis set group =>   3
Atom  68H    basis set group =>   3
Atom  69H    basis set group =>   3
Atom  70H    basis set group =>   3
Atom  71H    basis set group =>   3
Atom  72H    basis set group =>   3
Atom  73H    basis set group =>   3
Atom  74H    basis set group =>   3
Atom  75H    basis set group =>   3
Atom  76H    basis set group =>   3
Atom  77H    basis set group =>   3
Atom  78H    basis set group =>   3
Atom  79H    basis set group =>   3
Atom  80H    basis set group =>   3
Atom  81H    basis set group =>   3
Atom  82H    basis set group =>   3
Atom  83H    basis set group =>   3
Atom  84H    basis set group =>   3
Atom  85H    basis set group =>   3
Atom  86H    basis set group =>   3
Atom  87H    basis set group =>   3
Atom  88H    basis set group =>   3
Atom  89H    basis set group =>   3


           ************************************************************
           *        Program running with 16 parallel MPI-processes    *
           *              working on a common directory               *
           ************************************************************
------------------------------------------------------------------------------
                           ORCA GTO INTEGRAL CALCULATION
------------------------------------------------------------------------------
------------------------------------------------------------------------------
                   ___                                                        
                  /   \      - P O W E R E D   B Y -                         
                 /     \                                                     
                 |  |  |   _    _      __       _____    __    __             
                 |  |  |  | |  | |    /  \     |  _  \  |  |  /  |          
                  \  \/   | |  | |   /    \    | | | |  |  | /  /          
                 / \  \   | |__| |  /  /\  \   | |_| |  |  |/  /          
                |  |  |   |  __  | /  /__\  \  |    /   |      \           
                |  |  |   | |  | | |   __   |  |    \   |  |\   \          
                \     /   | |  | | |  |  |  |  | |\  \  |  | \   \       
                 \___/    |_|  |_| |__|  |__|  |_| \__\ |__|  \__/        
                                                                              
                      - O R C A' S   B I G   F R I E N D -                    
                                      &                                       
                       - I N T E G R A L  F E E D E R -                       
                                                                              
 v1 FN, 2020, v2 2021                                                         
------------------------------------------------------------------------------


Reading SHARK input file /scratch/allen/tmpyp4_amber_gaff2/conf1/conf1/Conf212.orca.SHARKINP.tmp ... ok
----------------------
SHARK INTEGRAL PACKAGE
----------------------

Number of atoms                             ...     90
Number of basis functions                   ...   1230
Number of shells                            ...    738
Maximum angular momentum                    ...      2
Integral batch strategy                     ... SHARK/LIBINT Hybrid
RI-J (if used) integral strategy            ... SPLIT-RIJ (Revised 2003 algorithm where possible)
Printlevel                                  ...      1
Contraction scheme used                     ... PARTIAL GENERAL contraction
Coulomb Range Separation                    ... NOT USED
Exchange Range Separation                   ... NOT USED
Finite Nucleus Model                        ... NOT USED
Auxiliary Coulomb fitting basis             ... NOT available
Auxiliary J/K fitting basis                 ... NOT available
Auxiliary Correlation fitting basis         ... NOT available
Auxiliary 'external' fitting basis          ... NOT available
Integral threshold                          ...     2.500000e-11
Primitive cut-off                           ...     2.500000e-12
Primitive pair pre-selection threshold      ...     2.500000e-12

Calculating pre-screening integrals         ... done (  0.1 sec) Dimension = 738
Calculating pre-screening integrals (ORCA)  ... done (  0.3 sec) Dimension = 426
Organizing shell pair data                  ... done (  0.7 sec)
Shell pair information
Total number of shell pairs                 ...    272691
Shell pairs after pre-screening             ...     71664
Total number of primitive shell pairs       ...    422091
Primitive shell pairs kept                  ...     92527
          la=0 lb=0:  29417 shell pairs
          la=1 lb=0:  26006 shell pairs
          la=1 lb=1:   4706 shell pairs
          la=2 lb=0:   7884 shell pairs
          la=2 lb=1:   3122 shell pairs
          la=2 lb=2:    529 shell pairs

Calculating one electron integrals          ... done (  0.2 sec)
Calculating Nuclear repulsion               ... done (  0.0 sec) ENN=   6231.594550200014 Eh

SHARK setup successfully completed in   2.4 seconds

Maximum memory used throughout the entire GTOINT-calculation: 99.0 MB


           ************************************************************
           *        Program running with 16 parallel MPI-processes    *
           *              working on a common directory               *
           ************************************************************
-------------------------------------------------------------------------------
                                 ORCA SCF
-------------------------------------------------------------------------------

------------
SCF SETTINGS
------------
Hamiltonian:
 Ab initio Hamiltonian  Method          .... Hartree-Fock(GTOs)


General Settings:
 Integral files         IntName         .... /scratch/allen/tmpyp4_amber_gaff2/conf1/conf1/Conf212.orca
 Hartree-Fock type      HFTyp           .... RHF
 Total Charge           Charge          ....    0
 Multiplicity           Mult            ....    1
 Number of Electrons    NEL             ....  358
 Basis Dimension        Dim             ....  918
 Nuclear Repulsion      ENuc            ....   6231.5945502000 Eh

Convergence Acceleration:
 DIIS                   CNVDIIS         .... on
   Start iteration      DIISMaxIt       ....    12
   Startup error        DIISStart       ....  0.200000
   # of expansion vecs  DIISMaxEq       ....     5
   Bias factor          DIISBfac        ....   1.050
   Max. coefficient     DIISMaxC        ....  10.000
 Trust-Rad. Augm. Hess. CNVTRAH         .... auto
   Auto Start mean grad. ratio tolernc. ....  1.125000
   Auto Start start iteration           ....    20
   Auto Start num. interpolation iter.  ....    10
   Max. Number of Micro iterations      ....    16
   Max. Number of Macro iterations      .... Maxiter - #DIIS iter
   Number of Davidson start vectors     ....     2
   Converg. threshold I  (grad. norm)   ....   1.000e-05
   Converg. threshold II (energy diff.) ....   1.000e-08
   Grad. Scal. Fac. for Micro threshold ....   0.100
   Minimum threshold for Micro iter.    ....   0.010
   NR start threshold (gradient norm)   ....   0.001
   Initial trust radius                 ....   0.400
   Minimum AH scaling param. (alpha)    ....   1.000
   Maximum AH scaling param. (alpha)    .... 1000.000
   Orbital update algorithm             .... Taylor
   White noise on init. David. guess    .... on
   Maximum white noise                  ....   0.010
   Quad. conv. algorithm                .... NR
 SOSCF                  CNVSOSCF        .... on
   Start iteration      SOSCFMaxIt      ....   150
   Startup grad/error   SOSCFStart      ....  0.003300
 Level Shifting         CNVShift        .... on
   Level shift para.    LevelShift      ....    0.2500
   Turn off err/grad.   ShiftErr        ....    0.0010
 Zerner damping         CNVZerner       .... off
 Static damping         CNVDamp         .... on
   Fraction old density DampFac         ....    0.7000
   Max. Damping (<1)    DampMax         ....    0.9800
   Min. Damping (>=0)   DampMin         ....    0.0000
   Turn off err/grad.   DampErr         ....    0.1000
 Fernandez-Rico         CNVRico         .... off

SCF Procedure:
 Maximum # iterations   MaxIter         ....   125
 SCF integral mode      SCFMode         .... Direct
   Integral package                     .... SHARK and LIBINT hybrid scheme
 Reset frequency        DirectResetFreq ....    20
 Integral Threshold     Thresh          ....  2.500e-11 Eh
 Primitive CutOff       TCut            ....  2.500e-12 Eh

Convergence Tolerance:
 Convergence Check Mode ConvCheckMode   .... Total+1el-Energy
 Convergence forced     ConvForced      .... 1
 Energy Change          TolE            ....  1.000e-08 Eh
 1-El. energy change                    ....  1.000e-05 Eh
 Orbital Gradient       TolG            ....  1.000e-05
 Orbital Rotation angle TolX            ....  1.000e-05
 DIIS Error             TolErr          ....  5.000e-07


Diagonalization of the overlap matrix:
Smallest eigenvalue                        ... 2.178e-04
Time for diagonalization                   ...    0.423 sec
Threshold for overlap eigenvalues          ... 1.000e-08
Number of eigenvalues below threshold      ... 0
Time for construction of square roots      ...    0.269 sec
Total time needed                          ...    0.699 sec

Time for model grid setup =    1.286 sec

------------------------------
INITIAL GUESS: MODEL POTENTIAL
------------------------------
Loading Hartree-Fock densities                     ... done
Calculating cut-offs                               ... done
Initializing the effective Hamiltonian             ... done
Setting up the integral package (SHARK)            ... done
Starting the Coulomb interaction                   ... done (   1.4 sec)
Reading the grid                                   ... done
Mapping shells                                     ... done
Starting the XC term evaluation                    ... done (   0.2 sec)
Transforming the Hamiltonian                       ... done (   0.3 sec)
Diagonalizing the Hamiltonian                      ... done (   0.4 sec)
Back transforming the eigenvectors                 ... done (   0.1 sec)
Now organizing SCF variables                       ... done
                      ------------------
                      INITIAL GUESS DONE (   3.8 sec)
                      ------------------
--------------
SCF ITERATIONS
--------------
ITER       Energy         Delta-E        Max-DP      RMS-DP      [F,P]     Damp
               ***  Starting incremental Fock matrix formation  ***
  0  -2121.6782702186   0.000000000000 0.07292751  0.00122282  0.2320068 0.7000
  1  -2122.3312897963  -0.653019577712 0.05517437  0.00099506  0.1437584 0.7000
                               ***Turning on DIIS***
  2  -2122.7374629388  -0.406173142543 0.12913910  0.00225720  0.0802458 0.0000
  3  -2117.9396961774   4.797766761400 0.04156747  0.00067875  0.0438181 0.0000
  4  -2123.4148095030  -5.475113325600 0.01270377  0.00022658  0.0083227 0.0000
  5  -2123.5700809022  -0.155271399204 0.00615451  0.00013290  0.0049447 0.0000
  6  -2123.5540826393   0.015998262885 0.00372559  0.00008536  0.0020393 0.0000
  7  -2123.6510142252  -0.096931585867 0.00304582  0.00006725  0.0015777 0.0000
  8  -2123.6616952133  -0.010680988062 0.00321327  0.00006365  0.0014727 0.0000
  9  -2123.6316620936   0.030033119652 0.00256594  0.00004452  0.0011795 0.0000
 10  -2123.6410173403  -0.009355246693 0.00515357  0.00009240  0.0009142 0.0000
                      *** Initiating the SOSCF procedure ***
                           *** Shutting down DIIS ***
                      *** Re-Reading the Fockian *** 
                      *** Removing any level shift *** 
ITER      Energy       Delta-E        Grad      Rot      Max-DP    RMS-DP
 11  -2123.53183690   0.1091804434  0.000190  0.000190  0.000238  0.000005
               *** Restarting incremental Fock matrix formation ***
 12  -2123.59817937  -0.0663424727  0.000876  0.005948  0.001349  0.000034
 13  -2123.59828221  -0.0001028414  0.001082  0.030027  0.006308  0.000133
 14  -2123.59845910  -0.0001768916  0.000349  0.001903  0.000645  0.000012
 15  -2123.59847487  -0.0000157634  0.000173  0.002595  0.000710  0.000017
 16  -2123.59848423  -0.0000093626  0.000158  0.002858  0.000466  0.000010
 17  -2123.59848736  -0.0000031306  0.000140  0.001953  0.000331  0.000007
 18  -2123.59848905  -0.0000016943  0.000072  0.000853  0.000290  0.000004
 19  -2123.59848986  -0.0000008038  0.000045  0.000824  0.000178  0.000004
 20  -2123.59849017  -0.0000003080  0.000025  0.000550  0.000102  0.000002
 21  -2123.59849033  -0.0000001671  0.000024  0.000674  0.000129  0.000002
 22  -2123.59849046  -0.0000001300  0.000020  0.000617  0.000110  0.000002
 23  -2123.59849054  -0.0000000786  0.000012  0.000412  0.000073  0.000001
 24  -2123.59849058  -0.0000000425  0.000008  0.000314  0.000048  0.000001
 25  -2123.59849061  -0.0000000277  0.000008  0.000194  0.000034  0.000001
 26  -2123.59849063  -0.0000000144  0.000006  0.000173  0.000030  0.000001
 27  -2123.59849063  -0.0000000075  0.000004  0.000129  0.000024  0.000001
                  ***Gradient check signals convergence***
              ***Rediagonalizing the Fockian in SOSCF/NRSCF***

               *****************************************************
               *                     SUCCESS                       *
               *           SCF CONVERGED AFTER  28 CYCLES          *
               *****************************************************


----------------
TOTAL SCF ENERGY
----------------

Total Energy       :        -2123.59849063 Eh          -57786.05272 eV

Components:
Nuclear Repulsion  :         6231.59455020 Eh          169570.30850 eV
Electronic Energy  :        -8355.19304083 Eh         -227356.36122 eV
One Electron Energy:       -15303.93763626 Eh         -416441.31455 eV
Two Electron Energy:         6948.74459543 Eh          189084.95333 eV

Virial components:
Potential Energy   :        -4245.81207727 Eh         -115534.42028 eV
Kinetic Energy     :         2122.21358664 Eh           57748.36756 eV
Virial Ratio       :            2.00065258


---------------
SCF CONVERGENCE
---------------

  Last Energy change         ...   -1.2169e-09  Tolerance :   1.0000e-08
  Last MAX-Density change    ...    1.2887e-05  Tolerance :   1.0000e-07
  Last RMS-Density change    ...    2.7468e-07  Tolerance :   5.0000e-09
  Last Orbital Gradient      ...    2.2869e-06  Tolerance :   1.0000e-05
  Last Orbital Rotation      ...    7.3350e-05  Tolerance :   1.0000e-05

             **** THE GBW FILE WAS UPDATED (/scratch/allen/tmpyp4_amber_gaff2/conf1/conf1/Conf212.orca.gbw) ****
             **** DENSITY /scratch/allen/tmpyp4_amber_gaff2/conf1/conf1/Conf212.orca.scfp WAS UPDATED ****
             **** ENERGY FILE WAS UPDATED (/scratch/allen/tmpyp4_amber_gaff2/conf1/conf1/Conf212.orca.en.tmp) ****
             **** THE GBW FILE WAS UPDATED (/scratch/allen/tmpyp4_amber_gaff2/conf1/conf1/Conf212.orca.gbw) ****
             **** DENSITY /scratch/allen/tmpyp4_amber_gaff2/conf1/conf1/Conf212.orca.scfp WAS UPDATED ****
----------------
ORBITAL ENERGIES
----------------

  NO   OCC          E(Eh)            E(eV) 
   0   2.0000     -15.672923      -426.4819 
   1   2.0000     -15.634925      -425.4479 
   2   2.0000     -15.630757      -425.3345 
   3   2.0000     -15.591779      -424.2739 
   4   2.0000     -15.524599      -422.4458 
   5   2.0000     -15.516239      -422.2183 
   6   2.0000     -15.452367      -420.4803 
   7   2.0000     -15.441381      -420.1813 
   8   2.0000     -11.323894      -308.1388 
   9   2.0000     -11.323694      -308.1334 
  10   2.0000     -11.322408      -308.0984 
  11   2.0000     -11.299919      -307.4864 
  12   2.0000     -11.297656      -307.4248 
  13   2.0000     -11.293457      -307.3106 
  14   2.0000     -11.289858      -307.2127 
  15   2.0000     -11.287735      -307.1549 
  16   2.0000     -11.286020      -307.1082 
  17   2.0000     -11.275614      -306.8251 
  18   2.0000     -11.273487      -306.7672 
  19   2.0000     -11.258578      -306.3615 
  20   2.0000     -11.257619      -306.3354 
  21   2.0000     -11.255944      -306.2898 
  22   2.0000     -11.255894      -306.2885 
  23   2.0000     -11.238567      -305.8169 
  24   2.0000     -11.235542      -305.7346 
  25   2.0000     -11.231894      -305.6354 
  26   2.0000     -11.231089      -305.6135 
  27   2.0000     -11.228941      -305.5550 
  28   2.0000     -11.228843      -305.5523 
  29   2.0000     -11.209660      -305.0304 
  30   2.0000     -11.208415      -304.9965 
  31   2.0000     -11.200580      -304.7833 
  32   2.0000     -11.193602      -304.5934 
  33   2.0000     -11.190607      -304.5119 
  34   2.0000     -11.190434      -304.5072 
  35   2.0000     -11.189358      -304.4779 
  36   2.0000     -11.188547      -304.4559 
  37   2.0000     -11.185629      -304.3764 
  38   2.0000     -11.184521      -304.3463 
  39   2.0000     -11.172681      -304.0241 
  40   2.0000     -11.172367      -304.0156 
  41   2.0000     -11.170049      -303.9525 
  42   2.0000     -11.167213      -303.8753 
  43   2.0000     -11.161449      -303.7185 
  44   2.0000     -11.159249      -303.6586 
  45   2.0000     -11.158831      -303.6472 
  46   2.0000     -11.157729      -303.6173 
  47   2.0000     -11.154146      -303.5197 
  48   2.0000     -11.148265      -303.3597 
  49   2.0000     -11.140080      -303.1370 
  50   2.0000     -11.132539      -302.9318 
  51   2.0000     -11.122893      -302.6693 
  52   2.0000      -1.354546       -36.8591 
  53   2.0000      -1.322041       -35.9746 
  54   2.0000      -1.318676       -35.8830 
  55   2.0000      -1.285399       -34.9775 
  56   2.0000      -1.225146       -33.3379 
  57   2.0000      -1.210720       -32.9454 
  58   2.0000      -1.171295       -31.8726 
  59   2.0000      -1.152229       -31.3537 
  60   2.0000      -1.138768       -30.9874 
  61   2.0000      -1.110837       -30.2274 
  62   2.0000      -1.108230       -30.1565 
  63   2.0000      -1.081430       -29.4272 
  64   2.0000      -1.076666       -29.2976 
  65   2.0000      -1.046179       -28.4680 
  66   2.0000      -1.043400       -28.3924 
  67   2.0000      -1.037884       -28.2422 
  68   2.0000      -1.014483       -27.6055 
  69   2.0000      -1.014405       -27.6034 
  70   2.0000      -1.009728       -27.4761 
  71   2.0000      -0.992655       -27.0115 
  72   2.0000      -0.987002       -26.8577 
  73   2.0000      -0.979607       -26.6565 
  74   2.0000      -0.972493       -26.4629 
  75   2.0000      -0.960731       -26.1428 
  76   2.0000      -0.953020       -25.9330 
  77   2.0000      -0.946596       -25.7582 
  78   2.0000      -0.935153       -25.4468 
  79   2.0000      -0.919404       -25.0182 
  80   2.0000      -0.905727       -24.6461 
  81   2.0000      -0.893644       -24.3173 
  82   2.0000      -0.874551       -23.7977 
  83   2.0000      -0.871912       -23.7259 
  84   2.0000      -0.868583       -23.6353 
  85   2.0000      -0.856716       -23.3124 
  86   2.0000      -0.841583       -22.9006 
  87   2.0000      -0.836270       -22.7561 
  88   2.0000      -0.824054       -22.4236 
  89   2.0000      -0.797932       -21.7128 
  90   2.0000      -0.792039       -21.5525 
  91   2.0000      -0.749915       -20.4062 
  92   2.0000      -0.742274       -20.1983 
  93   2.0000      -0.732726       -19.9385 
  94   2.0000      -0.724013       -19.7014 
  95   2.0000      -0.721714       -19.6388 
  96   2.0000      -0.715621       -19.4730 
  97   2.0000      -0.710871       -19.3438 
  98   2.0000      -0.706560       -19.2265 
  99   2.0000      -0.696498       -18.9527 
 100   2.0000      -0.696127       -18.9426 
 101   2.0000      -0.684294       -18.6206 
 102   2.0000      -0.679944       -18.5022 
 103   2.0000      -0.679206       -18.4821 
 104   2.0000      -0.678304       -18.4576 
 105   2.0000      -0.673015       -18.3137 
 106   2.0000      -0.669017       -18.2049 
 107   2.0000      -0.661051       -17.9881 
 108   2.0000      -0.655866       -17.8470 
 109   2.0000      -0.653740       -17.7892 
 110   2.0000      -0.650558       -17.7026 
 111   2.0000      -0.643293       -17.5049 
 112   2.0000      -0.641247       -17.4492 
 113   2.0000      -0.640468       -17.4280 
 114   2.0000      -0.637934       -17.3591 
 115   2.0000      -0.627487       -17.0748 
 116   2.0000      -0.624969       -17.0063 
 117   2.0000      -0.618828       -16.8392 
 118   2.0000      -0.613158       -16.6849 
 119   2.0000      -0.612427       -16.6650 
 120   2.0000      -0.610644       -16.6165 
 121   2.0000      -0.607046       -16.5186 
 122   2.0000      -0.600449       -16.3390 
 123   2.0000      -0.586746       -15.9662 
 124   2.0000      -0.582391       -15.8477 
 125   2.0000      -0.580336       -15.7917 
 126   2.0000      -0.579563       -15.7707 
 127   2.0000      -0.575531       -15.6610 
 128   2.0000      -0.566841       -15.4245 
 129   2.0000      -0.559074       -15.2132 
 130   2.0000      -0.551439       -15.0054 
 131   2.0000      -0.547623       -14.9016 
 132   2.0000      -0.542422       -14.7600 
 133   2.0000      -0.540334       -14.7032 
 134   2.0000      -0.538393       -14.6504 
 135   2.0000      -0.535447       -14.5703 
 136   2.0000      -0.528077       -14.3697 
 137   2.0000      -0.523339       -14.2408 
 138   2.0000      -0.516917       -14.0660 
 139   2.0000      -0.513555       -13.9745 
 140   2.0000      -0.512220       -13.9382 
 141   2.0000      -0.511280       -13.9126 
 142   2.0000      -0.509259       -13.8576 
 143   2.0000      -0.503583       -13.7032 
 144   2.0000      -0.501897       -13.6573 
 145   2.0000      -0.497238       -13.5305 
 146   2.0000      -0.493104       -13.4180 
 147   2.0000      -0.484009       -13.1705 
 148   2.0000      -0.480033       -13.0624 
 149   2.0000      -0.466920       -12.7056 
 150   2.0000      -0.465916       -12.6782 
 151   2.0000      -0.457159       -12.4399 
 152   2.0000      -0.450326       -12.2540 
 153   2.0000      -0.445308       -12.1175 
 154   2.0000      -0.441794       -12.0218 
 155   2.0000      -0.432533       -11.7698 
 156   2.0000      -0.428931       -11.6718 
 157   2.0000      -0.415739       -11.3128 
 158   2.0000      -0.404320       -11.0021 
 159   2.0000      -0.388375       -10.5682 
 160   2.0000      -0.383173       -10.4267 
 161   2.0000      -0.378295       -10.2939 
 162   2.0000      -0.370192       -10.0734 
 163   2.0000      -0.357258        -9.7215 
 164   2.0000      -0.355120        -9.6633 
 165   2.0000      -0.340294        -9.2599 
 166   2.0000      -0.337485        -9.1834 
 167   2.0000      -0.326353        -8.8805 
 168   2.0000      -0.325182        -8.8486 
 169   2.0000      -0.303978        -8.2717 
 170   2.0000      -0.299716        -8.1557 
 171   2.0000      -0.286099        -7.7852 
 172   2.0000      -0.282068        -7.6755 
 173   2.0000      -0.262523        -7.1436 
 174   2.0000      -0.243010        -6.6126 
 175   2.0000      -0.189852        -5.1661 
 176   2.0000      -0.180235        -4.9045 
 177   2.0000      -0.075596        -2.0571 
 178   2.0000      -0.058333        -1.5873 
 179   0.0000       0.028531         0.7764 
 180   0.0000       0.066447         1.8081 
 181   0.0000       0.091281         2.4839 
 182   0.0000       0.109629         2.9832 
 183   0.0000       0.110753         3.0137 
 184   0.0000       0.136521         3.7149 
 185   0.0000       0.139925         3.8076 
 186   0.0000       0.144504         3.9322 
 187   0.0000       0.163233         4.4418 
 188   0.0000       0.164604         4.4791 
 189   0.0000       0.166255         4.5240 
 190   0.0000       0.168966         4.5978 
 191   0.0000       0.183980         5.0064 
 192   0.0000       0.186357         5.0710 
 193   0.0000       0.187383         5.0990 
 194   0.0000       0.204411         5.5623 
 195   0.0000       0.206166         5.6101 
 196   0.0000       0.207727         5.6525 
 197   0.0000       0.209199         5.6926 
 198   0.0000       0.219866         5.9829 
 199   0.0000       0.226275         6.1573 
 200   0.0000       0.230511         6.2725 
 201   0.0000       0.236973         6.4484 
 202   0.0000       0.238938         6.5018 
 203   0.0000       0.240300         6.5389 
 204   0.0000       0.248439         6.7604 
 205   0.0000       0.256313         6.9746 
 206   0.0000       0.257182         6.9983 
 207   0.0000       0.257802         7.0151 
 208   0.0000       0.260399         7.0858 
 209   0.0000       0.262346         7.1388 
 210   0.0000       0.262595         7.1456 
 211   0.0000       0.268896         7.3170 
 212   0.0000       0.269779         7.3411 
 213   0.0000       0.272493         7.4149 
 214   0.0000       0.272906         7.4261 
 215   0.0000       0.276461         7.5229 
 216   0.0000       0.278565         7.5801 
 217   0.0000       0.280630         7.6363 
 218   0.0000       0.285379         7.7655 
 219   0.0000       0.288338         7.8461 
 220   0.0000       0.289204         7.8696 
 221   0.0000       0.292205         7.9513 
 222   0.0000       0.294480         8.0132 
 223   0.0000       0.296392         8.0652 
 224   0.0000       0.298029         8.1098 
 225   0.0000       0.299270         8.1435 
 226   0.0000       0.305686         8.3181 
 227   0.0000       0.308208         8.3868 
 228   0.0000       0.310249         8.4423 
 229   0.0000       0.324455         8.8289 
 230   0.0000       0.326274         8.8784 
 231   0.0000       0.329713         8.9720 
 232   0.0000       0.335644         9.1333 
 233   0.0000       0.343371         9.3436 
 234   0.0000       0.351747         9.5715 
 235   0.0000       0.353559         9.6208 
 236   0.0000       0.373315        10.1584 
 237   0.0000       0.378562        10.3012 
 238   0.0000       0.393846        10.7171 
 239   0.0000       0.396829        10.7983 
 240   0.0000       0.400572        10.9001 
 241   0.0000       0.411135        11.1876 
 242   0.0000       0.415361        11.3025 
 243   0.0000       0.419839        11.4244 
 244   0.0000       0.429180        11.6786 
 245   0.0000       0.433829        11.8051 
 246   0.0000       0.436478        11.8772 
 247   0.0000       0.440992        12.0000 
 248   0.0000       0.441818        12.0225 
 249   0.0000       0.449562        12.2332 
 250   0.0000       0.455924        12.4063 
 251   0.0000       0.458943        12.4885 
 252   0.0000       0.465232        12.6596 
 253   0.0000       0.470652        12.8071 
 254   0.0000       0.472689        12.8625 
 255   0.0000       0.474368        12.9082 
 256   0.0000       0.478290        13.0149 
 257   0.0000       0.481122        13.0920 
 258   0.0000       0.486508        13.2385 
 259   0.0000       0.497661        13.5420 
 260   0.0000       0.503496        13.7008 
 261   0.0000       0.504682        13.7331 
 262   0.0000       0.507054        13.7976 
 263   0.0000       0.510424        13.8894 
 264   0.0000       0.514020        13.9872 
 265   0.0000       0.518872        14.1192 
 266   0.0000       0.524558        14.2740 
 267   0.0000       0.529424        14.4064 
 268   0.0000       0.532098        14.4791 
 269   0.0000       0.537304        14.6208 
 270   0.0000       0.540292        14.7021 
 271   0.0000       0.545931        14.8555 
 272   0.0000       0.553666        15.0660 
 273   0.0000       0.559362        15.2210 
 274   0.0000       0.561932        15.2909 
 275   0.0000       0.565218        15.3804 
 276   0.0000       0.570483        15.5236 
 277   0.0000       0.571815        15.5599 
 278   0.0000       0.577407        15.7120 
 279   0.0000       0.586516        15.9599 
 280   0.0000       0.589958        16.0536 
 281   0.0000       0.591773        16.1030 
 282   0.0000       0.594494        16.1770 
 283   0.0000       0.595979        16.2174 
 284   0.0000       0.598347        16.2818 
 285   0.0000       0.601622        16.3710 
 286   0.0000       0.608272        16.5519 
 287   0.0000       0.611495        16.6396 
 288   0.0000       0.613303        16.6888 
 289   0.0000       0.624097        16.9825 
 290   0.0000       0.627827        17.0840 
 291   0.0000       0.628875        17.1125 
 292   0.0000       0.634530        17.2664 
 293   0.0000       0.636434        17.3182 
 294   0.0000       0.647111        17.6088 
 295   0.0000       0.647792        17.6273 
 296   0.0000       0.653474        17.7819 
 297   0.0000       0.656095        17.8532 
 298   0.0000       0.663419        18.0526 
 299   0.0000       0.667872        18.1737 
 300   0.0000       0.670047        18.2329 
 301   0.0000       0.674799        18.3622 
 302   0.0000       0.676521        18.4091 
 303   0.0000       0.678339        18.4585 
 304   0.0000       0.680850        18.5269 
 305   0.0000       0.686535        18.6816 
 306   0.0000       0.689306        18.7570 
 307   0.0000       0.691128        18.8066 
 308   0.0000       0.695919        18.9369 
 309   0.0000       0.697960        18.9925 
 310   0.0000       0.702632        19.1196 
 311   0.0000       0.703995        19.1567 
 312   0.0000       0.706617        19.2280 
 313   0.0000       0.710447        19.3323 
 314   0.0000       0.711474        19.3602 
 315   0.0000       0.715362        19.4660 
 316   0.0000       0.717211        19.5163 
 317   0.0000       0.719134        19.5686 
 318   0.0000       0.721523        19.6336 
 319   0.0000       0.722601        19.6630 
 320   0.0000       0.726127        19.7589 
 321   0.0000       0.731093        19.8941 
 322   0.0000       0.731569        19.9070 
 323   0.0000       0.735086        20.0027 
 324   0.0000       0.736843        20.0505 
 325   0.0000       0.738785        20.1034 
 326   0.0000       0.742428        20.2025 
 327   0.0000       0.747568        20.3424 
 328   0.0000       0.751360        20.4455 
 329   0.0000       0.752325        20.4718 
 330   0.0000       0.754463        20.5300 
 331   0.0000       0.757460        20.6115 
 332   0.0000       0.759132        20.6570 
 333   0.0000       0.760771        20.7016 
 334   0.0000       0.768115        20.9015 
 335   0.0000       0.772229        21.0134 
 336   0.0000       0.773874        21.0582 
 337   0.0000       0.782477        21.2923 
 338   0.0000       0.786920        21.4132 
 339   0.0000       0.788728        21.4624 
 340   0.0000       0.789358        21.4795 
 341   0.0000       0.794545        21.6207 
 342   0.0000       0.797552        21.7025 
 343   0.0000       0.802005        21.8237 
 344   0.0000       0.806156        21.9366 
 345   0.0000       0.808168        21.9914 
 346   0.0000       0.810067        22.0430 
 347   0.0000       0.811955        22.0944 
 348   0.0000       0.812423        22.1072 
 349   0.0000       0.818396        22.2697 
 350   0.0000       0.818731        22.2788 
 351   0.0000       0.820444        22.3254 
 352   0.0000       0.825442        22.4614 
 353   0.0000       0.826172        22.4813 
 354   0.0000       0.828044        22.5322 
 355   0.0000       0.831533        22.6272 
 356   0.0000       0.832771        22.6609 
 357   0.0000       0.836014        22.7491 
 358   0.0000       0.836530        22.7631 
 359   0.0000       0.838579        22.8189 
 360   0.0000       0.839443        22.8424 
 361   0.0000       0.842529        22.9264 
 362   0.0000       0.844105        22.9693 
 363   0.0000       0.845879        23.0175 
 364   0.0000       0.850517        23.1437 
 365   0.0000       0.854811        23.2606 
 366   0.0000       0.858257        23.3544 
 367   0.0000       0.859901        23.3991 
 368   0.0000       0.863244        23.4901 
 369   0.0000       0.865500        23.5515 
 370   0.0000       0.869570        23.6622 
 371   0.0000       0.873272        23.7629 
 372   0.0000       0.874361        23.7926 
 373   0.0000       0.877639        23.8818 
 374   0.0000       0.879149        23.9229 
 375   0.0000       0.883883        24.0517 
 376   0.0000       0.885349        24.0916 
 377   0.0000       0.887037        24.1375 
 378   0.0000       0.890858        24.2415 
 379   0.0000       0.892525        24.2868 
 380   0.0000       0.896310        24.3898 
 381   0.0000       0.899797        24.4847 
 382   0.0000       0.901131        24.5210 
 383   0.0000       0.903060        24.5735 
 384   0.0000       0.903902        24.5964 
 385   0.0000       0.904760        24.6198 
 386   0.0000       0.907798        24.7024 
 387   0.0000       0.909055        24.7366 
 388   0.0000       0.912503        24.8305 
 389   0.0000       0.916725        24.9453 
 390   0.0000       0.920909        25.0592 
 391   0.0000       0.922456        25.1013 
 392   0.0000       0.925681        25.1891 
 393   0.0000       0.926650        25.2154 
 394   0.0000       0.929408        25.2905 
 395   0.0000       0.930184        25.3116 
 396   0.0000       0.931509        25.3476 
 397   0.0000       0.938801        25.5461 
 398   0.0000       0.939420        25.5629 
 399   0.0000       0.943299        25.6685 
 400   0.0000       0.945581        25.7306 
 401   0.0000       0.949932        25.8490 
 402   0.0000       0.952562        25.9205 
 403   0.0000       0.955671        26.0051 
 404   0.0000       0.959710        26.1150 
 405   0.0000       0.962884        26.2014 
 406   0.0000       0.965450        26.2712 
 407   0.0000       0.969948        26.3936 
 408   0.0000       0.971885        26.4463 
 409   0.0000       0.980430        26.6789 
 410   0.0000       0.982556        26.7367 
 411   0.0000       0.985993        26.8302 
 412   0.0000       0.992022        26.9943 
 413   0.0000       0.996994        27.1296 
 414   0.0000       0.999496        27.1977 
 415   0.0000       1.000179        27.2163 
 416   0.0000       1.006294        27.3827 
 417   0.0000       1.012569        27.5534 
 418   0.0000       1.021282        27.7905 
 419   0.0000       1.023536        27.8518 
 420   0.0000       1.028902        27.9978 
 421   0.0000       1.032416        28.0935 
 422   0.0000       1.036682        28.2096 
 423   0.0000       1.044559        28.4239 
 424   0.0000       1.051255        28.6061 
 425   0.0000       1.056854        28.7585 
 426   0.0000       1.057740        28.7826 
 427   0.0000       1.065361        28.9900 
 428   0.0000       1.074744        29.2453 
 429   0.0000       1.080805        29.4102 
 430   0.0000       1.082172        29.4474 
 431   0.0000       1.085029        29.5251 
 432   0.0000       1.088740        29.6261 
 433   0.0000       1.091730        29.7075 
 434   0.0000       1.099764        29.9261 
 435   0.0000       1.101363        29.9696 
 436   0.0000       1.107826        30.1455 
 437   0.0000       1.110484        30.2178 
 438   0.0000       1.115342        30.3500 
 439   0.0000       1.119397        30.4603 
 440   0.0000       1.120892        30.5010 
 441   0.0000       1.122987        30.5580 
 442   0.0000       1.123914        30.5833 
 443   0.0000       1.127908        30.6919 
 444   0.0000       1.132538        30.8179 
 445   0.0000       1.136019        30.9127 
 446   0.0000       1.140657        31.0388 
 447   0.0000       1.145256        31.1640 
 448   0.0000       1.147295        31.2195 
 449   0.0000       1.149488        31.2792 
 450   0.0000       1.152683        31.3661 
 451   0.0000       1.158920        31.5358 
 452   0.0000       1.161464        31.6050 
 453   0.0000       1.165648        31.7189 
 454   0.0000       1.169652        31.8278 
 455   0.0000       1.170379        31.8476 
 456   0.0000       1.172237        31.8982 
 457   0.0000       1.177326        32.0367 
 458   0.0000       1.183630        32.2082 
 459   0.0000       1.186827        32.2952 
 460   0.0000       1.189222        32.3604 
 461   0.0000       1.197771        32.5930 
 462   0.0000       1.200901        32.6782 
 463   0.0000       1.204088        32.7649 
 464   0.0000       1.208265        32.8786 
 465   0.0000       1.210033        32.9267 
 466   0.0000       1.215322        33.0706 
 467   0.0000       1.217665        33.1344 
 468   0.0000       1.222705        33.2715 
 469   0.0000       1.227037        33.3894 
 470   0.0000       1.229153        33.4470 
 471   0.0000       1.232086        33.5268 
 472   0.0000       1.234678        33.5973 
 473   0.0000       1.234968        33.6052 
 474   0.0000       1.243035        33.8247 
 475   0.0000       1.243590        33.8398 
 476   0.0000       1.249087        33.9894 
 477   0.0000       1.250537        34.0288 
 478   0.0000       1.251524        34.0557 
 479   0.0000       1.255209        34.1560 
 480   0.0000       1.257527        34.2191 
 481   0.0000       1.264212        34.4009 
 482   0.0000       1.264766        34.4160 
 483   0.0000       1.271606        34.6022 
 484   0.0000       1.273743        34.6603 
 485   0.0000       1.278359        34.7859 
 486   0.0000       1.282554        34.9001 
 487   0.0000       1.284958        34.9655 
 488   0.0000       1.287656        35.0389 
 489   0.0000       1.291799        35.1516 
 490   0.0000       1.294476        35.2245 
 491   0.0000       1.296873        35.2897 
 492   0.0000       1.300003        35.3749 
 493   0.0000       1.309441        35.6317 
 494   0.0000       1.311316        35.6827 
 495   0.0000       1.317244        35.8440 
 496   0.0000       1.321053        35.9477 
 497   0.0000       1.322724        35.9932 
 498   0.0000       1.326144        36.0862 
 499   0.0000       1.328307        36.1451 
 500   0.0000       1.333523        36.2870 
 501   0.0000       1.334644        36.3175 
 502   0.0000       1.338885        36.4329 
 503   0.0000       1.344383        36.5825 
 504   0.0000       1.345606        36.6158 
 505   0.0000       1.351071        36.7645 
 506   0.0000       1.353028        36.8178 
 507   0.0000       1.356650        36.9163 
 508   0.0000       1.358507        36.9669 
 509   0.0000       1.360921        37.0325 
[...]
      pz      :     0.022095  p :     0.079747
      px      :     0.043563
      py      :     0.014089
 77 H s       :     0.885265  s :     0.885265
      pz      :     0.047922  p :     0.079226
      px      :     0.015021
      py      :     0.016283
 78 H s       :     0.885628  s :     0.885628
      pz      :     0.025854  p :     0.079189
      px      :     0.020471
      py      :     0.032864
 79 H s       :     0.910414  s :     0.910414
      pz      :     0.021851  p :     0.086379
      px      :     0.021677
      py      :     0.042851
 80 H s       :     0.865462  s :     0.865462
      pz      :     0.039306  p :     0.084712
      px      :     0.030224
      py      :     0.015181
 81 H s       :     0.886999  s :     0.886999
      pz      :     0.037802  p :     0.084088
      px      :     0.016184
      py      :     0.030102
 82 H s       :     0.915874  s :     0.915874
      pz      :     0.021973  p :     0.086745
      px      :     0.031607
      py      :     0.033165
 83 H s       :     0.873328  s :     0.873328
      pz      :     0.039272  p :     0.084068
      px      :     0.015272
      py      :     0.029524
 84 H s       :     0.886783  s :     0.886783
      pz      :     0.035773  p :     0.083485
      px      :     0.031698
      py      :     0.016015
 85 H s       :     0.892998  s :     0.892998
      pz      :     0.022491  p :     0.079781
      px      :     0.014074
      py      :     0.043215
 86 H s       :     0.890992  s :     0.890992
      pz      :     0.024728  p :     0.078830
      px      :     0.032980
      py      :     0.021122
 87 H s       :     0.889982  s :     0.889982
      pz      :     0.047999  p :     0.078728
      px      :     0.015590
      py      :     0.015139
 88 H s       :     0.910999  s :     0.910999
      pz      :     0.021679  p :     0.087007
      px      :     0.042881
      py      :     0.022446
 89 H s       :     0.871676  s :     0.871676
      pz      :     0.037926  p :     0.083822
      px      :     0.030466
      py      :     0.015431


                      *****************************
                      * MAYER POPULATION ANALYSIS *
                      *****************************

  NA   - Mulliken gross atomic population
  ZA   - Total nuclear charge
  QA   - Mulliken gross atomic charge
  VA   - Mayer's total valence
  BVA  - Mayer's bonded valence
  FA   - Mayer's free valence

  ATOM       NA         ZA         QA         VA         BVA        FA
  0 C      5.7910     6.0000     0.2090     3.8402     3.8402     0.0000
  1 N      7.4551     7.0000    -0.4551     3.3329     3.3329     0.0000
  2 C      6.0659     6.0000    -0.0659     3.9199     3.9199     0.0000
  3 N      7.3372     7.0000    -0.3372     3.4571     3.4571    -0.0000
  4 C      6.0479     6.0000    -0.0479     4.0275     4.0275     0.0000
  5 N      7.5643     7.0000    -0.5643     3.0941     3.0941    -0.0000
  6 C      6.1159     6.0000    -0.1159     3.9962     3.9962     0.0000
  7 N      7.3401     7.0000    -0.3401     3.4345     3.4345    -0.0000
  8 C      5.7922     6.0000     0.2078     3.8422     3.8422    -0.0000
  9 N      7.5624     7.0000    -0.5624     3.0781     3.0781     0.0000
 10 C      5.8815     6.0000     0.1185     3.9086     3.9086    -0.0000
 11 N      7.4382     7.0000    -0.4382     3.3791     3.3791    -0.0000
 12 C      6.0820     6.0000    -0.0820     3.8975     3.8975    -0.0000
 13 N      7.4310     7.0000    -0.4310     3.4208     3.4208    -0.0000
 14 C      5.7671     6.0000     0.2329     3.7849     3.7849    -0.0000
 15 N      7.4411     7.0000    -0.4411     3.3715     3.3715    -0.0000
 16 C      5.7716     6.0000     0.2284     3.7795     3.7795    -0.0000
 17 C      6.1140     6.0000    -0.1140     3.9894     3.9894    -0.0000
 18 C      6.1953     6.0000    -0.1953     3.7671     3.7671    -0.0000
 19 C      5.7736     6.0000     0.2264     3.8617     3.8617    -0.0000
 20 C      5.7871     6.0000     0.2129     3.8287     3.8287     0.0000
 21 C      6.0923     6.0000    -0.0923     3.8837     3.8837    -0.0000
 22 C      6.0909     6.0000    -0.0909     3.9827     3.9827     0.0000
 23 C      6.0406     6.0000    -0.0406     3.9924     3.9924     0.0000
 24 C      5.8048     6.0000     0.1952     3.8215     3.8215    -0.0000
 25 C      5.8855     6.0000     0.1145     3.8912     3.8912    -0.0000
 26 C      6.0811     6.0000    -0.0811     3.9099     3.9099    -0.0000
 27 C      5.7866     6.0000     0.2134     3.8643     3.8643     0.0000
 28 C      6.0606     6.0000    -0.0606     3.9885     3.9885     0.0000
 29 C      6.1804     6.0000    -0.1804     3.7445     3.7445     0.0000
 30 C      5.7553     6.0000     0.2447     3.7997     3.7997     0.0000
 31 C      5.7724     6.0000     0.2276     3.8189     3.8189     0.0000
 32 C      6.0622     6.0000    -0.0622     3.9225     3.9225     0.0000
 33 C      6.0635     6.0000    -0.0635     3.9740     3.9740     0.0000
 34 C      6.0507     6.0000    -0.0507     3.9849     3.9849    -0.0000
 35 C      5.7755     6.0000     0.2245     3.8180     3.8180    -0.0000
 36 C      5.8909     6.0000     0.1091     3.8773     3.8773     0.0000
 37 C      6.0647     6.0000    -0.0647     3.9176     3.9176    -0.0000
 38 C      5.7678     6.0000     0.2322     3.8003     3.8003    -0.0000
 39 C      6.0584     6.0000    -0.0584     3.9843     3.9843    -0.0000
 40 C      6.1823     6.0000    -0.1823     3.7294     3.7294     0.0000
 41 C      5.7749     6.0000     0.2251     3.8858     3.8858     0.0000
 42 C      5.8021     6.0000     0.1979     3.8262     3.8262    -0.0000
 43 C      6.0725     6.0000    -0.0725     3.9003     3.9003    -0.0000
 44 C      6.0898     6.0000    -0.0898     3.9850     3.9850    -0.0000
 45 C      6.0602     6.0000    -0.0602     3.9924     3.9924     0.0000
 46 C      5.7898     6.0000     0.2102     3.8282     3.8282     0.0000
 47 C      5.8845     6.0000     0.1155     3.8932     3.8932     0.0000
 48 C      6.0680     6.0000    -0.0680     3.9089     3.9089     0.0000
 49 C      5.7627     6.0000     0.2373     3.8925     3.8925    -0.0000
 50 C      6.0474     6.0000    -0.0474     3.9905     3.9905    -0.0000
 51 C      6.1918     6.0000    -0.1918     3.7359     3.7359    -0.0000
 52 H      0.9598     1.0000     0.0402     0.9861     0.9861     0.0000
 53 H      1.0165     1.0000    -0.0165     0.9984     0.9984     0.0000
 54 H      0.9507     1.0000     0.0493     1.0141     1.0141     0.0000
 55 H      0.9617     1.0000     0.0383     0.9867     0.9867     0.0000
 56 H      0.9502     1.0000     0.0498     0.9696     0.9696    -0.0000
 57 H      0.9520     1.0000     0.0480     0.9828     0.9828    -0.0000
 58 H      0.9518     1.0000     0.0482     0.9848     0.9848    -0.0000
 59 H      0.9987     1.0000     0.0013     1.0033     1.0033    -0.0000
 60 H      0.9477     1.0000     0.0523     1.0156     1.0156     0.0000
 61 H      0.8287     1.0000     0.1713     1.0421     1.0421    -0.0000
 62 H      0.8248     1.0000     0.1752     1.0436     1.0436     0.0000
 63 H      0.9445     1.0000     0.0555     0.9853     0.9853    -0.0000
 64 H      1.0087     1.0000    -0.0087     0.9966     0.9966    -0.0000
 65 H      0.9525     1.0000     0.0475     1.0095     1.0095     0.0000
 66 H      0.9439     1.0000     0.0561     0.9854     0.9854    -0.0000
 67 H      0.9375     1.0000     0.0625     0.9719     0.9719     0.0000
 68 H      0.9426     1.0000     0.0574     0.9868     0.9868     0.0000
 69 H      0.9433     1.0000     0.0567     0.9828     0.9828     0.0000
 70 H      1.0292     1.0000    -0.0292     0.9935     0.9935    -0.0000
 71 H      0.9549     1.0000     0.0451     1.0060     1.0060    -0.0000
 72 H      0.9308     1.0000     0.0692     0.9838     0.9838     0.0000
 73 H      1.0087     1.0000    -0.0087     1.0006     1.0006    -0.0000
 74 H      0.9416     1.0000     0.0584     1.0101     1.0101    -0.0000
 75 H      0.9315     1.0000     0.0685     0.9841     0.9841    -0.0000
 76 H      0.9270     1.0000     0.0730     0.9721     0.9721     0.0000
 77 H      0.9334     1.0000     0.0666     0.9854     0.9854     0.0000
 78 H      0.9342     1.0000     0.0658     0.9853     0.9853     0.0000
 79 H      1.0161     1.0000    -0.0161     0.9978     0.9978    -0.0000
 80 H      0.9408     1.0000     0.0592     1.0072     1.0072    -0.0000
 81 H      0.9461     1.0000     0.0539     0.9856     0.9856     0.0000
 82 H      1.0247     1.0000    -0.0247     0.9935     0.9935    -0.0000
 83 H      0.9580     1.0000     0.0420     1.0084     1.0084     0.0000
 84 H      0.9461     1.0000     0.0539     0.9853     0.9853    -0.0000
 85 H      0.9395     1.0000     0.0605     0.9716     0.9716     0.0000
 86 H      0.9444     1.0000     0.0556     0.9839     0.9839     0.0000
 87 H      0.9430     1.0000     0.0570     0.9856     0.9856     0.0000
 88 H      1.0153     1.0000    -0.0153     0.9965     0.9965    -0.0000
 89 H      0.9542     1.0000     0.0458     1.0075     1.0075    -0.0000

  Mayer bond orders larger than 0.100000
B(  0-C ,  1-N ) :   1.0915 B(  0-C , 17-C ) :   1.7039 B(  0-C , 52-H ) :   0.9667 
B(  1-N ,  8-C ) :   1.0903 B(  1-N , 10-C ) :   0.9771 B(  2-C , 12-C ) :   1.5073 
B(  2-C , 16-C ) :   1.3557 B(  2-C , 53-H ) :   0.9752 B(  3-N , 14-C ) :   1.2182 
B(  3-N , 16-C ) :   1.1898 B(  3-N , 61-H ) :   0.8990 B(  4-C ,  6-C ) :   1.2147 
B(  4-C , 17-C ) :   1.2139 B(  4-C , 18-C ) :   1.4314 B(  5-N , 19-C ) :   1.4510 
B(  5-N , 27-C ) :   1.3797 B(  6-C ,  8-C ) :   1.7019 B(  6-C , 54-H ) :   0.9560 
B(  7-N , 30-C ) :   1.1955 B(  7-N , 38-C ) :   1.1917 B(  7-N , 62-H ) :   0.8970 
B(  8-C , 55-H ) :   0.9674 B(  9-N , 41-C ) :   1.3953 B(  9-N , 49-C ) :   1.4248 
B( 10-C , 56-H ) :   0.9770 B( 10-C , 57-H ) :   0.9822 B( 10-C , 58-H ) :   0.9843 
B( 11-N , 20-C ) :   1.1304 B( 11-N , 24-C ) :   1.1089 B( 11-N , 25-C ) :   0.9599 
B( 12-C , 14-C ) :   1.3550 B( 12-C , 59-H ) :   0.9727 B( 13-N , 31-C ) :   1.1559 
B( 13-N , 35-C ) :   1.1530 B( 13-N , 36-C ) :   0.9441 B( 14-C , 18-C ) :   1.1325 
B( 15-N , 42-C ) :   1.1083 B( 15-N , 46-C ) :   1.1222 B( 15-N , 47-C ) :   0.9616 
B( 16-C , 51-C ) :   1.1727 B( 17-C , 60-H ) :   0.9526 B( 18-C , 19-C ) :   1.1373 
B( 19-C , 21-C ) :   1.2443 B( 20-C , 28-C ) :   1.6278 B( 20-C , 63-H ) :   0.9703 
B( 21-C , 26-C ) :   1.6076 B( 21-C , 64-H ) :   0.9663 B( 22-C , 23-C ) :   1.2891 
B( 22-C , 28-C ) :   1.2653 B( 22-C , 29-C ) :   1.2234 B( 23-C , 24-C ) :   1.6196 
B( 23-C , 65-H ) :   0.9704 B( 24-C , 66-H ) :   0.9695 B( 25-C , 67-H ) :   0.9760 
B( 25-C , 68-H ) :   0.9828 B( 25-C , 69-H ) :   0.9823 B( 26-C , 27-C ) :   1.2411 
B( 26-C , 70-H ) :   0.9707 B( 27-C , 29-C ) :   1.2140 B( 28-C , 71-H ) :   0.9719 
B( 29-C , 30-C ) :   1.2398 B( 30-C , 32-C ) :   1.2846 B( 31-C , 39-C ) :   1.5944 
B( 31-C , 72-H ) :   0.9683 B( 32-C , 37-C ) :   1.5742 B( 32-C , 73-H ) :   0.9785 
B( 33-C , 34-C ) :   1.3027 B( 33-C , 39-C ) :   1.2983 B( 33-C , 40-C ) :   1.1866 
B( 34-C , 35-C ) :   1.5916 B( 34-C , 74-H ) :   0.9698 B( 35-C , 75-H ) :   0.9684 
B( 36-C , 76-H ) :   0.9767 B( 36-C , 77-H ) :   0.9816 B( 36-C , 78-H ) :   0.9824 
B( 37-C , 38-C ) :   1.2893 B( 37-C , 79-H ) :   0.9767 B( 38-C , 40-C ) :   1.2296 
B( 39-C , 80-H ) :   0.9707 B( 40-C , 41-C ) :   1.2465 B( 41-C , 43-C ) :   1.1887 
B( 42-C , 50-C ) :   1.6338 B( 42-C , 81-H ) :   0.9697 B( 43-C , 48-C ) :   1.6638 
B( 43-C , 82-H ) :   0.9724 B( 44-C , 45-C ) :   1.2641 B( 44-C , 50-C ) :   1.2711 
B( 44-C , 51-C ) :   1.2610 B( 45-C , 46-C ) :   1.6351 B( 45-C , 83-H ) :   0.9718 
B( 46-C , 84-H ) :   0.9700 B( 47-C , 85-H ) :   0.9762 B( 47-C , 86-H ) :   0.9829 
B( 47-C , 87-H ) :   0.9825 B( 48-C , 49-C ) :   1.1920 B( 48-C , 88-H ) :   0.9747 
B( 49-C , 51-C ) :   1.2394 B( 50-C , 89-H ) :   0.9710 

-------
TIMINGS
-------

Total SCF time: 0 days 0 hours 28 min 42 sec 

Total time                  ....    1722.413 sec
Sum of individual times     ....    1717.663 sec  ( 99.7%)

Fock matrix formation       ....    1689.984 sec  ( 98.1%)
Diagonalization             ....       8.749 sec  (  0.5%)
Density matrix formation    ....       0.536 sec  (  0.0%)
Population analysis         ....       0.586 sec  (  0.0%)
Initial guess               ....       2.518 sec  (  0.1%)
Orbital Transformation      ....       0.000 sec  (  0.0%)
Orbital Orthonormalization  ....       0.000 sec  (  0.0%)
DIIS solution               ....       3.965 sec  (  0.2%)
SOSCF solution              ....      10.041 sec  (  0.6%)

Maximum memory used throughout the entire SCF-calculation: 302.6 MB


           ************************************************************
           *        Program running with 16 parallel MPI-processes    *
           *              working on a common directory               *
           ************************************************************

------------------------------------------------------------------------------
                                ORCA  MP2 
------------------------------------------------------------------------------

Freezing NCore=104 chemical core electrons

----------
MP2 ENERGY (disk based algorithm)
----------

Dimension of the basis                    ...  918
Memory devoted to MP2                     ... 2000 MB   
Data format for buffers                   ... DOUBLE
Compression type for matrix containers    ... UNCOMPRESSED

-------------------------------
PARTIAL EXCHANGE TRANSFORMATION
-------------------------------

Transformation type                        ... one-operator
Generation of integrals (i,mue|j,nue)      ... ON
Generation of integrals (mue,kappa|nue,tau)... OFF
Generation of integrals (i,mue|a,nue)      ... OFF
Dimension of the basis                     ...  918
Number of internal MOs                     ...  127 (  52- 178)
Pair cutoff                                ... 2.500e-12 Eh
Number of AO pairs in the trafo            ... 421821
Total Number of distinct AO pairs          ... 421821
Memory devoted for trafo                   ... 2000.0 MB 
Max. Number of MO pairs treated together   ...  311      
Number Format for Storage                  ... Double (8 Byte)
Integral package used                      ... LIBINT

Starting integral evaluation:
    ... done with AO integral generation
Closing buffer AOK     (38.27 GB; CompressionRatio= 1.32)
Collecting buffer AOK 
Number of MO pairs included in the trafo   ... 8128
------------------------
SORTING OF (i,mue|j,nue)
------------------------

IBATCH = 1 of  2
IBATCH = 2 of  2
Closing buffer KAO     (51.03 GB; CompressionRatio= 1.00)
Collecting buffer KAO 
N(AO-Batches) Done                         ...  85931371 
N(AO-Batches) Skipped                      ...  82390624 
N(IJ)-pairs Skipped                        ...         0 
TOTAL TIME for half transformation         ...  2294.570 sec
AO-integral generation                     ...   211.205 sec
Half transformation                        ...   423.760 sec
K-integral sorting                         ...  1438.754 sec
Process 10:   Internal MO 132
Process 13:   Internal MO 156

Finished integral transformation - now doing MP2 part

Process  1:   Internal MO  60
Process  7:   Internal MO 108
OPERATOR COMBINATION   0   0: ij=( 52..178, 52..178)
Process  4:   Internal MO  84
Process  0:   Internal MO  54
Process  2:   Internal MO  69
Process  1:   Internal MO  63
Process  5:   Internal MO  93
Process  3:   Internal MO  78
Process  0:   Internal MO  57
Process  2:   Internal MO  72
Process  1:   Internal MO  66
Process  8:   Internal MO 117
Process  4:   Internal MO  87
Process  6:   Internal MO 102
Process 11:   Internal MO 141
Process 14:   Internal MO 165
Process  2:   Internal MO  75
Process  9:   Internal MO 126
Process  3:   Internal MO  81
Process  5:   Internal MO  96
Process  7:   Internal MO 111
Process  4:   Internal MO  90
Process 12:   Internal MO 150
Process 10:   Internal MO 135
Process 15:   Internal MO 174
Process  6:   Internal MO 105
Process  8:   Internal MO 120
Process  5:   Internal MO  99
Process  7:   Internal MO 114
Process  9:   Internal MO 129
Process 13:   Internal MO 159
Process 11:   Internal MO 144
Process 14:   Internal MO 168
Process 12:   Internal MO 153
Process  8:   Internal MO 123
Process 10:   Internal MO 138
Process 15:   Internal MO 177
Process 11:   Internal MO 147
Process 13:   Internal MO 162
Process 14:   Internal MO 171
-----------------------------------------------
 MP2 CORRELATION ENERGY   :     -7.283765136 Eh
-----------------------------------------------


-------
TIMINGS
-------
Total time                : 2575.688 sec
Integral trafo            : 2297.279 sec ( 89.2%)
K(i,j)                    :    6.471 sec (  0.3%)
T(i,j)                    :    0.074 sec (  0.0%)

---------------------------------------
MP2 TOTAL ENERGY:    -2130.882255770 Eh
---------------------------------------

Maximum memory used throughout the entire MP2-calculation: 2275.3 MB

-------------------------   --------------------
FINAL SINGLE POINT ENERGY     -2130.882255770073
-------------------------   --------------------


                            ***************************************
                            *     ORCA property calculations      *
                            ***************************************


  WARNING: The energy has been calculated at the MP2 level but the densities
           used in the property calculations are still SCF densities
           MP2 response densities have not been calculated 
           use %mp2 Density relaxed end
           or  %mp2 Density unrelaxed end

                                    ---------------------
                                    Active property flags
                                    ---------------------
   (+) Dipole Moment


------------------------------------------------------------------------------
                       ORCA ELECTRIC PROPERTIES CALCULATION
------------------------------------------------------------------------------

Dipole Moment Calculation                       ... on
Quadrupole Moment Calculation                   ... off
Polarizability Calculation                      ... off
GBWName                                         ... /scratch/allen/tmpyp4_amber_gaff2/conf1/conf1/Conf212.orca.gbw
Electron density                                ... /scratch/allen/tmpyp4_amber_gaff2/conf1/conf1/Conf212.orca.scfp
The origin for moment calculation is the CENTER OF MASS  = ( 0.002638, -0.002263 -0.000991)

-------------
DIPOLE MOMENT
-------------
                                X             Y             Z
Electronic contribution:      2.24844      -3.88110      -0.16247
Nuclear contribution   :      0.07784       0.23959       0.16219
                        -----------------------------------------
Total Dipole Moment    :      2.32628      -3.64151      -0.00028
                        -----------------------------------------
Magnitude (a.u.)       :      4.32113
Magnitude (Debye)      :     10.98344



--------------------
Rotational spectrum 
--------------------
 
Rotational constants in cm-1:     0.001500     0.001478     0.000761 
Rotational constants in MHz :    44.979671    44.314338    22.801215 

 Dipole components along the rotational axes: 
x,y,z [a.u.] :     3.097348    -3.013070    -0.000995 
x,y,z [Debye]:     7.872833    -7.658615    -0.002529 

 

Timings for individual modules:

Sum of individual times         ...     4322.474 sec (=  72.041 min)
GTO integral calculation        ...        3.635 sec (=   0.061 min)   0.1 %
SCF iterations                  ...     1723.610 sec (=  28.727 min)  39.9 %
MP2 module                      ...     2595.228 sec (=  43.254 min)  60.0 %
                             ****ORCA TERMINATED NORMALLY****
TOTAL RUN TIME: 0 days 1 hours 12 minutes 5 seconds 947 msec
# of primitive gaussian functions

