
                                 *****************
                                 * O   R   C   A *
                                 *****************

                                            #,                                       
                                            ###                                      
                                            ####                                     
                                            #####                                    
                                            ######                                   
                                           ########,                                 
                                     ,,################,,,,,                         
                               ,,#################################,,                 
                          ,,##########################################,,             
                       ,#########################################, ''#####,          
                    ,#############################################,,   '####,        
                  ,##################################################,,,,####,       
                ,###########''''           ''''###############################       
              ,#####''   ,,,,##########,,,,          '''####'''          '####       
            ,##' ,,,,###########################,,,                        '##       
           ' ,,###''''                  '''############,,,                           
         ,,##''                                '''############,,,,        ,,,,,,###''
      ,#''                                            '''#######################'''  
     '                                                          ''''####''''         
             ,#######,   #######,   ,#######,      ##                                
            ,#'     '#,  ##    ##  ,#'     '#,    #''#        ######   ,####,        
            ##       ##  ##   ,#'  ##            #'  '#       #        #'  '#        
            ##       ##  #######   ##           ,######,      #####,   #    #        
            '#,     ,#'  ##    ##  '#,     ,#' ,#      #,         ##   #,  ,#        
             '#######'   ##     ##  '#######'  #'      '#     #####' # '####'        



                  #######################################################
                  #                        -***-                        #
                  #          Department of theory and spectroscopy      #
                  #    Directorship and core code : Frank Neese         #
                  #        Max Planck Institute fuer Kohlenforschung    #
                  #                Kaiser Wilhelm Platz 1               #
                  #                 D-45470 Muelheim/Ruhr               #
                  #                      Germany                        #
                  #                                                     #
                  #                  All rights reserved                #
                  #                        -***-                        #
                  #######################################################


                         Program Version 5.0.4 -  RELEASE  -


 With contributions from (in alphabetic order):
   Daniel Aravena         : Magnetic Suceptibility
   Michael Atanasov       : Ab Initio Ligand Field Theory (pilot matlab implementation)
   Alexander A. Auer      : GIAO ZORA, VPT2 properties, NMR spectrum
   Ute Becker             : Parallelization
   Giovanni Bistoni       : ED, misc. LED, open-shell LED, HFLD
   Martin Brehm           : Molecular dynamics
   Dmytro Bykov           : SCF Hessian
   Vijay G. Chilkuri      : MRCI spin determinant printing, contributions to CSF-ICE
   Dipayan Datta          : RHF DLPNO-CCSD density
   Achintya Kumar Dutta   : EOM-CC, STEOM-CC
   Dmitry Ganyushin       : Spin-Orbit,Spin-Spin,Magnetic field MRCI
   Miquel Garcia          : C-PCM and meta-GGA Hessian, CC/C-PCM, Gaussian charge scheme
   Yang Guo               : DLPNO-NEVPT2, F12-NEVPT2, CIM, IAO-localization
   Andreas Hansen         : Spin unrestricted coupled pair/coupled cluster methods
   Benjamin Helmich-Paris : MC-RPA, TRAH-SCF, COSX integrals
   Lee Huntington         : MR-EOM, pCC
   Robert Izsak           : Overlap fitted RIJCOSX, COSX-SCS-MP3, EOM
   Marcus Kettner         : VPT2
   Christian Kollmar      : KDIIS, OOCD, Brueckner-CCSD(T), CCSD density, CASPT2, CASPT2-K
   Simone Kossmann        : Meta GGA functionals, TD-DFT gradient, OOMP2, MP2 Hessian
   Martin Krupicka        : Initial AUTO-CI
   Lucas Lang             : DCDCAS
   Marvin Lechner         : AUTO-CI (C++ implementation), FIC-MRCC
   Dagmar Lenk            : GEPOL surface, SMD
   Dimitrios Liakos       : Extrapolation schemes; Compound Job, initial MDCI parallelization
   Dimitrios Manganas     : Further ROCIS development; embedding schemes
   Dimitrios Pantazis     : SARC Basis sets
   Anastasios Papadopoulos: AUTO-CI, single reference methods and gradients
   Taras Petrenko         : DFT Hessian,TD-DFT gradient, ASA, ECA, R-Raman, ABS, FL, XAS/XES, NRVS
   Peter Pinski           : DLPNO-MP2, DLPNO-MP2 Gradient
   Christoph Reimann      : Effective Core Potentials
   Marius Retegan         : Local ZFS, SOC
   Christoph Riplinger    : Optimizer, TS searches, QM/MM, DLPNO-CCSD(T), (RO)-DLPNO pert. Triples
   Tobias Risthaus        : Range-separated hybrids, TD-DFT gradient, RPA, STAB
   Michael Roemelt        : Original ROCIS implementation
   Masaaki Saitow         : Open-shell DLPNO-CCSD energy and density
   Barbara Sandhoefer     : DKH picture change effects
   Avijit Sen             : IP-ROCIS
   Kantharuban Sivalingam : CASSCF convergence, NEVPT2, FIC-MRCI
   Bernardo de Souza      : ESD, SOC TD-DFT
   Georgi Stoychev        : AutoAux, RI-MP2 NMR, DLPNO-MP2 response
   Willem Van den Heuvel  : Paramagnetic NMR
   Boris Wezisla          : Elementary symmetry handling
   Frank Wennmohs         : Technical directorship


 We gratefully acknowledge several colleagues who have allowed us to
 interface, adapt or use parts of their codes:
   Stefan Grimme, W. Hujo, H. Kruse, P. Pracht,  : VdW corrections, initial TS optimization,
                  C. Bannwarth, S. Ehlert          DFT functionals, gCP, sTDA/sTD-DF
   Ed Valeev, F. Pavosevic, A. Kumar             : LibInt (2-el integral package), F12 methods
   Garnet Chan, S. Sharma, J. Yang, R. Olivares  : DMRG
   Ulf Ekstrom                                   : XCFun DFT Library
   Mihaly Kallay                                 : mrcc  (arbitrary order and MRCC methods)
   Jiri Pittner, Ondrej Demel                    : Mk-CCSD
   Frank Weinhold                                : gennbo (NPA and NBO analysis)
   Christopher J. Cramer and Donald G. Truhlar   : smd solvation model
   Lars Goerigk                                  : TD-DFT with DH, B97 family of functionals
   V. Asgeirsson, H. Jonsson                     : NEB implementation
   FAccTs GmbH                                   : IRC, NEB, NEB-TS, DLPNO-Multilevel, CI-OPT
                                                   MM, QMMM, 2- and 3-layer-ONIOM, Crystal-QMMM,
                                                   LR-CPCM, SF, NACMEs, symmetry and pop. for TD-DFT,
                                                   nearIR, NL-DFT gradient (VV10), updates on ESD,
                                                   ML-optimized integration grids
   S Lehtola, MJT Oliveira, MAL Marques          : LibXC Library
   Liviu Ungur et al                             : ANISO software


 Your calculation uses the libint2 library for the computation of 2-el integrals
 For citations please refer to: http://libint.valeyev.net

 Your ORCA version has been built with support for libXC version: 5.1.0
 For citations please refer to: https://tddft.org/programs/libxc/

 This ORCA versions uses:
   CBLAS   interface :  Fast vector & matrix operations
   LAPACKE interface :  Fast linear algebra routines
   SCALAPACK package :  Parallel linear algebra routines
   Shared memory     :  Shared parallel matrices
   BLAS/LAPACK       :  OpenBLAS 0.3.15  USE64BITINT DYNAMIC_ARCH NO_AFFINITY Sandybridge SINGLE_THREADED
        Core in use  :  Sandybridge
   Copyright (c) 2011-2014, The OpenBLAS Project


================================================================================

----- Orbital basis set information -----
Your calculation utilizes the basis: cc-pVDZ 
       H, B-Ne : Obtained from the ccRepo (grant-hill.group.shef.ac.uk/ccrepo) Feb. 2017
                 T. H. Dunning, Jr., J. Chem. Phys. 90, 1007 (1989)
            He : Obtained from the ccRepo (grant-hill.group.shef.ac.uk/ccrepo) Feb. 2017
                 D. E. Woon, T. H. Dunning, Jr., J. Chem. Phys. 100, 2975 (1994)
  Li-Be, Na-Mg : Obtained from the ccRepo (grant-hill.group.shef.ac.uk/ccrepo) Feb. 2017
                 B. P. Prascher, D. E. Woon, K. A. Peterson, T. H. Dunning, Jr., A. K. Wilson, Theor. Chem. Acc. 128, 69 (2011)
         Al-Ar : Obtained from the ccRepo (grant-hill.group.shef.ac.uk/ccrepo) Feb. 2017
                 D. E. Woon, T. H. Dunning, Jr., J. Chem. Phys. 98, 1358 (1993)
            Ca : Obtained from the Peterson Research Group Website (tyr0.chem.wsu.edu/~kipeters) Feb. 2017
                 J. Koput, K. A. Peterson, J. Phys. Chem. 106, 9595 (2002)
         Sc-Zn : Obtained from the ccRepo (grant-hill.group.shef.ac.uk/ccrepo) Feb. 2017
                 N. B. Balabanov, K. A. Peterson, J. Chem. Phys. 123, 064107 (2005)
                 N. B. Balabanov, K. A. Peterson, J. Chem. Phys. 125, 074110 (2006)
         Ga-Kr : Obtained from the ccRepo (grant-hill.group.shef.ac.uk/ccrepo) Feb. 2017
                 A. K. Wilson, D. E. Woon, K. A. Peterson, T. H. Dunning, Jr., J. Chem. Phys. 110, 7667 (1999)

================================================================================
                                        WARNINGS
                       Please study these warnings very carefully!
================================================================================


WARNING: No MP2 level density has been requested!
         To caclulate MP2 level properties use
         %mp2 Density relaxed end
         or
         %mp2 Density unrelaxed end

WARNING: Post HF methods need fully converged wavefunctions
  ===> : Setting SCFConvForced true
         You can overwrite this default with %scf ConvForced false 


INFO   : the flag for use of the SHARK integral package has been found!

================================================================================
                                       INPUT FILE
================================================================================
NAME = /scratch/allen/tmpyp4_amber_gaff2/2.Mdgx/conf11/conf11/Conf229.orca
|  1> ! PAL2
|  2> ! mp2 cc-pvdz TightSCF  NoKeepInts
|  3> 
|  4> %scf
|  5>   MaxCore 2000
|  6> end
|  7> %mp2
|  8>   MaxCore 2000
|  9> end
| 10> * xyz 0 1
| 11>    C       -4.64700         5.37500         0.93000
| 12>    C        1.47400         4.04100         0.05700
| 13>    C       -2.80200         4.09300         0.04900
| 14>    C       -2.54400         5.16100        -0.82500
| 15>    C       -3.33600         6.29100        -0.79100
| 16>    C       -5.17900         7.62600         0.11100
| 17>    C        0.13200         4.30700         0.06100
| 18>    C       -0.56900         3.05600         0.04700
| 19>    C        1.64900         2.61800         0.02300
| 20>    C       -3.88000         4.22600         0.93800
| 21>    N       -4.37200         6.38500         0.07400
| 22>    N        0.38800         2.06700         0.02500
| 23>    N       -2.01000         0.39500        -0.07500
| 24>    N       -0.38800        -2.07400        -0.02700
| 25>    N        2.01000        -0.40100         0.06500
| 26>    C       -1.96000         2.86100         0.02400
| 27>    C       -2.62300         1.61500        -0.01800
| 28>    C       -5.57300        -4.32900         1.06600
| 29>    C       -4.07300         1.47100         0.05600
| 30>    C       -4.10600        -2.75600        -0.02600
| 31>    C       -4.99500        -2.75700        -1.11100
| 32>    C       -6.13200        -3.54200        -1.07600
| 33>    C       -7.65100        -5.11300         0.04000
| 34>    C       -4.32400         0.14100         0.03700
| 35>    C       -3.02500        -0.52000        -0.04800
| 36>    C       -4.42200        -3.56600         1.07500
| 37>    N       -6.40700        -4.31300         0.00100
| 38>    C       -2.86700        -1.92200        -0.04000
| 39>    C       -1.65000        -2.62400        -0.02700
| 40>    C        3.56800        -6.14200        -1.04000
| 41>    C       -1.47600        -4.04900        -0.03400
| 42>    C        2.80300        -4.09900        -0.00800
| 43>    C        3.65700        -4.38400         1.06900
| 44>    C        4.42700        -5.53000         1.05900
| 45>    C        5.24500        -7.58800         0.01400
| 46>    C       -0.13400        -4.31500        -0.02200
| 47>    C        0.56800        -3.06400        -0.02700
| 48>    C        2.77500        -5.01200        -1.07400
| 49>    N        4.37600        -6.39100         0.01700
| 50>    C        1.95900        -2.86900        -0.00900
| 51>    C        2.62100        -1.62200         0.00900
| 52>    C        5.54300         4.33900        -1.13000
| 53>    C        4.07000        -1.47900        -0.09400
| 54>    C        4.10400         2.75100        -0.02100
| 55>    C        5.02700         2.72900         1.03600
| 56>    C        6.16600         3.50900         0.97800
| 57>    C        7.61900         5.15300        -0.11500
| 58>    C        4.32100        -0.14800        -0.09200
| 59>    C        3.02500         0.51400         0.01500
| 60>    C        4.38700         3.58200        -1.11500
| 61>    C        2.86600         1.91600         0.01300
| 62>    N        6.41300         4.29600        -0.09500
| 63>    H       -5.49500         5.51600         1.58900
| 64>    H        2.27400         4.76600         0.08100
| 65>    H       -1.72000         5.12100        -1.52700
| 66>    H       -3.17000         7.14200        -1.43900
| 67>    H       -4.69400         8.34500         0.77500
| 68>    H       -5.24500         8.03100        -0.89800
| 69>    H       -6.17400         7.38500         0.48200
| 70>    H       -0.33200         5.28200         0.06900
| 71>    H       -4.13900         3.43100         1.62800
| 72>    H        0.18200         1.07200         0.00500
| 73>    H       -0.18300        -1.08000        -0.02100
| 74>    H       -5.86400        -4.96200         1.89500
| 75>    H       -4.79400         2.27200         0.13900
| 76>    H       -4.80000        -2.16000        -1.99400
| 77>    H       -6.84100        -3.58200        -1.89300
| 78>    H       -8.42800        -4.53600         0.54600
| 79>    H       -7.95600        -5.33700        -0.98100
| 80>    H       -7.45600        -6.03700         0.58400
| 81>    H       -5.28700        -0.34400         0.10000
| 82>    H       -3.78000        -3.60100         1.94700
| 83>    H        3.58700        -6.86800        -1.84300
| 84>    H       -2.27600        -4.77400        -0.05000
| 85>    H        3.71400        -3.72400         1.92600
| 86>    H        5.09200        -5.79500         1.87100
| 87>    H        6.20500        -7.32900        -0.43900
| 88>    H        5.39300        -7.91700         1.04200
| 89>    H        4.75900        -8.37300        -0.56400
| 90>    H        0.32900        -5.29000        -0.00800
| 91>    H        2.14600        -4.84200        -1.94000
| 92>    H        5.80800         4.98600        -1.95600
| 93>    H        4.78800        -2.28100        -0.18500
| 94>    H        4.86000         2.11400         1.91200
| 95>    H        6.90100         3.53100         1.77200
| 96>    H        7.38300         6.10900         0.35600
| 97>    H        8.41400         4.65200         0.43500
| 98>    H        7.92100         5.31000        -1.15000
| 99>    H        5.28300         0.33600        -0.17900
|100>    H        3.72000         3.63200        -1.96700
|101> *
|102> 
|103>                          ****END OF INPUT****
================================================================================

                       ****************************
                       * Single Point Calculation *
                       ****************************

---------------------------------
CARTESIAN COORDINATES (ANGSTROEM)
---------------------------------
  C     -4.647000    5.375000    0.930000
  C      1.474000    4.041000    0.057000
  C     -2.802000    4.093000    0.049000
  C     -2.544000    5.161000   -0.825000
  C     -3.336000    6.291000   -0.791000
  C     -5.179000    7.626000    0.111000
  C      0.132000    4.307000    0.061000
  C     -0.569000    3.056000    0.047000
  C      1.649000    2.618000    0.023000
  C     -3.880000    4.226000    0.938000
  N     -4.372000    6.385000    0.074000
  N      0.388000    2.067000    0.025000
  N     -2.010000    0.395000   -0.075000
  N     -0.388000   -2.074000   -0.027000
  N      2.010000   -0.401000    0.065000
  C     -1.960000    2.861000    0.024000
  C     -2.623000    1.615000   -0.018000
  C     -5.573000   -4.329000    1.066000
  C     -4.073000    1.471000    0.056000
  C     -4.106000   -2.756000   -0.026000
  C     -4.995000   -2.757000   -1.111000
  C     -6.132000   -3.542000   -1.076000
  C     -7.651000   -5.113000    0.040000
  C     -4.324000    0.141000    0.037000
  C     -3.025000   -0.520000   -0.048000
  C     -4.422000   -3.566000    1.075000
  N     -6.407000   -4.313000    0.001000
  C     -2.867000   -1.922000   -0.040000
  C     -1.650000   -2.624000   -0.027000
  C      3.568000   -6.142000   -1.040000
  C     -1.476000   -4.049000   -0.034000
  C      2.803000   -4.099000   -0.008000
  C      3.657000   -4.384000    1.069000
  C      4.427000   -5.530000    1.059000
  C      5.245000   -7.588000    0.014000
  C     -0.134000   -4.315000   -0.022000
  C      0.568000   -3.064000   -0.027000
  C      2.775000   -5.012000   -1.074000
  N      4.376000   -6.391000    0.017000
  C      1.959000   -2.869000   -0.009000
  C      2.621000   -1.622000    0.009000
  C      5.543000    4.339000   -1.130000
  C      4.070000   -1.479000   -0.094000
  C      4.104000    2.751000   -0.021000
  C      5.027000    2.729000    1.036000
  C      6.166000    3.509000    0.978000
  C      7.619000    5.153000   -0.115000
  C      4.321000   -0.148000   -0.092000
  C      3.025000    0.514000    0.015000
  C      4.387000    3.582000   -1.115000
  C      2.866000    1.916000    0.013000
  N      6.413000    4.296000   -0.095000
  H     -5.495000    5.516000    1.589000
  H      2.274000    4.766000    0.081000
  H     -1.720000    5.121000   -1.527000
  H     -3.170000    7.142000   -1.439000
  H     -4.694000    8.345000    0.775000
  H     -5.245000    8.031000   -0.898000
  H     -6.174000    7.385000    0.482000
  H     -0.332000    5.282000    0.069000
  H     -4.139000    3.431000    1.628000
  H      0.182000    1.072000    0.005000
  H     -0.183000   -1.080000   -0.021000
  H     -5.864000   -4.962000    1.895000
  H     -4.794000    2.272000    0.139000
  H     -4.800000   -2.160000   -1.994000
  H     -6.841000   -3.582000   -1.893000
  H     -8.428000   -4.536000    0.546000
  H     -7.956000   -5.337000   -0.981000
  H     -7.456000   -6.037000    0.584000
  H     -5.287000   -0.344000    0.100000
  H     -3.780000   -3.601000    1.947000
  H      3.587000   -6.868000   -1.843000
  H     -2.276000   -4.774000   -0.050000
  H      3.714000   -3.724000    1.926000
  H      5.092000   -5.795000    1.871000
  H      6.205000   -7.329000   -0.439000
  H      5.393000   -7.917000    1.042000
  H      4.759000   -8.373000   -0.564000
  H      0.329000   -5.290000   -0.008000
  H      2.146000   -4.842000   -1.940000
  H      5.808000    4.986000   -1.956000
  H      4.788000   -2.281000   -0.185000
  H      4.860000    2.114000    1.912000
  H      6.901000    3.531000    1.772000
  H      7.383000    6.109000    0.356000
  H      8.414000    4.652000    0.435000
  H      7.921000    5.310000   -1.150000
  H      5.283000    0.336000   -0.179000
  H      3.720000    3.632000   -1.967000

----------------------------
CARTESIAN COORDINATES (A.U.)
----------------------------
  NO LB      ZA    FRAG     MASS         X           Y           Z
   0 C     6.0000    0    12.011   -8.781557   10.157278    1.757445
   1 C     6.0000    0    12.011    2.785456    7.636383    0.107714
   2 C     6.0000    0    12.011   -5.295013    7.734649    0.092597
   3 C     6.0000    0    12.011   -4.807463    9.752877   -1.559024
   4 C     6.0000    0    12.011   -6.304126   11.888267   -1.494773
   5 C     6.0000    0    12.011   -9.786892   14.411051    0.209760
   6 C     6.0000    0    12.011    0.249444    8.139050    0.115273
   7 C     6.0000    0    12.011   -1.075254    5.775003    0.088817
   8 C     6.0000    0    12.011    3.116158    4.947303    0.043464
   9 C     6.0000    0    12.011   -7.332137    7.985983    1.772563
  10 N     7.0000    0    14.007   -8.261883   12.065901    0.139840
  11 N     7.0000    0    14.007    0.733214    3.906064    0.047243
  12 N     7.0000    0    14.007   -3.798350    0.746442   -0.141729
  13 N     7.0000    0    14.007   -0.733214   -3.919292   -0.051023
  14 N     7.0000    0    14.007    3.798350   -0.757780    0.122832
  15 C     6.0000    0    12.011   -3.703863    5.406506    0.045353
  16 C     6.0000    0    12.011   -4.956752    3.051908   -0.034015
  17 C     6.0000    0    12.011  -10.531444   -8.180624    2.014448
  18 C     6.0000    0    12.011   -7.696855    2.779787    0.105825
  19 C     6.0000    0    12.011   -7.759216   -5.208085   -0.049133
  20 C     6.0000    0    12.011   -9.439182   -5.209975   -2.099486
  21 C     6.0000    0    12.011  -11.587801   -6.693410   -2.033345
  22 C     6.0000    0    12.011  -14.458295   -9.662170    0.075589
  23 C     6.0000    0    12.011   -8.171176    0.266451    0.069920
  24 C     6.0000    0    12.011   -5.716422   -0.982658   -0.090707
  25 C     6.0000    0    12.011   -8.356369   -6.738763    2.031456
  26 N     7.0000    0    14.007  -12.107475   -8.150389    0.001890
  27 C     6.0000    0    12.011   -5.417845   -3.632054   -0.075589
  28 C     6.0000    0    12.011   -3.118048   -4.958641   -0.051023
  29 C     6.0000    0    12.011    6.742543  -11.606698   -1.965315
  30 C     6.0000    0    12.011   -2.789236   -7.651501   -0.064251
  31 C     6.0000    0    12.011    5.296902   -7.745987   -0.015118
  32 C     6.0000    0    12.011    6.910728   -8.284559    2.020117
  33 C     6.0000    0    12.011    8.365818  -10.450186    2.001220
  34 C     6.0000    0    12.011    9.911614  -14.339242    0.026456
  35 C     6.0000    0    12.011   -0.253223   -8.154168   -0.041574
  36 C     6.0000    0    12.011    1.073364   -5.790121   -0.051023
  37 C     6.0000    0    12.011    5.243990   -9.471307   -2.029566
  38 N     7.0000    0    14.007    8.269442  -12.077240    0.032125
  39 C     6.0000    0    12.011    3.701973   -5.421624   -0.017008
  40 C     6.0000    0    12.011    4.952972   -3.065136    0.017008
  41 C     6.0000    0    12.011   10.474752    8.199522   -2.135391
  42 C     6.0000    0    12.011    7.691185   -2.794905   -0.177634
  43 C     6.0000    0    12.011    7.755436    5.198637   -0.039684
  44 C     6.0000    0    12.011    9.499653    5.157063    1.957756
  45 C     6.0000    0    12.011   11.652051    6.631049    1.848152
  46 C     6.0000    0    12.011   14.397823    9.737759   -0.217319
  47 C     6.0000    0    12.011    8.165507   -0.279679   -0.173855
  48 C     6.0000    0    12.011    5.716422    0.971319    0.028346
  49 C     6.0000    0    12.011    8.290229    6.768999   -2.107045
  50 C     6.0000    0    12.011    5.415955    3.620715    0.024566
  51 N     7.0000    0    14.007   12.118814    8.118263   -0.179524
  52 H     1.0000    0     1.008  -10.384045   10.423729    3.002775
  53 H     1.0000    0     1.008    4.297237    9.006435    0.153068
  54 H     1.0000    0     1.008   -3.250329    9.677288   -2.885612
  55 H     1.0000    0     1.008   -5.990432   13.496424   -2.719316
  56 H     1.0000    0     1.008   -8.870374   15.769765    1.464538
  57 H     1.0000    0     1.008   -9.911614   15.176391   -1.696974
  58 H     1.0000    0     1.008  -11.667169   13.955627    0.910848
  59 H     1.0000    0     1.008   -0.627389    9.981533    0.130391
  60 H     1.0000    0     1.008   -7.821576    6.483650    3.076474
  61 H     1.0000    0     1.008    0.343930    2.025786    0.009449
  62 H     1.0000    0     1.008   -0.345820   -2.040904   -0.039684
  63 H     1.0000    0     1.008  -11.081354   -9.376821    3.581031
  64 H     1.0000    0     1.008   -9.059347    4.293458    0.262672
  65 H     1.0000    0     1.008   -9.070685   -4.081808   -3.768114
  66 H     1.0000    0     1.008  -12.927616   -6.768999   -3.577252
  67 H     1.0000    0     1.008  -15.926612   -8.571798    1.031790
  68 H     1.0000    0     1.008  -15.034661  -10.085468   -1.853821
  69 H     1.0000    0     1.008  -14.089798  -11.408277    1.103600
  70 H     1.0000    0     1.008   -9.990982   -0.650066    0.188973
  71 H     1.0000    0     1.008   -7.143165   -6.804904    3.679297
  72 H     1.0000    0     1.008    6.778448  -12.978639   -3.482765
  73 H     1.0000    0     1.008   -4.301017   -9.021553   -0.094486
  74 H     1.0000    0     1.008    7.018443   -7.037340    3.639613
  75 H     1.0000    0     1.008    9.622485  -10.950963    3.535678
  76 H     1.0000    0     1.008   11.725751  -13.849803   -0.829590
  77 H     1.0000    0     1.008   10.191293  -14.960962    1.969095
  78 H     1.0000    0     1.008    8.993207  -15.822677   -1.065806
  79 H     1.0000    0     1.008    0.621720   -9.996651   -0.015118
  80 H     1.0000    0     1.008    4.055352   -9.150054   -3.666069
  81 H     1.0000    0     1.008   10.975529    9.422175   -3.696304
  82 H     1.0000    0     1.008    9.048009   -4.310465   -0.349599
  83 H     1.0000    0     1.008    9.184069    3.994881    3.613156
  84 H     1.0000    0     1.008   13.041000    6.672623    3.348595
  85 H     1.0000    0     1.008   13.951848   11.544337    0.672743
  86 H     1.0000    0     1.008   15.900156    8.791006    0.822031
  87 H     1.0000    0     1.008   14.968521   10.034446   -2.173185
  88 H     1.0000    0     1.008    9.983423    0.634948   -0.338261
  89 H     1.0000    0     1.008    7.029781    6.863485   -3.717091

--------------------------------
INTERNAL COORDINATES (ANGSTROEM)
--------------------------------
 C      0   0   0     0.000000000000     0.00000000     0.00000000
 C      1   0   0     6.325213514183     0.00000000     0.00000000
 C      1   2   0     2.413236416102    25.54119574     0.00000000
 C      3   1   2     1.403945867902    87.91656429   288.41636478
 C      4   3   1     1.380333293085   120.13088827     0.15512596
 C      5   4   3     2.447953839434   152.56143826     1.55217322
 C      2   1   3     1.368114030335     7.84042452    47.75066775
 C      7   2   4     1.434084376876   108.05010202   108.90111362
 C      2   1   3     1.434123425651   109.30667716   324.37316169
 C      1   2   7     1.381504252617    44.61227718    90.63587484
 N      1   2   7     1.352205975434    82.72403913   300.82974848
 N      9   2   1     1.376127174356   106.58526707     7.43919097
 N     12   9   2     2.925062050624   168.53581413   171.12065651
 N     13  12   9     2.954513327098    91.55032014    11.12112580
 N     14  13  12     2.925371258490    88.43092389   359.84326247
 C      8   7   2     1.404790019896   127.24786865   181.11170171
 C     13  12   9     1.366535034311    81.72106996   188.00453233
 C     14  13  12     5.758810554272    80.56209567   166.76250791
 C     17  13  12     1.459010623676   111.08861209   183.82872609
 C     18  14  13     2.412235892279    27.27532823    36.33507194
 C     20  18  14     1.402692767501    87.95206320   148.94598259
 C     21  20  18     1.382106725257   120.14573887   359.70382047
 C     18  14  13     2.446510985056   144.15733107    82.80075377
 C     19  17  13     1.353610726908   106.29293361   359.75308708
 C     13  12   9     1.366813447402   172.21332906    33.46711076
 C     18  14  13     1.380960173213    15.08449437   309.23336894
 N     22  21  20     1.352773077792   120.73759875     0.27865223
 C     25  13  17     1.410897586645   125.60330303   182.37774668
 C     14  13  12     1.376642291955    80.24689249   177.85461986
 C     14  13  12     5.764089607215   164.51507311   312.20821879
 C     29  14  13     1.435600919476   106.58649366   178.76395472
 C     30  14  13     2.413316804732    27.10625047    82.12560436
 C     32  30  14     1.403734305344    87.90059683   149.76154742
 C     33  32  30     1.380694028378   120.14881443   359.74174632
 C     34  33  32     2.448777858443   152.49203239     2.45173620
 C     31  29  14     1.368160809262   108.16950133     0.70383075
 C     14  13  12     1.376239804685   169.26375223   353.09862627
 C     30  14  13     1.380907310430    14.68948582   353.70041132
 N     34  33  32     1.352658863128   120.85575621     0.19603406
 C     37  14  29     1.404717053360   126.01551127   180.90772073
 C     15  14  13     1.366491126938    81.61824056   183.09049352
 C      2   1   3     4.249062720177   161.89169607   116.94483471
 C     41  15  14     1.459677704153   111.05201287   175.08990246
 C     42   2   1     2.412953791518    41.78584867   182.16430231
 C     44  42   2     1.403446472082    87.95153797   233.97558675
 C     45  44  42     1.381696421071   120.11137308     0.19721020
 C     42   2   1     2.450019795838   135.97209175    92.47915141
 C     43  41  15     1.354461516618   106.26758155     0.30894352
 C     15  14  13     1.367461151185   171.87382904   332.35056460
 C     42   2   1     1.381886391857    32.59078432   231.01958150
 C      9   2   1     1.404988612053   126.98745415   188.44352850
 N     42   2   1     1.352765315936   113.57249190   120.21574060
 H      1   2   7     1.083174039571   150.34641189   167.45195240
 H      2   1   3     1.079907866440   124.90584038   152.87463025
 H      4   3   1     1.083226661415   121.00678764   179.49491786
 H      5   4   3     1.082432907852   122.74298803   179.45389608
 H      6   5   4     1.092282930380   104.39948028   100.11348354
 H      6   5   4     1.089248364699    84.66751419   209.62846053
 H      6   5   4     1.088920107262   133.85056025   322.41957353
 H      7   2  54     1.079807853278   126.66122480     1.30600390
 H     10   1   2     1.084069185984   118.74873466   145.38997520
 H     12   9   2     1.016297692608   125.29023241   180.00180175
 H     14  13  12     1.014936943854    44.97226959   359.42596618
 H     18  14  13     1.082871645210   128.03556573   234.20482432
 H     19  17  13     1.080893611786   126.41830519   178.11313280
 H     21  20  18     1.083569563987   121.05669627   180.67006309
 H     22  21  20     1.082483256222   122.73097286   180.59748951
 H     23  18  14     1.092105306278   103.92715769   234.93429879
 H     23  18  14     1.088871893291   134.19244188    12.25587044
 H     23  18  14     1.089833473518    84.85857450   125.45241208
 H     24  19  17     1.080075460327   127.28078426   178.44613241
 H     26  18  14     1.083408048706   118.76995697   244.94906660
 H     30  14  13     1.082703098730   127.99711412   279.66882698
 H     31  29  14     1.079759695488   125.22293469   180.92530585
 H     33  32  30     1.083188810873   121.01964473   180.74284758
 H     34  33  32     1.082494341787   122.70821597   180.59516895
 H     35  34  33     1.092652735319   105.73575241    97.19771933
 H     35  34  33     1.089462711615    84.05943581   206.43036958
 H     35  34  33     1.089268102902   133.08365142   318.50306270
 H     36  31  29     1.079439669458   126.61599965   178.98859863
 H     38  30  73     1.083742127999   118.77264435   359.90091293
 H     42   2   1     1.082178358682   119.31790784   336.84727106
 H     43  41  15     1.080281907652   126.36969097   182.06329380
 H     45  44  42     1.083277434455   121.10105945   179.58025624
 H     46  45  44     1.082194529648   122.72144639   179.46906377
 H     47  42   2     1.091546151109   106.65128841   315.16475048
 H     47  42   2     1.088818625851   132.46019523    94.52397119
 H     47  42   2     1.089531091801    83.63838232   206.04504406
 H     48  43  41     1.080402239909   127.23657387   181.62955349
 H     50  42   2     1.083186502870   118.77001737    94.71359229

---------------------------
INTERNAL COORDINATES (A.U.)
---------------------------
 C      0   0   0     0.000000000000     0.00000000     0.00000000
 C      1   0   0    11.952921280383     0.00000000     0.00000000
 C      1   2   0     4.560355922838    25.54119574     0.00000000
 C      3   1   2     2.653073197186    87.91656429   288.41636478
 C      4   3   1     2.608451897465   120.13088827     0.15512596
 C      5   4   3     4.625962345011   152.56143826     1.55217322
 C      2   1   3     2.585360837309     7.84042452    47.75066775
 C      7   2   4     2.710026725231   108.05010202   108.90111362
 C      2   1   3     2.710100516721   109.30667716   324.37316169
 C      1   2   7     2.610664690294    44.61227718    90.63587484
 N      1   2   7     2.555298970223    82.72403913   300.82974848
 N      9   2   1     2.600503484979   106.58526707     7.43919097
 N     12   9   2     5.527566200405   168.53581413   171.12065651
 N     13  12   9     5.583221047236    91.55032014    11.12112580
 N     14  13  12     5.528150518591    88.43092389   359.84326247
 C      8   7   2     2.654668413270   127.24786865   181.11170171
 C     13  12   9     2.582376967257    81.72106996   188.00453233
 C     14  13  12    10.882574804710    80.56209567   166.76250791
 C     17  13  12     2.757130505230   111.08861209   183.82872609
 C     18  14  13     4.558465206823    27.27532823    36.33507194
 C     20  18  14     2.650705180609    87.95206320   148.94598259
 C     21  20  18     2.611803198586   120.14573887   359.70382047
 C     18  14  13     4.623235745386   144.15733107    82.80075377
 C     19  17  13     2.557953565794   106.29293361   359.75308708
 C     13  12   9     2.582903091751   172.21332906    33.46711076
 C     18  14  13     2.609636529225    15.08449437   309.23336894
 N     22  21  20     2.556370638369   120.73759875     0.27865223
 C     25  13  17     2.666210041769   125.60330303   182.37774668
 C     14  13  12     2.601476916169    80.24689249   177.85461986
 C     14  13  12    10.892550769017   164.51507311   312.20821879
 C     29  14  13     2.712892575415   106.58649366   178.76395472
 C     30  14  13     4.560507835333    27.10625047    82.12560436
 C     32  30  14     2.652673401891    87.90059683   149.76154742
 C     33  32  30     2.609133588376   120.14881443   359.74174632
 C     34  33  32     4.627519515267   152.49203239     2.45173620
 C     31  29  14     2.585449236669   108.16950133     0.70383075
 C     14  13  12     2.600716325456   169.26375223   353.09862627
 C     30  14  13     2.609536633043    14.68948582   353.70041132
 N     34  33  32     2.556154803934   120.85575621     0.19603406
 C     37  14  29     2.654530526499   126.01551127   180.90772073
 C     15  14  13     2.582293994346    81.61824056   183.09049352
 C      2   1   3     8.029564866989   161.89169607   116.94483471
 C     41  15  14     2.758391104639   111.05201287   175.08990246
 C     42   2   1     4.559821839776    41.78584867   182.16430231
 C     44  42   2     2.652129475853    87.95153797   233.97558675
 C     45  44  42     2.611027836043   120.11137308     0.19721020
 C     42   2   1     4.629866436820   135.97209175    92.47915141
 C     43  41  15     2.559561325344   106.26758155     0.30894352
 C     15  14  13     2.584127074516   171.87382904   332.35056460
 C     42   2   1     2.611386828803    32.59078432   231.01958150
 C      9   2   1     2.655043698059   126.98745415   188.44352850
 N     42   2   1     2.556355970587   113.57249190   120.21574060
 H      1   2   7     2.046902290162   150.34641189   167.45195240
 H      2   1   3     2.040730117440   124.90584038   152.87463025
 H      4   3   1     2.047001731036   121.00678764   179.49491786
 H      5   4   3     2.045501754183   122.74298803   179.45389608
 H      6   5   4     2.064115599176   104.39948028   100.11348354
 H      6   5   4     2.058381101103    84.66751419   209.62846053
 H      6   5   4     2.057760784446   133.85056025   322.41957353
 H      7   2  54     2.040541119952   126.66122480     1.30600390
 H     10   1   2     2.048593871733   118.74873466   145.38997520
 H     12   9   2     1.920524309565   125.29023241   180.00180175
 H     14  13  12     1.917952867083    44.97226959   359.42596618
 H     18  14  13     2.046330847636   128.03556573   234.20482432
 H     19  17  13     2.042592906181   126.41830519   178.11313280
 H     21  20  18     2.047649722989   121.05669627   180.67006309
 H     22  21  20     2.045596898814   122.73097286   180.59748951
 H     23  18  14     2.063779938267   103.92715769   234.93429879
 H     23  18  14     2.057669673245   134.19244188    12.25587044
 H     23  18  14     2.059486796529    84.85857450   125.45241208
 H     24  19  17     2.041046823986   127.28078426   178.44613241
 H     26  18  14     2.047344503340   118.76995697   244.94906660
 H     30  14  13     2.046012340948   127.99711412   279.66882698
 H     31  29  14     2.040450114918   125.22293469   180.92530585
 H     33  32  30     2.046930203877   121.01964473   180.74284758
 H     34  33  32     2.045617847496   122.70821597   180.59516895
 H     35  34  33     2.064814429233   105.73575241    97.19771933
 H     35  34  33     2.058786158072    84.05943581   206.43036958
 H     35  34  33     2.058418400901   133.08365142   318.50306270
 H     36  31  29     2.039845353366   126.61599965   178.98859863
 H     38  30  73     2.047975821711   118.77264435   359.90091293
 H     42   2   1     2.045020725966   119.31790784   336.84727106
 H     43  41  15     2.041436952892   126.36969097   182.06329380
 H     45  44  42     2.047097678177   121.10105945   179.58025624
 H     46  45  44     2.045051284662   122.72144639   179.46906377
 H     47  42   2     2.062723288131   106.65128841   315.16475048
 H     47  42   2     2.057569012371   132.46019523    94.52397119
 H     47  42   2     2.058915377895    83.63838232   206.04504406
 H     48  43  41     2.041664347903   127.23657387   181.62955349
 H     50  42   2     2.046925842384   118.77001737    94.71359229

---------------------
BASIS SET INFORMATION
---------------------
There are 3 groups of distinct atoms

 Group   1 Type C   : 17s4p1d contracted to 3s2p1d pattern {881/31/1}
 Group   2 Type N   : 17s4p1d contracted to 3s2p1d pattern {881/31/1}
 Group   3 Type H   : 4s1p contracted to 2s1p pattern {31/1}

Atom   0C    basis set group =>   1
Atom   1N    basis set group =>   2
Atom   2C    basis set group =>   1
Atom   3N    basis set group =>   2
Atom   4C    basis set group =>   1
Atom   5N    basis set group =>   2
Atom   6C    basis set group =>   1
Atom   7N    basis set group =>   2
Atom   8C    basis set group =>   1
Atom   9N    basis set group =>   2
Atom  10C    basis set group =>   1
Atom  11N    basis set group =>   2
Atom  12C    basis set group =>   1
Atom  13N    basis set group =>   2
Atom  14C    basis set group =>   1
Atom  15N    basis set group =>   2
Atom  16C    basis set group =>   1
Atom  17C    basis set group =>   1
Atom  18C    basis set group =>   1
Atom  19C    basis set group =>   1
Atom  20C    basis set group =>   1
Atom  21C    basis set group =>   1
Atom  22C    basis set group =>   1
Atom  23C    basis set group =>   1
Atom  24C    basis set group =>   1
Atom  25C    basis set group =>   1
Atom  26C    basis set group =>   1
Atom  27C    basis set group =>   1
Atom  28C    basis set group =>   1
Atom  29C    basis set group =>   1
Atom  30C    basis set group =>   1
Atom  31C    basis set group =>   1
Atom  32C    basis set group =>   1
Atom  33C    basis set group =>   1
Atom  34C    basis set group =>   1
Atom  35C    basis set group =>   1
Atom  36C    basis set group =>   1
Atom  37C    basis set group =>   1
Atom  38C    basis set group =>   1
Atom  39C    basis set group =>   1
Atom  40C    basis set group =>   1
Atom  41C    basis set group =>   1
Atom  42C    basis set group =>   1
Atom  43C    basis set group =>   1
Atom  44C    basis set group =>   1
Atom  45C    basis set group =>   1
Atom  46C    basis set group =>   1
Atom  47C    basis set group =>   1
Atom  48C    basis set group =>   1
Atom  49C    basis set group =>   1
Atom  50C    basis set group =>   1
Atom  51C    basis set group =>   1
Atom  52H    basis set group =>   3
Atom  53H    basis set group =>   3
Atom  54H    basis set group =>   3
Atom  55H    basis set group =>   3
Atom  56H    basis set group =>   3
Atom  57H    basis set group =>   3
Atom  58H    basis set group =>   3
Atom  59H    basis set group =>   3
Atom  60H    basis set group =>   3
Atom  61H    basis set group =>   3
Atom  62H    basis set group =>   3
Atom  63H    basis set group =>   3
Atom  64H    basis set group =>   3
Atom  65H    basis set group =>   3
Atom  66H    basis set group =>   3
Atom  67H    basis set group =>   3
Atom  68H    basis set group =>   3
Atom  69H    basis set group =>   3
Atom  70H    basis set group =>   3
Atom  71H    basis set group =>   3
Atom  72H    basis set group =>   3
Atom  73H    basis set group =>   3
Atom  74H    basis set group =>   3
Atom  75H    basis set group =>   3
Atom  76H    basis set group =>   3
Atom  77H    basis set group =>   3
Atom  78H    basis set group =>   3
Atom  79H    basis set group =>   3
Atom  80H    basis set group =>   3
Atom  81H    basis set group =>   3
Atom  82H    basis set group =>   3
Atom  83H    basis set group =>   3
Atom  84H    basis set group =>   3
Atom  85H    basis set group =>   3
Atom  86H    basis set group =>   3
Atom  87H    basis set group =>   3
Atom  88H    basis set group =>   3
Atom  89H    basis set group =>   3


           ************************************************************
           *        Program running with 16 parallel MPI-processes    *
           *              working on a common directory               *
           ************************************************************
------------------------------------------------------------------------------
                           ORCA GTO INTEGRAL CALCULATION
------------------------------------------------------------------------------
------------------------------------------------------------------------------
                   ___                                                        
                  /   \      - P O W E R E D   B Y -                         
                 /     \                                                     
                 |  |  |   _    _      __       _____    __    __             
                 |  |  |  | |  | |    /  \     |  _  \  |  |  /  |          
                  \  \/   | |  | |   /    \    | | | |  |  | /  /          
                 / \  \   | |__| |  /  /\  \   | |_| |  |  |/  /          
                |  |  |   |  __  | /  /__\  \  |    /   |      \           
                |  |  |   | |  | | |   __   |  |    \   |  |\   \          
                \     /   | |  | | |  |  |  |  | |\  \  |  | \   \       
                 \___/    |_|  |_| |__|  |__|  |_| \__\ |__|  \__/        
                                                                              
                      - O R C A' S   B I G   F R I E N D -                    
                                      &                                       
                       - I N T E G R A L  F E E D E R -                       
                                                                              
 v1 FN, 2020, v2 2021                                                         
------------------------------------------------------------------------------


Reading SHARK input file /scratch/allen/tmpyp4_amber_gaff2/conf1/conf1/Conf229.orca.SHARKINP.tmp ... ok
----------------------
SHARK INTEGRAL PACKAGE
----------------------

Number of atoms                             ...     90
Number of basis functions                   ...   1230
Number of shells                            ...    738
Maximum angular momentum                    ...      2
Integral batch strategy                     ... SHARK/LIBINT Hybrid
RI-J (if used) integral strategy            ... SPLIT-RIJ (Revised 2003 algorithm where possible)
Printlevel                                  ...      1
Contraction scheme used                     ... PARTIAL GENERAL contraction
Coulomb Range Separation                    ... NOT USED
Exchange Range Separation                   ... NOT USED
Finite Nucleus Model                        ... NOT USED
Auxiliary Coulomb fitting basis             ... NOT available
Auxiliary J/K fitting basis                 ... NOT available
Auxiliary Correlation fitting basis         ... NOT available
Auxiliary 'external' fitting basis          ... NOT available
Integral threshold                          ...     2.500000e-11
Primitive cut-off                           ...     2.500000e-12
Primitive pair pre-selection threshold      ...     2.500000e-12

Calculating pre-screening integrals         ... done (  0.1 sec) Dimension = 738
Calculating pre-screening integrals (ORCA)  ... done (  0.3 sec) Dimension = 426
Organizing shell pair data                  ... done (  0.7 sec)
Shell pair information
Total number of shell pairs                 ...    272691
Shell pairs after pre-screening             ...     71629
Total number of primitive shell pairs       ...    422091
Primitive shell pairs kept                  ...     92419
          la=0 lb=0:  29422 shell pairs
          la=1 lb=0:  25974 shell pairs
          la=1 lb=1:   4705 shell pairs
          la=2 lb=0:   7874 shell pairs
          la=2 lb=1:   3124 shell pairs
          la=2 lb=2:    530 shell pairs

Calculating one electron integrals          ... done (  0.2 sec)
Calculating Nuclear repulsion               ... done (  0.0 sec) ENN=   6227.395150449997 Eh

SHARK setup successfully completed in   2.3 seconds

Maximum memory used throughout the entire GTOINT-calculation: 99.0 MB


           ************************************************************
           *        Program running with 16 parallel MPI-processes    *
           *              working on a common directory               *
           ************************************************************
-------------------------------------------------------------------------------
                                 ORCA SCF
-------------------------------------------------------------------------------

------------
SCF SETTINGS
------------
Hamiltonian:
 Ab initio Hamiltonian  Method          .... Hartree-Fock(GTOs)


General Settings:
 Integral files         IntName         .... /scratch/allen/tmpyp4_amber_gaff2/conf1/conf1/Conf229.orca
 Hartree-Fock type      HFTyp           .... RHF
 Total Charge           Charge          ....    0
 Multiplicity           Mult            ....    1
 Number of Electrons    NEL             ....  358
 Basis Dimension        Dim             ....  918
 Nuclear Repulsion      ENuc            ....   6227.3951504500 Eh

Convergence Acceleration:
 DIIS                   CNVDIIS         .... on
   Start iteration      DIISMaxIt       ....    12
   Startup error        DIISStart       ....  0.200000
   # of expansion vecs  DIISMaxEq       ....     5
   Bias factor          DIISBfac        ....   1.050
   Max. coefficient     DIISMaxC        ....  10.000
 Trust-Rad. Augm. Hess. CNVTRAH         .... auto
   Auto Start mean grad. ratio tolernc. ....  1.125000
   Auto Start start iteration           ....    20
   Auto Start num. interpolation iter.  ....    10
   Max. Number of Micro iterations      ....    16
   Max. Number of Macro iterations      .... Maxiter - #DIIS iter
   Number of Davidson start vectors     ....     2
   Converg. threshold I  (grad. norm)   ....   1.000e-05
   Converg. threshold II (energy diff.) ....   1.000e-08
   Grad. Scal. Fac. for Micro threshold ....   0.100
   Minimum threshold for Micro iter.    ....   0.010
   NR start threshold (gradient norm)   ....   0.001
   Initial trust radius                 ....   0.400
   Minimum AH scaling param. (alpha)    ....   1.000
   Maximum AH scaling param. (alpha)    .... 1000.000
   Orbital update algorithm             .... Taylor
   White noise on init. David. guess    .... on
   Maximum white noise                  ....   0.010
   Quad. conv. algorithm                .... NR
 SOSCF                  CNVSOSCF        .... on
   Start iteration      SOSCFMaxIt      ....   150
   Startup grad/error   SOSCFStart      ....  0.003300
 Level Shifting         CNVShift        .... on
   Level shift para.    LevelShift      ....    0.2500
   Turn off err/grad.   ShiftErr        ....    0.0010
 Zerner damping         CNVZerner       .... off
 Static damping         CNVDamp         .... on
   Fraction old density DampFac         ....    0.7000
   Max. Damping (<1)    DampMax         ....    0.9800
   Min. Damping (>=0)   DampMin         ....    0.0000
   Turn off err/grad.   DampErr         ....    0.1000
 Fernandez-Rico         CNVRico         .... off

SCF Procedure:
 Maximum # iterations   MaxIter         ....   125
 SCF integral mode      SCFMode         .... Direct
   Integral package                     .... SHARK and LIBINT hybrid scheme
 Reset frequency        DirectResetFreq ....    20
 Integral Threshold     Thresh          ....  2.500e-11 Eh
 Primitive CutOff       TCut            ....  2.500e-12 Eh

Convergence Tolerance:
 Convergence Check Mode ConvCheckMode   .... Total+1el-Energy
 Convergence forced     ConvForced      .... 1
 Energy Change          TolE            ....  1.000e-08 Eh
 1-El. energy change                    ....  1.000e-05 Eh
 Orbital Gradient       TolG            ....  1.000e-05
 Orbital Rotation angle TolX            ....  1.000e-05
 DIIS Error             TolErr          ....  5.000e-07


Diagonalization of the overlap matrix:
Smallest eigenvalue                        ... 2.236e-04
Time for diagonalization                   ...    0.482 sec
Threshold for overlap eigenvalues          ... 1.000e-08
Number of eigenvalues below threshold      ... 0
Time for construction of square roots      ...    0.271 sec
Total time needed                          ...    0.761 sec

Time for model grid setup =    1.296 sec

------------------------------
INITIAL GUESS: MODEL POTENTIAL
------------------------------
Loading Hartree-Fock densities                     ... done
Calculating cut-offs                               ... done
Initializing the effective Hamiltonian             ... done
Setting up the integral package (SHARK)            ... done
Starting the Coulomb interaction                   ... done (   1.4 sec)
Reading the grid                                   ... done
Mapping shells                                     ... done
Starting the XC term evaluation                    ... done (   0.2 sec)
Transforming the Hamiltonian                       ... done (   0.3 sec)
Diagonalizing the Hamiltonian                      ... done (   0.4 sec)
Back transforming the eigenvectors                 ... done (   0.1 sec)
Now organizing SCF variables                       ... done
                      ------------------
                      INITIAL GUESS DONE (   3.8 sec)
                      ------------------
--------------
SCF ITERATIONS
--------------
ITER       Energy         Delta-E        Max-DP      RMS-DP      [F,P]     Damp
               ***  Starting incremental Fock matrix formation  ***
  0  -2121.6821760983   0.000000000000 0.06884651  0.00121142  0.2327559 0.7000
  1  -2122.3440588858  -0.661882787435 0.05220432  0.00098432  0.1440549 0.7000
                               ***Turning on DIIS***
  2  -2122.7551476126  -0.411088726816 0.11587588  0.00223100  0.0802368 0.0000
  3  -2117.7952058458   4.959941766814 0.03059227  0.00068096  0.0441565 0.0000
  4  -2123.4192568160  -5.624050970271 0.00950698  0.00022813  0.0071033 0.0000
  5  -2123.5926776655  -0.173420849485 0.00523216  0.00013466  0.0049492 0.0000
  6  -2123.5759509474   0.016726718140 0.00346302  0.00008693  0.0019745 0.0000
  7  -2123.6789852237  -0.103034276290 0.00292300  0.00006838  0.0015252 0.0000
  8  -2123.6948238635  -0.015838639834 0.00295969  0.00006406  0.0014223 0.0000
  9  -2123.6606881326   0.034135730915 0.00236747  0.00004375  0.0011287 0.0000
 10  -2123.6732158761  -0.012527743478 0.00482428  0.00008691  0.0008649 0.0000
                      *** Initiating the SOSCF procedure ***
                           *** Shutting down DIIS ***
                      *** Re-Reading the Fockian *** 
                      *** Removing any level shift *** 
ITER      Energy       Delta-E        Grad      Rot      Max-DP    RMS-DP
 11  -2123.55908535   0.1141305246  0.000277  0.000277  0.000272  0.000006
               *** Restarting incremental Fock matrix formation ***
 12  -2123.62423483  -0.0651494799  0.000921  0.006221  0.001153  0.000029
 13  -2123.62430876  -0.0000739247  0.001018  0.027543  0.005101  0.000104
 14  -2123.62441716  -0.0001084025  0.000438  0.001999  0.000553  0.000011
 15  -2123.62443109  -0.0000139271  0.000171  0.003032  0.000909  0.000015
 16  -2123.62443903  -0.0000079456  0.000140  0.004185  0.000726  0.000015
 17  -2123.62444342  -0.0000043915  0.000150  0.003041  0.000446  0.000010
 18  -2123.62444569  -0.0000022709  0.000072  0.001608  0.000254  0.000006
 19  -2123.62444686  -0.0000011709  0.000062  0.000625  0.000178  0.000003
 20  -2123.62444724  -0.0000003781  0.000028  0.000515  0.000139  0.000002
 21  -2123.62444743  -0.0000001829  0.000024  0.000302  0.000076  0.000001
 22  -2123.62444753  -0.0000001036  0.000017  0.000493  0.000118  0.000002
 23  -2123.62444761  -0.0000000776  0.000011  0.000215  0.000050  0.000001
 24  -2123.62444763  -0.0000000249  0.000006  0.000165  0.000037  0.000001
 25  -2123.62444765  -0.0000000161  0.000006  0.000098  0.000025  0.000000
 26  -2123.62444766  -0.0000000090  0.000003  0.000089  0.000018  0.000000
 27  -2123.62444766  -0.0000000046  0.000003  0.000106  0.000017  0.000000
                  ***Gradient check signals convergence***
              ***Rediagonalizing the Fockian in SOSCF/NRSCF***

               *****************************************************
               *                     SUCCESS                       *
               *           SCF CONVERGED AFTER  28 CYCLES          *
               *****************************************************


----------------
TOTAL SCF ENERGY
----------------

Total Energy       :        -2123.62444767 Eh          -57786.75904 eV

Components:
Nuclear Repulsion  :         6227.39515045 Eh          169456.03702 eV
Electronic Energy  :        -8351.01959812 Eh         -227242.79607 eV
One Electron Energy:       -15295.77871146 Eh         -416219.29892 eV
Two Electron Energy:         6944.75911334 Eh          188976.50285 eV

Virial components:
Potential Energy   :        -4245.66762083 Eh         -115530.48942 eV
Kinetic Energy     :         2122.04317316 Eh           57743.73038 eV
Virial Ratio       :            2.00074517


---------------
SCF CONVERGENCE
---------------

  Last Energy change         ...   -5.3988e-09  Tolerance :   1.0000e-08
  Last MAX-Density change    ...    1.2974e-05  Tolerance :   1.0000e-07
  Last RMS-Density change    ...    3.4113e-07  Tolerance :   5.0000e-09
  Last Orbital Gradient      ...    2.1789e-06  Tolerance :   1.0000e-05
  Last Orbital Rotation      ...    1.0477e-04  Tolerance :   1.0000e-05

             **** THE GBW FILE WAS UPDATED (/scratch/allen/tmpyp4_amber_gaff2/conf1/conf1/Conf229.orca.gbw) ****
             **** DENSITY /scratch/allen/tmpyp4_amber_gaff2/conf1/conf1/Conf229.orca.scfp WAS UPDATED ****
             **** ENERGY FILE WAS UPDATED (/scratch/allen/tmpyp4_amber_gaff2/conf1/conf1/Conf229.orca.en.tmp) ****
             **** THE GBW FILE WAS UPDATED (/scratch/allen/tmpyp4_amber_gaff2/conf1/conf1/Conf229.orca.gbw) ****
             **** DENSITY /scratch/allen/tmpyp4_amber_gaff2/conf1/conf1/Conf229.orca.scfp WAS UPDATED ****
----------------
ORBITAL ENERGIES
----------------

  NO   OCC          E(Eh)            E(eV) 
   0   2.0000     -15.654541      -425.9817 
   1   2.0000     -15.637471      -425.5172 
   2   2.0000     -15.629592      -425.3028 
   3   2.0000     -15.608124      -424.7187 
   4   2.0000     -15.521717      -422.3674 
   5   2.0000     -15.516326      -422.2207 
   6   2.0000     -15.447920      -420.3593 
   7   2.0000     -15.443160      -420.2298 
   8   2.0000     -11.312289      -307.8230 
   9   2.0000     -11.308712      -307.7257 
  10   2.0000     -11.306626      -307.6689 
  11   2.0000     -11.301452      -307.5281 
  12   2.0000     -11.296735      -307.3998 
  13   2.0000     -11.294449      -307.3376 
  14   2.0000     -11.291004      -307.2438 
  15   2.0000     -11.287639      -307.1523 
  16   2.0000     -11.285729      -307.1003 
  17   2.0000     -11.284077      -307.0554 
  18   2.0000     -11.270556      -306.6874 
  19   2.0000     -11.269640      -306.6625 
  20   2.0000     -11.258227      -306.3519 
  21   2.0000     -11.245467      -306.0047 
  22   2.0000     -11.244562      -305.9801 
  23   2.0000     -11.240859      -305.8793 
  24   2.0000     -11.234192      -305.6979 
  25   2.0000     -11.233484      -305.6787 
  26   2.0000     -11.232705      -305.6574 
  27   2.0000     -11.227773      -305.5232 
  28   2.0000     -11.227632      -305.5194 
  29   2.0000     -11.216739      -305.2230 
  30   2.0000     -11.211717      -305.0863 
  31   2.0000     -11.210183      -305.0446 
  32   2.0000     -11.204615      -304.8931 
  33   2.0000     -11.203881      -304.8731 
  34   2.0000     -11.192370      -304.5599 
  35   2.0000     -11.191804      -304.5445 
  36   2.0000     -11.179680      -304.2146 
  37   2.0000     -11.178022      -304.1694 
  38   2.0000     -11.177560      -304.1569 
  39   2.0000     -11.172515      -304.0196 
  40   2.0000     -11.168403      -303.9077 
  41   2.0000     -11.166723      -303.8620 
  42   2.0000     -11.165229      -303.8213 
  43   2.0000     -11.165213      -303.8209 
  44   2.0000     -11.163108      -303.7636 
  45   2.0000     -11.162780      -303.7547 
  46   2.0000     -11.150879      -303.4308 
  47   2.0000     -11.150498      -303.4205 
  48   2.0000     -11.147445      -303.3374 
  49   2.0000     -11.147229      -303.3315 
  50   2.0000     -11.138661      -303.0984 
  51   2.0000     -11.133576      -302.9600 
  52   2.0000      -1.338859       -36.4322 
  53   2.0000      -1.324180       -36.0328 
  54   2.0000      -1.317508       -35.8512 
  55   2.0000      -1.299945       -35.3733 
  56   2.0000      -1.221099       -33.2278 
  57   2.0000      -1.211909       -32.9777 
  58   2.0000      -1.165414       -31.7125 
  59   2.0000      -1.155783       -31.4505 
  60   2.0000      -1.125409       -30.6239 
  61   2.0000      -1.112468       -30.2718 
  62   2.0000      -1.106883       -30.1198 
  63   2.0000      -1.092641       -29.7323 
  64   2.0000      -1.062044       -28.8997 
  65   2.0000      -1.048128       -28.5210 
  66   2.0000      -1.042189       -28.3594 
  67   2.0000      -1.030215       -28.0336 
  68   2.0000      -1.026667       -27.9370 
  69   2.0000      -1.012165       -27.5424 
  70   2.0000      -1.009650       -27.4740 
  71   2.0000      -0.994797       -27.0698 
  72   2.0000      -0.985421       -26.8147 
  73   2.0000      -0.974755       -26.5244 
  74   2.0000      -0.972767       -26.4703 
  75   2.0000      -0.959349       -26.1052 
  76   2.0000      -0.951286       -25.8858 
  77   2.0000      -0.947061       -25.7708 
  78   2.0000      -0.938139       -25.5281 
  79   2.0000      -0.922713       -25.1083 
  80   2.0000      -0.896153       -24.3855 
  81   2.0000      -0.886521       -24.1235 
  82   2.0000      -0.875260       -23.8170 
  83   2.0000      -0.869720       -23.6663 
  84   2.0000      -0.862869       -23.4799 
  85   2.0000      -0.855858       -23.2891 
  86   2.0000      -0.848366       -23.0852 
  87   2.0000      -0.840471       -22.8704 
  88   2.0000      -0.822135       -22.3714 
  89   2.0000      -0.798729       -21.7345 
  90   2.0000      -0.796556       -21.6754 
  91   2.0000      -0.741573       -20.1792 
  92   2.0000      -0.734746       -19.9935 
  93   2.0000      -0.730391       -19.8749 
  94   2.0000      -0.721931       -19.6447 
  95   2.0000      -0.720410       -19.6034 
  96   2.0000      -0.713032       -19.4026 
  97   2.0000      -0.706775       -19.2323 
  98   2.0000      -0.700717       -19.0675 
  99   2.0000      -0.694692       -18.9035 
 100   2.0000      -0.690323       -18.7846 
 101   2.0000      -0.681327       -18.5398 
 102   2.0000      -0.678847       -18.4724 
 103   2.0000      -0.674443       -18.3525 
 104   2.0000      -0.670722       -18.2513 
 105   2.0000      -0.667819       -18.1723 
 106   2.0000      -0.664174       -18.0731 
 107   2.0000      -0.660943       -17.9852 
 108   2.0000      -0.656438       -17.8626 
 109   2.0000      -0.655694       -17.8423 
 110   2.0000      -0.651977       -17.7412 
 111   2.0000      -0.648828       -17.6555 
 112   2.0000      -0.645298       -17.5594 
 113   2.0000      -0.637434       -17.3455 
 114   2.0000      -0.635355       -17.2889 
 115   2.0000      -0.627711       -17.0809 
 116   2.0000      -0.624336       -16.9891 
 117   2.0000      -0.615054       -16.7365 
 118   2.0000      -0.613445       -16.6927 
 119   2.0000      -0.610338       -16.6081 
 120   2.0000      -0.609361       -16.5815 
 121   2.0000      -0.602779       -16.4025 
 122   2.0000      -0.595193       -16.1960 
 123   2.0000      -0.593921       -16.1614 
 124   2.0000      -0.590234       -16.0611 
 125   2.0000      -0.583738       -15.8843 
 126   2.0000      -0.579081       -15.7576 
 127   2.0000      -0.574942       -15.6450 
 128   2.0000      -0.565972       -15.4009 
 129   2.0000      -0.559148       -15.2152 
 130   2.0000      -0.553879       -15.0718 
 131   2.0000      -0.548855       -14.9351 
 132   2.0000      -0.541170       -14.7260 
 133   2.0000      -0.536874       -14.6091 
 134   2.0000      -0.534645       -14.5484 
 135   2.0000      -0.529918       -14.4198 
 136   2.0000      -0.526674       -14.3315 
 137   2.0000      -0.523348       -14.2410 
 138   2.0000      -0.519328       -14.1316 
 139   2.0000      -0.516499       -14.0547 
 140   2.0000      -0.510623       -13.8948 
 141   2.0000      -0.507530       -13.8106 
 142   2.0000      -0.506667       -13.7871 
 143   2.0000      -0.501287       -13.6407 
 144   2.0000      -0.501085       -13.6352 
 145   2.0000      -0.498301       -13.5594 
 146   2.0000      -0.494541       -13.4571 
 147   2.0000      -0.489807       -13.3283 
 148   2.0000      -0.488843       -13.3021 
 149   2.0000      -0.469479       -12.7752 
 150   2.0000      -0.462207       -12.5773 
 151   2.0000      -0.454132       -12.3576 
 152   2.0000      -0.447872       -12.1872 
 153   2.0000      -0.446950       -12.1621 
 154   2.0000      -0.446383       -12.1467 
 155   2.0000      -0.440002       -11.9731 
 156   2.0000      -0.434423       -11.8212 
 157   2.0000      -0.429566       -11.6891 
 158   2.0000      -0.395940       -10.7741 
 159   2.0000      -0.386199       -10.5090 
 160   2.0000      -0.377946       -10.2844 
 161   2.0000      -0.371372       -10.1055 
 162   2.0000      -0.370600       -10.0845 
 163   2.0000      -0.358764        -9.7625 
 164   2.0000      -0.353896        -9.6300 
 165   2.0000      -0.338856        -9.2207 
 166   2.0000      -0.337138        -9.1740 
 167   2.0000      -0.335314        -9.1244 
 168   2.0000      -0.328534        -8.9399 
 169   2.0000      -0.300216        -8.1693 
 170   2.0000      -0.298967        -8.1353 
 171   2.0000      -0.288063        -7.8386 
 172   2.0000      -0.286183        -7.7874 
 173   2.0000      -0.257977        -7.0199 
 174   2.0000      -0.247094        -6.7238 
 175   2.0000      -0.188959        -5.1418 
 176   2.0000      -0.179041        -4.8720 
 177   2.0000      -0.069718        -1.8971 
 178   2.0000      -0.055846        -1.5196 
 179   0.0000       0.029879         0.8131 
 180   0.0000       0.069550         1.8925 
 181   0.0000       0.092578         2.5192 
 182   0.0000       0.101424         2.7599 
 183   0.0000       0.123325         3.3559 
 184   0.0000       0.135105         3.6764 
 185   0.0000       0.140856         3.8329 
 186   0.0000       0.154140         4.1944 
 187   0.0000       0.156271         4.2523 
 188   0.0000       0.161506         4.3948 
 189   0.0000       0.163369         4.4455 
 190   0.0000       0.167129         4.5478 
 191   0.0000       0.177643         4.8339 
 192   0.0000       0.193808         5.2738 
 193   0.0000       0.197190         5.3658 
 194   0.0000       0.203145         5.5279 
 195   0.0000       0.206542         5.6203 
 196   0.0000       0.207098         5.6354 
 197   0.0000       0.210180         5.7193 
 198   0.0000       0.217753         5.9254 
 199   0.0000       0.221170         6.0183 
 200   0.0000       0.228886         6.2283 
 201   0.0000       0.237830         6.4717 
 202   0.0000       0.241276         6.5655 
 203   0.0000       0.246542         6.7087 
 204   0.0000       0.251892         6.8543 
 205   0.0000       0.254215         6.9175 
 206   0.0000       0.256292         6.9741 
 207   0.0000       0.258530         7.0350 
 208   0.0000       0.262482         7.1425 
 209   0.0000       0.263965         7.1829 
 210   0.0000       0.266726         7.2580 
 211   0.0000       0.269248         7.3266 
 212   0.0000       0.271973         7.4008 
 213   0.0000       0.274780         7.4771 
 214   0.0000       0.276219         7.5163 
 215   0.0000       0.279068         7.5938 
 216   0.0000       0.280212         7.6250 
 217   0.0000       0.283388         7.7114 
 218   0.0000       0.283837         7.7236 
 219   0.0000       0.289119         7.8673 
 220   0.0000       0.290363         7.9012 
 221   0.0000       0.291856         7.9418 
 222   0.0000       0.294149         8.0042 
 223   0.0000       0.294904         8.0248 
 224   0.0000       0.298798         8.1307 
 225   0.0000       0.300163         8.1678 
 226   0.0000       0.304249         8.2790 
 227   0.0000       0.308847         8.4041 
 228   0.0000       0.310266         8.4428 
 229   0.0000       0.315818         8.5939 
 230   0.0000       0.317463         8.6386 
 231   0.0000       0.322997         8.7892 
 232   0.0000       0.326088         8.8733 
 233   0.0000       0.330010         8.9800 
 234   0.0000       0.336861         9.1665 
 235   0.0000       0.341955         9.3051 
 236   0.0000       0.356329         9.6962 
 237   0.0000       0.384721        10.4688 
 238   0.0000       0.394763        10.7420 
 239   0.0000       0.399469        10.8701 
 240   0.0000       0.404108        10.9963 
 241   0.0000       0.416831        11.3425 
 242   0.0000       0.418607        11.3909 
 243   0.0000       0.426377        11.6023 
 244   0.0000       0.427453        11.6316 
 245   0.0000       0.430298        11.7090 
 246   0.0000       0.433898        11.8070 
 247   0.0000       0.439304        11.9541 
 248   0.0000       0.441151        12.0043 
 249   0.0000       0.443245        12.0613 
 250   0.0000       0.448736        12.2107 
 251   0.0000       0.456267        12.4157 
 252   0.0000       0.459533        12.5045 
 253   0.0000       0.463010        12.5991 
 254   0.0000       0.470828        12.8119 
 255   0.0000       0.474167        12.9027 
 256   0.0000       0.482528        13.1303 
 257   0.0000       0.484797        13.1920 
 258   0.0000       0.491978        13.3874 
 259   0.0000       0.498206        13.5569 
 260   0.0000       0.500733        13.6256 
 261   0.0000       0.504044        13.7157 
 262   0.0000       0.506430        13.7807 
 263   0.0000       0.508886        13.8475 
 264   0.0000       0.512739        13.9523 
 265   0.0000       0.515178        14.0187 
 266   0.0000       0.519850        14.1459 
 267   0.0000       0.523755        14.2521 
 268   0.0000       0.535461        14.5706 
 269   0.0000       0.538093        14.6423 
 270   0.0000       0.541765        14.7422 
 271   0.0000       0.545459        14.8427 
 272   0.0000       0.546427        14.8690 
 273   0.0000       0.554148        15.0791 
 274   0.0000       0.559893        15.2355 
 275   0.0000       0.564903        15.3718 
 276   0.0000       0.571435        15.5495 
 277   0.0000       0.577726        15.7207 
 278   0.0000       0.581935        15.8352 
 279   0.0000       0.584534        15.9060 
 280   0.0000       0.586531        15.9603 
 281   0.0000       0.591729        16.1018 
 282   0.0000       0.594169        16.1682 
 283   0.0000       0.597290        16.2531 
 284   0.0000       0.599559        16.3148 
 285   0.0000       0.600996        16.3539 
 286   0.0000       0.607130        16.5208 
 287   0.0000       0.610150        16.6030 
 288   0.0000       0.611462        16.6387 
 289   0.0000       0.616517        16.7763 
 290   0.0000       0.623455        16.9651 
 291   0.0000       0.627965        17.0878 
 292   0.0000       0.636083        17.3087 
 293   0.0000       0.637621        17.3506 
 294   0.0000       0.643637        17.5142 
 295   0.0000       0.651463        17.7272 
 296   0.0000       0.655113        17.8265 
 297   0.0000       0.658572        17.9206 
 298   0.0000       0.662930        18.0393 
 299   0.0000       0.666607        18.1393 
 300   0.0000       0.669045        18.2056 
 301   0.0000       0.670836        18.2544 
 302   0.0000       0.679459        18.4890 
 303   0.0000       0.681820        18.5533 
 304   0.0000       0.685427        18.6514 
 305   0.0000       0.687916        18.7192 
 306   0.0000       0.688878        18.7453 
 307   0.0000       0.692240        18.8368 
 308   0.0000       0.697290        18.9742 
 309   0.0000       0.698361        19.0034 
 310   0.0000       0.701925        19.1003 
 311   0.0000       0.704734        19.1768 
 312   0.0000       0.706353        19.2208 
 313   0.0000       0.708943        19.2913 
 314   0.0000       0.712317        19.3831 
 315   0.0000       0.714507        19.4427 
 316   0.0000       0.716572        19.4989 
 317   0.0000       0.719461        19.5775 
 318   0.0000       0.720082        19.5944 
 319   0.0000       0.721430        19.6311 
 320   0.0000       0.726627        19.7725 
 321   0.0000       0.730204        19.8699 
 322   0.0000       0.731815        19.9137 
 323   0.0000       0.734766        19.9940 
 324   0.0000       0.739904        20.1338 
 325   0.0000       0.741721        20.1833 
 326   0.0000       0.743008        20.2183 
 327   0.0000       0.744072        20.2472 
 328   0.0000       0.747735        20.3469 
 329   0.0000       0.748831        20.3767 
 330   0.0000       0.751534        20.4503 
 331   0.0000       0.755861        20.5680 
 332   0.0000       0.758026        20.6269 
 333   0.0000       0.762171        20.7397 
 334   0.0000       0.766229        20.8502 
 335   0.0000       0.772270        21.0145 
 336   0.0000       0.778835        21.1932 
 337   0.0000       0.784279        21.3413 
 338   0.0000       0.784945        21.3594 
 339   0.0000       0.787511        21.4293 
 340   0.0000       0.789624        21.4868 
 341   0.0000       0.792919        21.5764 
 342   0.0000       0.797992        21.7145 
 343   0.0000       0.802862        21.8470 
 344   0.0000       0.804302        21.8862 
 345   0.0000       0.807025        21.9603 
 346   0.0000       0.809921        22.0391 
 347   0.0000       0.810834        22.0639 
 348   0.0000       0.813494        22.1363 
 349   0.0000       0.817509        22.2455 
 350   0.0000       0.820802        22.3352 
 351   0.0000       0.823729        22.4148 
 352   0.0000       0.825592        22.4655 
 353   0.0000       0.828871        22.5547 
 354   0.0000       0.829415        22.5695 
 355   0.0000       0.831252        22.6195 
 356   0.0000       0.833815        22.6893 
 357   0.0000       0.834270        22.7016 
 358   0.0000       0.835889        22.7457 
 359   0.0000       0.839411        22.8415 
 360   0.0000       0.840206        22.8632 
 361   0.0000       0.840811        22.8796 
 362   0.0000       0.843428        22.9508 
 363   0.0000       0.845079        22.9958 
 364   0.0000       0.846757        23.0414 
 365   0.0000       0.848804        23.0971 
 366   0.0000       0.853743        23.2315 
 367   0.0000       0.857964        23.3464 
 368   0.0000       0.861030        23.4298 
 369   0.0000       0.864163        23.5151 
 370   0.0000       0.865859        23.5612 
 371   0.0000       0.870925        23.6991 
 372   0.0000       0.874108        23.7857 
 373   0.0000       0.876467        23.8499 
 374   0.0000       0.877963        23.8906 
 375   0.0000       0.883576        24.0433 
 376   0.0000       0.885473        24.0950 
 377   0.0000       0.887738        24.1566 
 378   0.0000       0.891619        24.2622 
 379   0.0000       0.893639        24.3171 
 380   0.0000       0.898034        24.4368 
 381   0.0000       0.898378        24.4461 
 382   0.0000       0.902156        24.5489 
 383   0.0000       0.903483        24.5850 
 384   0.0000       0.903556        24.5870 
 385   0.0000       0.906001        24.6535 
 386   0.0000       0.908870        24.7316 
 387   0.0000       0.910256        24.7693 
 388   0.0000       0.911460        24.8021 
 389   0.0000       0.912752        24.8373 
 390   0.0000       0.917197        24.9582 
 391   0.0000       0.920667        25.0526 
 392   0.0000       0.924300        25.1515 
 393   0.0000       0.925794        25.1921 
 394   0.0000       0.927760        25.2456 
 395   0.0000       0.930862        25.3300 
 396   0.0000       0.933117        25.3914 
 397   0.0000       0.934023        25.4161 
 398   0.0000       0.938105        25.5271 
 399   0.0000       0.941927        25.6311 
 400   0.0000       0.944840        25.7104 
 401   0.0000       0.947583        25.7850 
 402   0.0000       0.951190        25.8832 
 403   0.0000       0.952786        25.9266 
 404   0.0000       0.956497        26.0276 
 405   0.0000       0.957057        26.0428 
 406   0.0000       0.961556        26.1653 
 407   0.0000       0.965058        26.2606 
 408   0.0000       0.970330        26.4040 
 409   0.0000       0.971695        26.4412 
 410   0.0000       0.978339        26.6220 
 411   0.0000       0.981509        26.7082 
 412   0.0000       0.985497        26.8167 
 413   0.0000       0.986680        26.8489 
 414   0.0000       0.989435        26.9239 
 415   0.0000       0.991979        26.9931 
 416   0.0000       0.998158        27.1613 
 417   0.0000       1.002679        27.2843 
 418   0.0000       1.009184        27.4613 
 419   0.0000       1.016957        27.6728 
 420   0.0000       1.023562        27.8525 
 421   0.0000       1.028500        27.9869 
 422   0.0000       1.031532        28.0694 
 423   0.0000       1.039509        28.2865 
 424   0.0000       1.043466        28.3941 
 425   0.0000       1.047231        28.4966 
 426   0.0000       1.053345        28.6630 
 427   0.0000       1.065898        29.0046 
 428   0.0000       1.066484        29.0205 
 429   0.0000       1.073081        29.2000 
 430   0.0000       1.075840        29.2751 
 431   0.0000       1.080031        29.3891 
 432   0.0000       1.084353        29.5068 
 433   0.0000       1.091404        29.6986 
 434   0.0000       1.097724        29.8706 
 435   0.0000       1.101147        29.9637 
 436   0.0000       1.104913        30.0662 
 437   0.0000       1.112209        30.2647 
 438   0.0000       1.116023        30.3685 
 439   0.0000       1.117954        30.4211 
 440   0.0000       1.119464        30.4622 
 441   0.0000       1.124563        30.6009 
 442   0.0000       1.127102        30.6700 
 443   0.0000       1.130419        30.7603 
 444   0.0000       1.133541        30.8452 
 445   0.0000       1.135903        30.9095 
 446   0.0000       1.139748        31.0141 
 447   0.0000       1.142564        31.0907 
 448   0.0000       1.143575        31.1183 
 449   0.0000       1.145655        31.1749 
 450   0.0000       1.150091        31.2956 
 451   0.0000       1.150886        31.3172 
 452   0.0000       1.155818        31.4514 
 453   0.0000       1.157084        31.4859 
 454   0.0000       1.162851        31.6428 
 455   0.0000       1.168753        31.8034 
 456   0.0000       1.174356        31.9559 
 457   0.0000       1.175523        31.9876 
 458   0.0000       1.177751        32.0482 
 459   0.0000       1.185420        32.2569 
 460   0.0000       1.187879        32.3238 
 461   0.0000       1.193533        32.4777 
 462   0.0000       1.203560        32.7505 
 463   0.0000       1.205045        32.7909 
 464   0.0000       1.208847        32.8944 
 465   0.0000       1.210812        32.9479 
 466   0.0000       1.211603        32.9694 
 467   0.0000       1.218738        33.1636 
 468   0.0000       1.223769        33.3004 
 469   0.0000       1.227191        33.3936 
 470   0.0000       1.231389        33.5078 
 471   0.0000       1.233895        33.5760 
 472   0.0000       1.235443        33.6181 
 473   0.0000       1.238343        33.6970 
 474   0.0000       1.242521        33.8107 
 475   0.0000       1.247789        33.9541 
 476   0.0000       1.249752        34.0075 
 477   0.0000       1.250199        34.0196 
 478   0.0000       1.252049        34.0700 
 479   0.0000       1.254520        34.1372 
 480   0.0000       1.259996        34.2862 
 481   0.0000       1.265356        34.4321 
 482   0.0000       1.267044        34.4780 
 483   0.0000       1.271926        34.6109 
 484   0.0000       1.273524        34.6543 
 485   0.0000       1.277586        34.7649 
 486   0.0000       1.279292        34.8113 
 487   0.0000       1.279880        34.8273 
 488   0.0000       1.288557        35.0634 
 489   0.0000       1.290647        35.1203 
 490   0.0000       1.291519        35.1440 
 491   0.0000       1.295672        35.2570 
 492   0.0000       1.300508        35.3886 
 493   0.0000       1.308752        35.6129 
 494   0.0000       1.311697        35.6931 
 495   0.0000       1.313316        35.7371 
 496   0.0000       1.318860        35.8880 
 497   0.0000       1.322775        35.9945 
 498   0.0000       1.327709        36.1288 
 499   0.0000       1.329549        36.1789 
 500   0.0000       1.331700        36.2374 
 501   0.0000       1.337644        36.3991 
 502   0.0000       1.339280        36.4437 
 503   0.0000       1.345248        36.6061 
 504   0.0000       1.347885        36.6778 
 505   0.0000       1.351776        36.7837 
 506   0.0000       1.354126        36.8477 
 507   0.0000       1.358589        36.9691 
 508   0.0000       1.361127        37.0381 
 509   0.0000       1.362405        37.0729 
[...]
      pz      :     0.022026  p :     0.079647
      px      :     0.043416
      py      :     0.014205
 77 H s       :     0.887399  s :     0.887399
      pz      :     0.047758  p :     0.079038
      px      :     0.015016
      py      :     0.016264
 78 H s       :     0.887782  s :     0.887782
      pz      :     0.025769  p :     0.078986
      px      :     0.020519
      py      :     0.032698
 79 H s       :     0.909674  s :     0.909674
      pz      :     0.022010  p :     0.086571
      px      :     0.021727
      py      :     0.042834
 80 H s       :     0.868412  s :     0.868412
      pz      :     0.039063  p :     0.084374
      px      :     0.030053
      py      :     0.015257
 81 H s       :     0.887198  s :     0.887198
      pz      :     0.037768  p :     0.083972
      px      :     0.016167
      py      :     0.030036
 82 H s       :     0.915419  s :     0.915419
      pz      :     0.022040  p :     0.086808
      px      :     0.031475
      py      :     0.033293
 83 H s       :     0.872926  s :     0.872926
      pz      :     0.039268  p :     0.084021
      px      :     0.015261
      py      :     0.029491
 84 H s       :     0.886939  s :     0.886939
      pz      :     0.035786  p :     0.083620
      px      :     0.031714
      py      :     0.016119
 85 H s       :     0.893367  s :     0.893367
      pz      :     0.022496  p :     0.079759
      px      :     0.014083
      py      :     0.043180
 86 H s       :     0.890850  s :     0.890850
      pz      :     0.024727  p :     0.078849
      px      :     0.032988
      py      :     0.021133
 87 H s       :     0.890119  s :     0.890119
      pz      :     0.047976  p :     0.078713
      px      :     0.015601
      py      :     0.015136
 88 H s       :     0.912481  s :     0.912481
      pz      :     0.021857  p :     0.086967
      px      :     0.042699
      py      :     0.022411
 89 H s       :     0.872241  s :     0.872241
      pz      :     0.037900  p :     0.083843
      px      :     0.030470
      py      :     0.015474


                      *****************************
                      * MAYER POPULATION ANALYSIS *
                      *****************************

  NA   - Mulliken gross atomic population
  ZA   - Total nuclear charge
  QA   - Mulliken gross atomic charge
  VA   - Mayer's total valence
  BVA  - Mayer's bonded valence
  FA   - Mayer's free valence

  ATOM       NA         ZA         QA         VA         BVA        FA
  0 C      5.7918     6.0000     0.2082     3.8341     3.8341    -0.0000
  1 N      7.4492     7.0000    -0.4492     3.3463     3.3463    -0.0000
  2 C      6.0629     6.0000    -0.0629     3.9195     3.9195    -0.0000
  3 N      7.3362     7.0000    -0.3362     3.4516     3.4516    -0.0000
  4 C      6.0536     6.0000    -0.0536     3.9874     3.9874    -0.0000
  5 N      7.5628     7.0000    -0.5628     3.0893     3.0893    -0.0000
  6 C      6.0902     6.0000    -0.0902     4.0064     4.0064     0.0000
  7 N      7.3388     7.0000    -0.3388     3.4385     3.4385     0.0000
  8 C      5.7966     6.0000     0.2034     3.8356     3.8356    -0.0000
  9 N      7.5629     7.0000    -0.5629     3.0810     3.0810     0.0000
 10 C      5.8825     6.0000     0.1175     3.9018     3.9018     0.0000
 11 N      7.4376     7.0000    -0.4376     3.3823     3.3823     0.0000
 12 C      6.0797     6.0000    -0.0797     3.9178     3.9178    -0.0000
 13 N      7.4354     7.0000    -0.4354     3.4005     3.4005     0.0000
 14 C      5.7560     6.0000     0.2440     3.7811     3.7811    -0.0000
 15 N      7.4410     7.0000    -0.4410     3.3713     3.3713    -0.0000
 16 C      5.7703     6.0000     0.2297     3.7867     3.7867    -0.0000
 17 C      6.0953     6.0000    -0.0953     4.0051     4.0051    -0.0000
 18 C      6.2145     6.0000    -0.2145     3.7700     3.7700    -0.0000
 19 C      5.7608     6.0000     0.2392     3.8601     3.8601    -0.0000
 20 C      5.7891     6.0000     0.2109     3.8271     3.8271    -0.0000
 21 C      6.0924     6.0000    -0.0924     3.9065     3.9065    -0.0000
 22 C      6.0889     6.0000    -0.0889     3.9831     3.9831     0.0000
 23 C      6.0443     6.0000    -0.0443     3.9914     3.9914     0.0000
 24 C      5.7998     6.0000     0.2002     3.8223     3.8223    -0.0000
 25 C      5.8859     6.0000     0.1141     3.8903     3.8903     0.0000
 26 C      6.0726     6.0000    -0.0726     3.9093     3.9093    -0.0000
 27 C      5.7831     6.0000     0.2169     3.8746     3.8746    -0.0000
 28 C      6.0568     6.0000    -0.0568     3.9880     3.9880    -0.0000
 29 C      6.1820     6.0000    -0.1820     3.7401     3.7401     0.0000
 30 C      5.7599     6.0000     0.2401     3.7965     3.7965     0.0000
 31 C      5.7805     6.0000     0.2195     3.8232     3.8232    -0.0000
 32 C      6.0638     6.0000    -0.0638     3.9202     3.9202    -0.0000
 33 C      6.0723     6.0000    -0.0723     3.9800     3.9800    -0.0000
 34 C      6.0504     6.0000    -0.0504     3.9885     3.9885    -0.0000
 35 C      5.7855     6.0000     0.2145     3.8217     3.8217    -0.0000
 36 C      5.8884     6.0000     0.1116     3.8843     3.8843    -0.0000
 37 C      6.0659     6.0000    -0.0659     3.9175     3.9175    -0.0000
 38 C      5.7654     6.0000     0.2346     3.7995     3.7995     0.0000
 39 C      6.0598     6.0000    -0.0598     3.9877     3.9877    -0.0000
 40 C      6.1858     6.0000    -0.1858     3.7352     3.7352     0.0000
 41 C      5.7768     6.0000     0.2232     3.8834     3.8834     0.0000
 42 C      5.7997     6.0000     0.2003     3.8269     3.8269     0.0000
 43 C      6.0729     6.0000    -0.0729     3.9017     3.9017    -0.0000
 44 C      6.0895     6.0000    -0.0895     3.9850     3.9850    -0.0000
 45 C      6.0565     6.0000    -0.0565     3.9928     3.9928    -0.0000
 46 C      5.7932     6.0000     0.2068     3.8270     3.8270    -0.0000
 47 C      5.8844     6.0000     0.1156     3.8935     3.8935     0.0000
 48 C      6.0710     6.0000    -0.0710     3.9067     3.9067    -0.0000
 49 C      5.7681     6.0000     0.2319     3.8883     3.8883     0.0000
 50 C      6.0501     6.0000    -0.0501     3.9905     3.9905    -0.0000
 51 C      6.1899     6.0000    -0.1899     3.7360     3.7360     0.0000
 52 H      0.9525     1.0000     0.0475     0.9856     0.9856    -0.0000
 53 H      1.0150     1.0000    -0.0150     0.9984     0.9984    -0.0000
 54 H      0.9527     1.0000     0.0473     1.0092     1.0092     0.0000
 55 H      0.9546     1.0000     0.0454     0.9864     0.9864    -0.0000
 56 H      0.9460     1.0000     0.0540     0.9705     0.9705    -0.0000
 57 H      0.9479     1.0000     0.0521     0.9835     0.9835     0.0000
 58 H      0.9484     1.0000     0.0516     0.9851     0.9851    -0.0000
 59 H      1.0049     1.0000    -0.0049     1.0016     1.0016     0.0000
 60 H      0.9494     1.0000     0.0506     1.0104     1.0104     0.0000
 61 H      0.8280     1.0000     0.1720     1.0422     1.0422    -0.0000
 62 H      0.8260     1.0000     0.1740     1.0435     1.0435     0.0000
 63 H      0.9437     1.0000     0.0563     0.9853     0.9853    -0.0000
 64 H      1.0121     1.0000    -0.0121     0.9975     0.9975    -0.0000
 65 H      0.9524     1.0000     0.0476     1.0091     1.0091     0.0000
 66 H      0.9429     1.0000     0.0571     0.9852     0.9852    -0.0000
 67 H      0.9373     1.0000     0.0627     0.9720     0.9720    -0.0000
 68 H      0.9420     1.0000     0.0580     0.9868     0.9868     0.0000
 69 H      0.9421     1.0000     0.0579     0.9829     0.9829     0.0000
 70 H      1.0265     1.0000    -0.0265     0.9937     0.9937    -0.0000
 71 H      0.9534     1.0000     0.0466     1.0064     1.0064    -0.0000
 72 H      0.9370     1.0000     0.0630     0.9844     0.9844    -0.0000
 73 H      1.0114     1.0000    -0.0114     0.9996     0.9996    -0.0000
 74 H      0.9473     1.0000     0.0527     1.0100     1.0100     0.0000
 75 H      0.9379     1.0000     0.0621     0.9848     0.9848    -0.0000
 76 H      0.9324     1.0000     0.0676     0.9719     0.9719     0.0000
 77 H      0.9376     1.0000     0.0624     0.9853     0.9853     0.0000
 78 H      0.9383     1.0000     0.0617     0.9850     0.9850     0.0000
 79 H      1.0150     1.0000    -0.0150     0.9986     0.9986    -0.0000
 80 H      0.9467     1.0000     0.0533     1.0071     1.0071    -0.0000
 81 H      0.9465     1.0000     0.0535     0.9856     0.9856     0.0000
 82 H      1.0240     1.0000    -0.0240     0.9939     0.9939     0.0000
 83 H      0.9575     1.0000     0.0425     1.0088     1.0088    -0.0000
 84 H      0.9464     1.0000     0.0536     0.9854     0.9854     0.0000
 85 H      0.9402     1.0000     0.0598     0.9716     0.9716    -0.0000
 86 H      0.9441     1.0000     0.0559     0.9840     0.9840    -0.0000
 87 H      0.9433     1.0000     0.0567     0.9856     0.9856    -0.0000
 88 H      1.0183     1.0000    -0.0183     0.9955     0.9955    -0.0000
 89 H      0.9553     1.0000     0.0447     1.0073     1.0073    -0.0000

  Mayer bond orders larger than 0.100000
B(  0-C ,  1-N ) :   1.1021 B(  0-C , 17-C ) :   1.6725 B(  0-C , 52-H ) :   0.9687 
B(  1-N ,  8-C ) :   1.0976 B(  1-N , 10-C ) :   0.9701 B(  2-C , 12-C ) :   1.5232 
B(  2-C , 16-C ) :   1.3398 B(  2-C , 53-H ) :   0.9769 B(  3-N , 14-C ) :   1.2113 
B(  3-N , 16-C ) :   1.1938 B(  3-N , 61-H ) :   0.8988 B(  4-C ,  6-C ) :   1.2347 
B(  4-C , 17-C ) :   1.2345 B(  4-C , 18-C ) :   1.3578 B(  5-N , 19-C ) :   1.4380 
B(  5-N , 27-C ) :   1.3902 B(  6-C ,  8-C ) :   1.6725 B(  6-C , 54-H ) :   0.9682 
B(  7-N , 30-C ) :   1.1947 B(  7-N , 38-C ) :   1.1968 B(  7-N , 62-H ) :   0.8976 
B(  8-C , 55-H ) :   0.9694 B(  9-N , 41-C ) :   1.4014 B(  9-N , 49-C ) :   1.4204 
B( 10-C , 56-H ) :   0.9766 B( 10-C , 57-H ) :   0.9821 B( 10-C , 58-H ) :   0.9841 
B( 11-N , 20-C ) :   1.1285 B( 11-N , 24-C ) :   1.1158 B( 11-N , 25-C ) :   0.9588 
B( 12-C , 14-C ) :   1.3411 B( 12-C , 59-H ) :   0.9747 B( 13-N , 31-C ) :   1.1401 
B( 13-N , 35-C ) :   1.1350 B( 13-N , 36-C ) :   0.9517 B( 14-C , 18-C ) :   1.1620 
B( 15-N , 42-C ) :   1.1116 B( 15-N , 46-C ) :   1.1182 B( 15-N , 47-C ) :   0.9620 
B( 16-C , 51-C ) :   1.1850 B( 17-C , 60-H ) :   0.9679 B( 18-C , 19-C ) :   1.1731 
B( 19-C , 21-C ) :   1.2252 B( 20-C , 28-C ) :   1.6248 B( 20-C , 63-H ) :   0.9702 
B( 21-C , 26-C ) :   1.6314 B( 21-C , 64-H ) :   0.9701 B( 22-C , 23-C ) :   1.2877 
B( 22-C , 28-C ) :   1.2702 B( 22-C , 29-C ) :   1.2235 B( 23-C , 24-C ) :   1.6179 
B( 23-C , 65-H ) :   0.9706 B( 24-C , 66-H ) :   0.9693 B( 25-C , 67-H ) :   0.9761 
B( 25-C , 68-H ) :   0.9828 B( 25-C , 69-H ) :   0.9822 B( 26-C , 27-C ) :   1.2226 
B( 26-C , 70-H ) :   0.9723 B( 27-C , 29-C ) :   1.2261 B( 28-C , 71-H ) :   0.9717 
B( 29-C , 30-C ) :   1.2237 B( 30-C , 32-C ) :   1.2995 B( 31-C , 39-C ) :   1.6122 
B( 31-C , 72-H ) :   0.9690 B( 32-C , 37-C ) :   1.5591 B( 32-C , 73-H ) :   0.9782 
B( 33-C , 34-C ) :   1.2894 B( 33-C , 39-C ) :   1.2833 B( 33-C , 40-C ) :   1.2169 
B( 34-C , 35-C ) :   1.6091 B( 34-C , 74-H ) :   0.9701 B( 35-C , 75-H ) :   0.9690 
B( 36-C , 76-H ) :   0.9765 B( 36-C , 77-H ) :   0.9819 B( 36-C , 78-H ) :   0.9828 
B( 37-C , 38-C ) :   1.3022 B( 37-C , 79-H ) :   0.9772 B( 38-C , 40-C ) :   1.2179 
B( 39-C , 80-H ) :   0.9711 B( 40-C , 41-C ) :   1.2335 B( 41-C , 43-C ) :   1.2005 
B( 42-C , 50-C ) :   1.6338 B( 42-C , 81-H ) :   0.9697 B( 43-C , 48-C ) :   1.6514 
B( 43-C , 82-H ) :   0.9730 B( 44-C , 45-C ) :   1.2671 B( 44-C , 50-C ) :   1.2690 
B( 44-C , 51-C ) :   1.2584 B( 45-C , 46-C ) :   1.6341 B( 45-C , 83-H ) :   0.9715 
B( 46-C , 84-H ) :   0.9701 B( 47-C , 85-H ) :   0.9761 B( 47-C , 86-H ) :   0.9829 
B( 47-C , 87-H ) :   0.9825 B( 48-C , 49-C ) :   1.2022 B( 48-C , 88-H ) :   0.9743 
B( 49-C , 51-C ) :   1.2299 B( 50-C , 89-H ) :   0.9712 

-------
TIMINGS
-------

Total SCF time: 0 days 0 hours 28 min 18 sec 

Total time                  ....    1698.197 sec
Sum of individual times     ....    1693.382 sec  ( 99.7%)

Fock matrix formation       ....    1665.683 sec  ( 98.1%)
Diagonalization             ....       8.751 sec  (  0.5%)
Density matrix formation    ....       0.545 sec  (  0.0%)
Population analysis         ....       0.589 sec  (  0.0%)
Initial guess               ....       2.517 sec  (  0.1%)
Orbital Transformation      ....       0.000 sec  (  0.0%)
Orbital Orthonormalization  ....       0.000 sec  (  0.0%)
DIIS solution               ....       3.986 sec  (  0.2%)
SOSCF solution              ....      10.015 sec  (  0.6%)

Maximum memory used throughout the entire SCF-calculation: 302.6 MB


           ************************************************************
           *        Program running with 16 parallel MPI-processes    *
           *              working on a common directory               *
           ************************************************************

------------------------------------------------------------------------------
                                ORCA  MP2 
------------------------------------------------------------------------------

Freezing NCore=104 chemical core electrons

----------
MP2 ENERGY (disk based algorithm)
----------

Dimension of the basis                    ...  918
Memory devoted to MP2                     ... 2000 MB   
Data format for buffers                   ... DOUBLE
Compression type for matrix containers    ... UNCOMPRESSED

-------------------------------
PARTIAL EXCHANGE TRANSFORMATION
-------------------------------

Transformation type                        ... one-operator
Generation of integrals (i,mue|j,nue)      ... ON
Generation of integrals (mue,kappa|nue,tau)... OFF
Generation of integrals (i,mue|a,nue)      ... OFF
Dimension of the basis                     ...  918
Number of internal MOs                     ...  127 (  52- 178)
Pair cutoff                                ... 2.500e-12 Eh
Number of AO pairs in the trafo            ... 421821
Total Number of distinct AO pairs          ... 421821
Memory devoted for trafo                   ... 2000.0 MB 
Max. Number of MO pairs treated together   ...  311      
Number Format for Storage                  ... Double (8 Byte)
Integral package used                      ... LIBINT

Starting integral evaluation:
    ... done with AO integral generation
Closing buffer AOK     (38.27 GB; CompressionRatio= 1.32)
Collecting buffer AOK 
Number of MO pairs included in the trafo   ... 8128
------------------------
SORTING OF (i,mue|j,nue)
------------------------

IBATCH = 1 of  2
IBATCH = 2 of  2
Closing buffer KAO     (51.03 GB; CompressionRatio= 1.00)
Collecting buffer KAO 
N(AO-Batches) Done                         ...  85674212 
N(AO-Batches) Skipped                      ...  82221503 
N(IJ)-pairs Skipped                        ...         0 
TOTAL TIME for half transformation         ...  2794.137 sec
AO-integral generation                     ...   209.922 sec
Half transformation                        ...   425.593 sec
K-integral sorting                         ...  1941.466 sec

Finished integral transformation - now doing MP2 part

OPERATOR COMBINATION   0   0: ij=( 52..178, 52..178)
Process 10:   Internal MO 132
Process 13:   Internal MO 156
Process  7:   Internal MO 108
Process  1:   Internal MO  60
Process  4:   Internal MO  84
Process  0:   Internal MO  54
Process  0:   Internal MO  57
Process  1:   Internal MO  63
Process  5:   Internal MO  93
Process  3:   Internal MO  78
Process  2:   Internal MO  69
Process  1:   Internal MO  66
Process  8:   Internal MO 117
Process 11:   Internal MO 141
Process  2:   Internal MO  72
Process 14:   Internal MO 165
Process  4:   Internal MO  87
Process  9:   Internal MO 126
Process  6:   Internal MO 102
Process  2:   Internal MO  75
Process  3:   Internal MO  81
Process  7:   Internal MO 111
Process 12:   Internal MO 150
Process  5:   Internal MO  96
Process 10:   Internal MO 135
Process  4:   Internal MO  90
Process 15:   Internal MO 174
Process  8:   Internal MO 120
Process  6:   Internal MO 105
Process  7:   Internal MO 114
Process  9:   Internal MO 129
Process  5:   Internal MO  99
Process 13:   Internal MO 159
Process 11:   Internal MO 144
Process 12:   Internal MO 153
Process 14:   Internal MO 168
Process 10:   Internal MO 138
Process  8:   Internal MO 123
Process 15:   Internal MO 177
Process 11:   Internal MO 147
Process 13:   Internal MO 162
Process 14:   Internal MO 171
-----------------------------------------------
 MP2 CORRELATION ENERGY   :     -7.287336924 Eh
-----------------------------------------------


-------
TIMINGS
-------
Total time                : 3130.393 sec
Integral trafo            : 2796.924 sec ( 89.3%)
K(i,j)                    :    6.907 sec (  0.2%)
T(i,j)                    :    0.084 sec (  0.0%)

---------------------------------------
MP2 TOTAL ENERGY:    -2130.911784590 Eh
---------------------------------------

Maximum memory used throughout the entire MP2-calculation: 2275.2 MB

-------------------------   --------------------
FINAL SINGLE POINT ENERGY     -2130.911784590492
-------------------------   --------------------


                            ***************************************
                            *     ORCA property calculations      *
                            ***************************************


  WARNING: The energy has been calculated at the MP2 level but the densities
           used in the property calculations are still SCF densities
           MP2 response densities have not been calculated 
           use %mp2 Density relaxed end
           or  %mp2 Density unrelaxed end

                                    ---------------------
                                    Active property flags
                                    ---------------------
   (+) Dipole Moment


------------------------------------------------------------------------------
                       ORCA ELECTRIC PROPERTIES CALCULATION
------------------------------------------------------------------------------

Dipole Moment Calculation                       ... on
Quadrupole Moment Calculation                   ... off
Polarizability Calculation                      ... off
GBWName                                         ... /scratch/allen/tmpyp4_amber_gaff2/conf1/conf1/Conf229.orca.gbw
Electron density                                ... /scratch/allen/tmpyp4_amber_gaff2/conf1/conf1/Conf229.orca.scfp
The origin for moment calculation is the CENTER OF MASS  = ( 0.002011, -0.002679 -0.001452)

-------------
DIPOLE MOMENT
-------------
                                X             Y             Z
Electronic contribution:      0.97172      -2.42959      -0.13178
Nuclear contribution   :      0.07934       0.23897       0.13992
                        -----------------------------------------
Total Dipole Moment    :      1.05105      -2.19062       0.00814
                        -----------------------------------------
Magnitude (a.u.)       :      2.42973
Magnitude (Debye)      :      6.17588



--------------------
Rotational spectrum 
--------------------
 
Rotational constants in cm-1:     0.001499     0.001476     0.000761 
Rotational constants in MHz :    44.944181    44.250467    22.827149 

 Dipole components along the rotational axes: 
x,y,z [a.u.] :     1.654642    -1.779244     0.005973 
x,y,z [Debye]:     4.205765    -4.522479     0.015183 

 

Timings for individual modules:

Sum of individual times         ...     4852.662 sec (=  80.878 min)
GTO integral calculation        ...        3.516 sec (=   0.059 min)   0.1 %
SCF iterations                  ...     1699.428 sec (=  28.324 min)  35.0 %
MP2 module                      ...     3149.717 sec (=  52.495 min)  64.9 %
                             ****ORCA TERMINATED NORMALLY****
TOTAL RUN TIME: 0 days 1 hours 20 minutes 56 seconds 125 msec
# of primitive gaussian functions

