
                                 *****************
                                 * O   R   C   A *
                                 *****************

                                            #,                                       
                                            ###                                      
                                            ####                                     
                                            #####                                    
                                            ######                                   
                                           ########,                                 
                                     ,,################,,,,,                         
                               ,,#################################,,                 
                          ,,##########################################,,             
                       ,#########################################, ''#####,          
                    ,#############################################,,   '####,        
                  ,##################################################,,,,####,       
                ,###########''''           ''''###############################       
              ,#####''   ,,,,##########,,,,          '''####'''          '####       
            ,##' ,,,,###########################,,,                        '##       
           ' ,,###''''                  '''############,,,                           
         ,,##''                                '''############,,,,        ,,,,,,###''
      ,#''                                            '''#######################'''  
     '                                                          ''''####''''         
             ,#######,   #######,   ,#######,      ##                                
            ,#'     '#,  ##    ##  ,#'     '#,    #''#        ######   ,####,        
            ##       ##  ##   ,#'  ##            #'  '#       #        #'  '#        
            ##       ##  #######   ##           ,######,      #####,   #    #        
            '#,     ,#'  ##    ##  '#,     ,#' ,#      #,         ##   #,  ,#        
             '#######'   ##     ##  '#######'  #'      '#     #####' # '####'        



                  #######################################################
                  #                        -***-                        #
                  #          Department of theory and spectroscopy      #
                  #    Directorship and core code : Frank Neese         #
                  #        Max Planck Institute fuer Kohlenforschung    #
                  #                Kaiser Wilhelm Platz 1               #
                  #                 D-45470 Muelheim/Ruhr               #
                  #                      Germany                        #
                  #                                                     #
                  #                  All rights reserved                #
                  #                        -***-                        #
                  #######################################################


                         Program Version 5.0.4 -  RELEASE  -


 With contributions from (in alphabetic order):
   Daniel Aravena         : Magnetic Suceptibility
   Michael Atanasov       : Ab Initio Ligand Field Theory (pilot matlab implementation)
   Alexander A. Auer      : GIAO ZORA, VPT2 properties, NMR spectrum
   Ute Becker             : Parallelization
   Giovanni Bistoni       : ED, misc. LED, open-shell LED, HFLD
   Martin Brehm           : Molecular dynamics
   Dmytro Bykov           : SCF Hessian
   Vijay G. Chilkuri      : MRCI spin determinant printing, contributions to CSF-ICE
   Dipayan Datta          : RHF DLPNO-CCSD density
   Achintya Kumar Dutta   : EOM-CC, STEOM-CC
   Dmitry Ganyushin       : Spin-Orbit,Spin-Spin,Magnetic field MRCI
   Miquel Garcia          : C-PCM and meta-GGA Hessian, CC/C-PCM, Gaussian charge scheme
   Yang Guo               : DLPNO-NEVPT2, F12-NEVPT2, CIM, IAO-localization
   Andreas Hansen         : Spin unrestricted coupled pair/coupled cluster methods
   Benjamin Helmich-Paris : MC-RPA, TRAH-SCF, COSX integrals
   Lee Huntington         : MR-EOM, pCC
   Robert Izsak           : Overlap fitted RIJCOSX, COSX-SCS-MP3, EOM
   Marcus Kettner         : VPT2
   Christian Kollmar      : KDIIS, OOCD, Brueckner-CCSD(T), CCSD density, CASPT2, CASPT2-K
   Simone Kossmann        : Meta GGA functionals, TD-DFT gradient, OOMP2, MP2 Hessian
   Martin Krupicka        : Initial AUTO-CI
   Lucas Lang             : DCDCAS
   Marvin Lechner         : AUTO-CI (C++ implementation), FIC-MRCC
   Dagmar Lenk            : GEPOL surface, SMD
   Dimitrios Liakos       : Extrapolation schemes; Compound Job, initial MDCI parallelization
   Dimitrios Manganas     : Further ROCIS development; embedding schemes
   Dimitrios Pantazis     : SARC Basis sets
   Anastasios Papadopoulos: AUTO-CI, single reference methods and gradients
   Taras Petrenko         : DFT Hessian,TD-DFT gradient, ASA, ECA, R-Raman, ABS, FL, XAS/XES, NRVS
   Peter Pinski           : DLPNO-MP2, DLPNO-MP2 Gradient
   Christoph Reimann      : Effective Core Potentials
   Marius Retegan         : Local ZFS, SOC
   Christoph Riplinger    : Optimizer, TS searches, QM/MM, DLPNO-CCSD(T), (RO)-DLPNO pert. Triples
   Tobias Risthaus        : Range-separated hybrids, TD-DFT gradient, RPA, STAB
   Michael Roemelt        : Original ROCIS implementation
   Masaaki Saitow         : Open-shell DLPNO-CCSD energy and density
   Barbara Sandhoefer     : DKH picture change effects
   Avijit Sen             : IP-ROCIS
   Kantharuban Sivalingam : CASSCF convergence, NEVPT2, FIC-MRCI
   Bernardo de Souza      : ESD, SOC TD-DFT
   Georgi Stoychev        : AutoAux, RI-MP2 NMR, DLPNO-MP2 response
   Willem Van den Heuvel  : Paramagnetic NMR
   Boris Wezisla          : Elementary symmetry handling
   Frank Wennmohs         : Technical directorship


 We gratefully acknowledge several colleagues who have allowed us to
 interface, adapt or use parts of their codes:
   Stefan Grimme, W. Hujo, H. Kruse, P. Pracht,  : VdW corrections, initial TS optimization,
                  C. Bannwarth, S. Ehlert          DFT functionals, gCP, sTDA/sTD-DF
   Ed Valeev, F. Pavosevic, A. Kumar             : LibInt (2-el integral package), F12 methods
   Garnet Chan, S. Sharma, J. Yang, R. Olivares  : DMRG
   Ulf Ekstrom                                   : XCFun DFT Library
   Mihaly Kallay                                 : mrcc  (arbitrary order and MRCC methods)
   Jiri Pittner, Ondrej Demel                    : Mk-CCSD
   Frank Weinhold                                : gennbo (NPA and NBO analysis)
   Christopher J. Cramer and Donald G. Truhlar   : smd solvation model
   Lars Goerigk                                  : TD-DFT with DH, B97 family of functionals
   V. Asgeirsson, H. Jonsson                     : NEB implementation
   FAccTs GmbH                                   : IRC, NEB, NEB-TS, DLPNO-Multilevel, CI-OPT
                                                   MM, QMMM, 2- and 3-layer-ONIOM, Crystal-QMMM,
                                                   LR-CPCM, SF, NACMEs, symmetry and pop. for TD-DFT,
                                                   nearIR, NL-DFT gradient (VV10), updates on ESD,
                                                   ML-optimized integration grids
   S Lehtola, MJT Oliveira, MAL Marques          : LibXC Library
   Liviu Ungur et al                             : ANISO software


 Your calculation uses the libint2 library for the computation of 2-el integrals
 For citations please refer to: http://libint.valeyev.net

 Your ORCA version has been built with support for libXC version: 5.1.0
 For citations please refer to: https://tddft.org/programs/libxc/

 This ORCA versions uses:
   CBLAS   interface :  Fast vector & matrix operations
   LAPACKE interface :  Fast linear algebra routines
   SCALAPACK package :  Parallel linear algebra routines
   Shared memory     :  Shared parallel matrices
   BLAS/LAPACK       :  OpenBLAS 0.3.15  USE64BITINT DYNAMIC_ARCH NO_AFFINITY Sandybridge SINGLE_THREADED
        Core in use  :  Sandybridge
   Copyright (c) 2011-2014, The OpenBLAS Project


================================================================================

----- Orbital basis set information -----
Your calculation utilizes the basis: cc-pVDZ 
       H, B-Ne : Obtained from the ccRepo (grant-hill.group.shef.ac.uk/ccrepo) Feb. 2017
                 T. H. Dunning, Jr., J. Chem. Phys. 90, 1007 (1989)
            He : Obtained from the ccRepo (grant-hill.group.shef.ac.uk/ccrepo) Feb. 2017
                 D. E. Woon, T. H. Dunning, Jr., J. Chem. Phys. 100, 2975 (1994)
  Li-Be, Na-Mg : Obtained from the ccRepo (grant-hill.group.shef.ac.uk/ccrepo) Feb. 2017
                 B. P. Prascher, D. E. Woon, K. A. Peterson, T. H. Dunning, Jr., A. K. Wilson, Theor. Chem. Acc. 128, 69 (2011)
         Al-Ar : Obtained from the ccRepo (grant-hill.group.shef.ac.uk/ccrepo) Feb. 2017
                 D. E. Woon, T. H. Dunning, Jr., J. Chem. Phys. 98, 1358 (1993)
            Ca : Obtained from the Peterson Research Group Website (tyr0.chem.wsu.edu/~kipeters) Feb. 2017
                 J. Koput, K. A. Peterson, J. Phys. Chem. 106, 9595 (2002)
         Sc-Zn : Obtained from the ccRepo (grant-hill.group.shef.ac.uk/ccrepo) Feb. 2017
                 N. B. Balabanov, K. A. Peterson, J. Chem. Phys. 123, 064107 (2005)
                 N. B. Balabanov, K. A. Peterson, J. Chem. Phys. 125, 074110 (2006)
         Ga-Kr : Obtained from the ccRepo (grant-hill.group.shef.ac.uk/ccrepo) Feb. 2017
                 A. K. Wilson, D. E. Woon, K. A. Peterson, T. H. Dunning, Jr., J. Chem. Phys. 110, 7667 (1999)

================================================================================
                                        WARNINGS
                       Please study these warnings very carefully!
================================================================================


WARNING: No MP2 level density has been requested!
         To caclulate MP2 level properties use
         %mp2 Density relaxed end
         or
         %mp2 Density unrelaxed end

WARNING: Post HF methods need fully converged wavefunctions
  ===> : Setting SCFConvForced true
         You can overwrite this default with %scf ConvForced false 


INFO   : the flag for use of the SHARK integral package has been found!

================================================================================
                                       INPUT FILE
================================================================================
NAME = /scratch/allen/tmpyp4_amber_gaff2/2.Mdgx/conf11/conf11/Conf21.orca
|  1> ! PAL2
|  2> ! mp2 cc-pvdz TightSCF  NoKeepInts
|  3> 
|  4> %scf
|  5>   MaxCore 2000
|  6> end
|  7> %mp2
|  8>   MaxCore 2000
|  9> end
| 10> * xyz 0 1
| 11>    C       -3.08600         6.46700        -0.28100
| 12>    C        1.47400         4.04100         0.05700
| 13>    C       -2.80200         4.09300         0.04900
| 14>    C       -4.14500         4.04100         0.45400
| 15>    C       -4.90800         5.19100         0.47600
| 16>    C       -5.23100         7.59000         0.11400
| 17>    C        0.13200         4.30700         0.06100
| 18>    C       -0.56900         3.05600         0.04700
| 19>    C        1.64900         2.61800         0.02300
| 20>    C       -2.28400         5.34300        -0.32500
| 21>    N       -4.37600         6.38200         0.11600
| 22>    N        0.38800         2.06700         0.02500
| 23>    N       -2.01000         0.39500        -0.07500
| 24>    N       -0.38800        -2.07400        -0.02700
| 25>    N        2.01000        -0.40100         0.06500
| 26>    C       -1.96000         2.86100         0.02400
| 27>    C       -2.62300         1.61500        -0.01800
| 28>    C       -5.57300        -4.32900         1.06600
| 29>    C       -4.07300         1.47100         0.05600
| 30>    C       -4.10600        -2.75600        -0.02600
| 31>    C       -4.99500        -2.75700        -1.11100
| 32>    C       -6.13200        -3.54200        -1.07600
| 33>    C       -7.65100        -5.11300         0.04000
| 34>    C       -4.32400         0.14100         0.03700
| 35>    C       -3.02500        -0.52000        -0.04800
| 36>    C       -4.42200        -3.56600         1.07500
| 37>    N       -6.40700        -4.31300         0.00100
| 38>    C       -2.86700        -1.92200        -0.04000
| 39>    C       -1.65000        -2.62400        -0.02700
| 40>    C        3.56800        -6.14200        -1.04000
| 41>    C       -1.47600        -4.04900        -0.03400
| 42>    C        2.80300        -4.09900        -0.00800
| 43>    C        3.65700        -4.38400         1.06900
| 44>    C        4.42700        -5.53000         1.05900
| 45>    C        5.24500        -7.58800         0.01400
| 46>    C       -0.13400        -4.31500        -0.02200
| 47>    C        0.56800        -3.06400        -0.02700
| 48>    C        2.77500        -5.01200        -1.07400
| 49>    N        4.37600        -6.39100         0.01700
| 50>    C        1.95900        -2.86900        -0.00900
| 51>    C        2.62100        -1.62200         0.00900
| 52>    C        5.54300         4.33900        -1.13000
| 53>    C        4.07000        -1.47900        -0.09400
| 54>    C        4.10400         2.75100        -0.02100
| 55>    C        5.02700         2.72900         1.03600
| 56>    C        6.16600         3.50900         0.97800
| 57>    C        7.61900         5.15300        -0.11500
| 58>    C        4.32100        -0.14800        -0.09200
| 59>    C        3.02500         0.51400         0.01500
| 60>    C        4.38700         3.58200        -1.11500
| 61>    C        2.86600         1.91600         0.01300
| 62>    N        6.41300         4.29600        -0.09500
| 63>    H       -2.72500         7.45300        -0.54800
| 64>    H        2.27400         4.76600         0.08100
| 65>    H       -4.60400         3.10400         0.74500
| 66>    H       -5.94900         5.19900         0.77300
| 67>    H       -5.75500         7.65300        -0.84200
| 68>    H       -5.94800         7.51400         0.93100
| 69>    H       -4.59800         8.46700         0.25200
| 70>    H       -0.33200         5.28200         0.06900
| 71>    H       -1.25100         5.45100        -0.63400
| 72>    H        0.18200         1.07200         0.00500
| 73>    H       -0.18300        -1.08000        -0.02100
| 74>    H       -5.86400        -4.96200         1.89500
| 75>    H       -4.79400         2.27200         0.13900
| 76>    H       -4.80000        -2.16000        -1.99400
| 77>    H       -6.84100        -3.58200        -1.89300
| 78>    H       -8.42800        -4.53600         0.54600
| 79>    H       -7.95600        -5.33700        -0.98100
| 80>    H       -7.45600        -6.03700         0.58400
| 81>    H       -5.28700        -0.34400         0.10000
| 82>    H       -3.78000        -3.60100         1.94700
| 83>    H        3.58700        -6.86800        -1.84300
| 84>    H       -2.27600        -4.77400        -0.05000
| 85>    H        3.71400        -3.72400         1.92600
| 86>    H        5.09200        -5.79500         1.87100
| 87>    H        6.20500        -7.32900        -0.43900
| 88>    H        5.39300        -7.91700         1.04200
| 89>    H        4.75900        -8.37300        -0.56400
| 90>    H        0.32900        -5.29000        -0.00800
| 91>    H        2.14600        -4.84200        -1.94000
| 92>    H        5.80800         4.98600        -1.95600
| 93>    H        4.78800        -2.28100        -0.18500
| 94>    H        4.86000         2.11400         1.91200
| 95>    H        6.90100         3.53100         1.77200
| 96>    H        7.38300         6.10900         0.35600
| 97>    H        8.41400         4.65200         0.43500
| 98>    H        7.92100         5.31000        -1.15000
| 99>    H        5.28300         0.33600        -0.17900
|100>    H        3.72000         3.63200        -1.96700
|101> *
|102> 
|103>                          ****END OF INPUT****
================================================================================

                       ****************************
                       * Single Point Calculation *
                       ****************************

---------------------------------
CARTESIAN COORDINATES (ANGSTROEM)
---------------------------------
  C     -3.086000    6.467000   -0.281000
  C      1.474000    4.041000    0.057000
  C     -2.802000    4.093000    0.049000
  C     -4.145000    4.041000    0.454000
  C     -4.908000    5.191000    0.476000
  C     -5.231000    7.590000    0.114000
  C      0.132000    4.307000    0.061000
  C     -0.569000    3.056000    0.047000
  C      1.649000    2.618000    0.023000
  C     -2.284000    5.343000   -0.325000
  N     -4.376000    6.382000    0.116000
  N      0.388000    2.067000    0.025000
  N     -2.010000    0.395000   -0.075000
  N     -0.388000   -2.074000   -0.027000
  N      2.010000   -0.401000    0.065000
  C     -1.960000    2.861000    0.024000
  C     -2.623000    1.615000   -0.018000
  C     -5.573000   -4.329000    1.066000
  C     -4.073000    1.471000    0.056000
  C     -4.106000   -2.756000   -0.026000
  C     -4.995000   -2.757000   -1.111000
  C     -6.132000   -3.542000   -1.076000
  C     -7.651000   -5.113000    0.040000
  C     -4.324000    0.141000    0.037000
  C     -3.025000   -0.520000   -0.048000
  C     -4.422000   -3.566000    1.075000
  N     -6.407000   -4.313000    0.001000
  C     -2.867000   -1.922000   -0.040000
  C     -1.650000   -2.624000   -0.027000
  C      3.568000   -6.142000   -1.040000
  C     -1.476000   -4.049000   -0.034000
  C      2.803000   -4.099000   -0.008000
  C      3.657000   -4.384000    1.069000
  C      4.427000   -5.530000    1.059000
  C      5.245000   -7.588000    0.014000
  C     -0.134000   -4.315000   -0.022000
  C      0.568000   -3.064000   -0.027000
  C      2.775000   -5.012000   -1.074000
  N      4.376000   -6.391000    0.017000
  C      1.959000   -2.869000   -0.009000
  C      2.621000   -1.622000    0.009000
  C      5.543000    4.339000   -1.130000
  C      4.070000   -1.479000   -0.094000
  C      4.104000    2.751000   -0.021000
  C      5.027000    2.729000    1.036000
  C      6.166000    3.509000    0.978000
  C      7.619000    5.153000   -0.115000
  C      4.321000   -0.148000   -0.092000
  C      3.025000    0.514000    0.015000
  C      4.387000    3.582000   -1.115000
  C      2.866000    1.916000    0.013000
  N      6.413000    4.296000   -0.095000
  H     -2.725000    7.453000   -0.548000
  H      2.274000    4.766000    0.081000
  H     -4.604000    3.104000    0.745000
  H     -5.949000    5.199000    0.773000
  H     -5.755000    7.653000   -0.842000
  H     -5.948000    7.514000    0.931000
  H     -4.598000    8.467000    0.252000
  H     -0.332000    5.282000    0.069000
  H     -1.251000    5.451000   -0.634000
  H      0.182000    1.072000    0.005000
  H     -0.183000   -1.080000   -0.021000
  H     -5.864000   -4.962000    1.895000
  H     -4.794000    2.272000    0.139000
  H     -4.800000   -2.160000   -1.994000
  H     -6.841000   -3.582000   -1.893000
  H     -8.428000   -4.536000    0.546000
  H     -7.956000   -5.337000   -0.981000
  H     -7.456000   -6.037000    0.584000
  H     -5.287000   -0.344000    0.100000
  H     -3.780000   -3.601000    1.947000
  H      3.587000   -6.868000   -1.843000
  H     -2.276000   -4.774000   -0.050000
  H      3.714000   -3.724000    1.926000
  H      5.092000   -5.795000    1.871000
  H      6.205000   -7.329000   -0.439000
  H      5.393000   -7.917000    1.042000
  H      4.759000   -8.373000   -0.564000
  H      0.329000   -5.290000   -0.008000
  H      2.146000   -4.842000   -1.940000
  H      5.808000    4.986000   -1.956000
  H      4.788000   -2.281000   -0.185000
  H      4.860000    2.114000    1.912000
  H      6.901000    3.531000    1.772000
  H      7.383000    6.109000    0.356000
  H      8.414000    4.652000    0.435000
  H      7.921000    5.310000   -1.150000
  H      5.283000    0.336000   -0.179000
  H      3.720000    3.632000   -1.967000

----------------------------
CARTESIAN COORDINATES (A.U.)
----------------------------
  NO LB      ZA    FRAG     MASS         X           Y           Z
   0 C     6.0000    0    12.011   -5.831695   12.220859   -0.531013
   1 C     6.0000    0    12.011    2.785456    7.636383    0.107714
   2 C     6.0000    0    12.011   -5.295013    7.734649    0.092597
   3 C     6.0000    0    12.011   -7.832915    7.636383    0.857936
   4 C     6.0000    0    12.011   -9.274776    9.809568    0.899510
   5 C     6.0000    0    12.011   -9.885157   14.343021    0.215429
   6 C     6.0000    0    12.011    0.249444    8.139050    0.115273
   7 C     6.0000    0    12.011   -1.075254    5.775003    0.088817
   8 C     6.0000    0    12.011    3.116158    4.947303    0.043464
   9 C     6.0000    0    12.011   -4.316134   10.096807   -0.614161
  10 N     7.0000    0    14.007   -8.269442   12.060232    0.219208
  11 N     7.0000    0    14.007    0.733214    3.906064    0.047243
  12 N     7.0000    0    14.007   -3.798350    0.746442   -0.141729
  13 N     7.0000    0    14.007   -0.733214   -3.919292   -0.051023
  14 N     7.0000    0    14.007    3.798350   -0.757780    0.122832
  15 C     6.0000    0    12.011   -3.703863    5.406506    0.045353
  16 C     6.0000    0    12.011   -4.956752    3.051908   -0.034015
  17 C     6.0000    0    12.011  -10.531444   -8.180624    2.014448
  18 C     6.0000    0    12.011   -7.696855    2.779787    0.105825
  19 C     6.0000    0    12.011   -7.759216   -5.208085   -0.049133
  20 C     6.0000    0    12.011   -9.439182   -5.209975   -2.099486
  21 C     6.0000    0    12.011  -11.587801   -6.693410   -2.033345
  22 C     6.0000    0    12.011  -14.458295   -9.662170    0.075589
  23 C     6.0000    0    12.011   -8.171176    0.266451    0.069920
  24 C     6.0000    0    12.011   -5.716422   -0.982658   -0.090707
  25 C     6.0000    0    12.011   -8.356369   -6.738763    2.031456
  26 N     7.0000    0    14.007  -12.107475   -8.150389    0.001890
  27 C     6.0000    0    12.011   -5.417845   -3.632054   -0.075589
  28 C     6.0000    0    12.011   -3.118048   -4.958641   -0.051023
  29 C     6.0000    0    12.011    6.742543  -11.606698   -1.965315
  30 C     6.0000    0    12.011   -2.789236   -7.651501   -0.064251
  31 C     6.0000    0    12.011    5.296902   -7.745987   -0.015118
  32 C     6.0000    0    12.011    6.910728   -8.284559    2.020117
  33 C     6.0000    0    12.011    8.365818  -10.450186    2.001220
  34 C     6.0000    0    12.011    9.911614  -14.339242    0.026456
  35 C     6.0000    0    12.011   -0.253223   -8.154168   -0.041574
  36 C     6.0000    0    12.011    1.073364   -5.790121   -0.051023
  37 C     6.0000    0    12.011    5.243990   -9.471307   -2.029566
  38 N     7.0000    0    14.007    8.269442  -12.077240    0.032125
  39 C     6.0000    0    12.011    3.701973   -5.421624   -0.017008
  40 C     6.0000    0    12.011    4.952972   -3.065136    0.017008
  41 C     6.0000    0    12.011   10.474752    8.199522   -2.135391
  42 C     6.0000    0    12.011    7.691185   -2.794905   -0.177634
  43 C     6.0000    0    12.011    7.755436    5.198637   -0.039684
  44 C     6.0000    0    12.011    9.499653    5.157063    1.957756
  45 C     6.0000    0    12.011   11.652051    6.631049    1.848152
  46 C     6.0000    0    12.011   14.397823    9.737759   -0.217319
  47 C     6.0000    0    12.011    8.165507   -0.279679   -0.173855
  48 C     6.0000    0    12.011    5.716422    0.971319    0.028346
  49 C     6.0000    0    12.011    8.290229    6.768999   -2.107045
  50 C     6.0000    0    12.011    5.415955    3.620715    0.024566
  51 N     7.0000    0    14.007   12.118814    8.118263   -0.179524
  52 H     1.0000    0     1.008   -5.149504   14.084129   -1.035570
  53 H     1.0000    0     1.008    4.297237    9.006435    0.153068
  54 H     1.0000    0     1.008   -8.700299    5.865710    1.407846
  55 H     1.0000    0     1.008  -11.241981    9.824686    1.460758
  56 H     1.0000    0     1.008  -10.875374   14.462074   -1.591149
  57 H     1.0000    0     1.008  -11.240091   14.199402    1.759335
  58 H     1.0000    0     1.008   -8.688961   16.000311    0.476211
  59 H     1.0000    0     1.008   -0.627389    9.981533    0.130391
  60 H     1.0000    0     1.008   -2.364047   10.300897   -1.198086
  61 H     1.0000    0     1.008    0.343930    2.025786    0.009449
  62 H     1.0000    0     1.008   -0.345820   -2.040904   -0.039684
  63 H     1.0000    0     1.008  -11.081354   -9.376821    3.581031
  64 H     1.0000    0     1.008   -9.059347    4.293458    0.262672
  65 H     1.0000    0     1.008   -9.070685   -4.081808   -3.768114
  66 H     1.0000    0     1.008  -12.927616   -6.768999   -3.577252
  67 H     1.0000    0     1.008  -15.926612   -8.571798    1.031790
  68 H     1.0000    0     1.008  -15.034661  -10.085468   -1.853821
  69 H     1.0000    0     1.008  -14.089798  -11.408277    1.103600
  70 H     1.0000    0     1.008   -9.990982   -0.650066    0.188973
  71 H     1.0000    0     1.008   -7.143165   -6.804904    3.679297
  72 H     1.0000    0     1.008    6.778448  -12.978639   -3.482765
  73 H     1.0000    0     1.008   -4.301017   -9.021553   -0.094486
  74 H     1.0000    0     1.008    7.018443   -7.037340    3.639613
  75 H     1.0000    0     1.008    9.622485  -10.950963    3.535678
  76 H     1.0000    0     1.008   11.725751  -13.849803   -0.829590
  77 H     1.0000    0     1.008   10.191293  -14.960962    1.969095
  78 H     1.0000    0     1.008    8.993207  -15.822677   -1.065806
  79 H     1.0000    0     1.008    0.621720   -9.996651   -0.015118
  80 H     1.0000    0     1.008    4.055352   -9.150054   -3.666069
  81 H     1.0000    0     1.008   10.975529    9.422175   -3.696304
  82 H     1.0000    0     1.008    9.048009   -4.310465   -0.349599
  83 H     1.0000    0     1.008    9.184069    3.994881    3.613156
  84 H     1.0000    0     1.008   13.041000    6.672623    3.348595
  85 H     1.0000    0     1.008   13.951848   11.544337    0.672743
  86 H     1.0000    0     1.008   15.900156    8.791006    0.822031
  87 H     1.0000    0     1.008   14.968521   10.034446   -2.173185
  88 H     1.0000    0     1.008    9.983423    0.634948   -0.338261
  89 H     1.0000    0     1.008    7.029781    6.863485   -3.717091

--------------------------------
INTERNAL COORDINATES (ANGSTROEM)
--------------------------------
 C      0   0   0     0.000000000000     0.00000000     0.00000000
 C      1   0   0     5.176226424723     0.00000000     0.00000000
 C      1   2   0     2.413593172016    54.99978288     0.00000000
 C      3   1   2     1.403701535227    87.89718372   163.67790377
 C      4   3   1     1.380272799123   120.17339564     0.11487455
 C      5   4   3     2.447564912316   152.52718694     1.63051915
 C      2   1   3     1.368114030335    17.24045299   354.22227183
 C      7   2   1     1.434084376876   108.05010202   166.07527675
 C      2   1   3     1.434123425651   124.81974887    11.24554839
 C      1   2   3     1.381490499424    27.04291414   341.58126729
 N      1   2   3     1.352380863514   142.34362255    27.51971691
 N      9   2   1     1.376127174356   106.58526707   353.99627532
 N     12   9   2     2.925062050624   168.53581413   171.12065651
 N     13  12   9     2.954513327098    91.55032014    11.12112580
 N     14  13  12     2.925371258490    88.43092389   359.84326247
 C      8   7   2     1.404790019896   127.24786865   181.11170171
 C     13  12   9     1.366535034311    81.72106996   188.00453233
 C     14  13  12     5.758810554272    80.56209567   166.76250791
 C     17  13  12     1.459010623676   111.08861209   183.82872609
 C     18  14  13     2.412235892279    27.27532823    36.33507194
 C     20  18  14     1.402692767501    87.95206320   148.94598259
 C     21  20  18     1.382106725257   120.14573887   359.70382047
 C     18  14  13     2.446510985056   144.15733107    82.80075377
 C     19  17  13     1.353610726908   106.29293361   359.75308708
 C     13  12   9     1.366813447402   172.21332906    33.46711076
 C     18  14  13     1.380960173213    15.08449437   309.23336894
 N     22  21  20     1.352773077792   120.73759875     0.27865223
 C     25  13  17     1.410897586645   125.60330303   182.37774668
 C     14  13  12     1.376642291955    80.24689249   177.85461986
 C     14  13  12     5.764089607215   164.51507311   312.20821879
 C     29  14  13     1.435600919476   106.58649366   178.76395472
 C     30  14  13     2.413316804732    27.10625047    82.12560436
 C     32  30  14     1.403734305344    87.90059683   149.76154742
 C     33  32  30     1.380694028378   120.14881443   359.74174632
 C     34  33  32     2.448777858443   152.49203239     2.45173620
 C     31  29  14     1.368160809262   108.16950133     0.70383075
 C     14  13  12     1.376239804685   169.26375223   353.09862627
 C     30  14  13     1.380907310430    14.68948582   353.70041132
 N     34  33  32     1.352658863128   120.85575621     0.19603406
 C     37  14  29     1.404717053360   126.01551127   180.90772073
 C     15  14  13     1.366491126938    81.61824056   183.09049352
 C      2   1   3     4.249062720177   142.42041258   154.01393965
 C     41  15  14     1.459677704153   111.05201287   175.08990246
 C     42   2   1     2.412953791518    41.78584867   186.18586640
 C     44  42   2     1.403446472082    87.95153797   233.97558675
 C     45  44  42     1.381696421071   120.11137308     0.19721020
 C     42   2   1     2.450019795838   135.97209175    96.50071550
 C     43  41  15     1.354461516618   106.26758155     0.30894352
 C     15  14  13     1.367461151185   171.87382904   332.35056460
 C     42   2   1     1.381886391857    32.59078432   235.04114559
 C      9   2   1     1.404988612053   126.98745415   175.00061285
 N     42   2   1     1.352765315936   113.57249190   124.23730469
 H      1   2   3     1.083423278317    98.57438753   186.90455417
 H      2   1   3     1.079907866440   109.84106091   186.97939598
 H      4   3   1     1.083204043567   120.99573980   179.55540996
 H      5   4   3     1.082568242653   122.82624278   179.49930072
 H      6   5   4     1.092007783855   104.43923583   100.07261283
 H      6   5   4     1.089657744432    84.69711108   209.55677903
 H      6   5   4     1.090349485257   133.87097829   322.44260091
 H      7   2   1     1.079807853278   126.66122480   346.31369054
 H     10   1   2     1.083620782377   118.77724988   330.16638890
 H     12   9   2     1.016297692608   125.29023241   180.00180175
 H     14  13  12     1.014936943854    44.97226959   359.42596618
 H     18  14  13     1.082871645210   128.03556573   234.20482432
 H     55   4   3     1.046690020971   127.51574527   294.09072453
 H     21  20  18     1.083569563987   121.05669627   180.67006309
 H     22  21  20     1.082483256222   122.73097286   180.59748951
 H     23  18  14     1.092105306278   103.92715769   234.93429879
 H     23  18  14     1.088871893291   134.19244188    12.25587044
 H     23  18  14     1.089833473518    84.85857450   125.45241208
 H     24  19  17     1.080075460327   127.28078426   178.44613241
 H     26  18  14     1.083408048706   118.76995697   244.94906660
 H     30  14  13     1.082703098730   127.99711412   279.66882698
 H     31  29  14     1.079759695488   125.22293469   180.92530585
 H     33  32  30     1.083188810873   121.01964473   180.74284758
 H     34  33  32     1.082494341787   122.70821597   180.59516895
 H     35  34  33     1.092652735319   105.73575241    97.19771933
 H     35  34  33     1.089462711615    84.05943581   206.43036958
 H     35  34  33     1.089268102902   133.08365142   318.50306270
 H     36  31  29     1.079439669458   126.61599965   178.98859863
 H     38  30  73     1.083742127999   118.77264435   359.90091293
 H     42   2   1     1.082178358682   119.31790784   340.86883515
 H     43  41  15     1.080281907652   126.36969097   182.06329380
 H     45  44  42     1.083277434455   121.10105945   179.58025624
 H     46  45  44     1.082194529648   122.72144639   179.46906377
 H     47  42   2     1.091546151109   106.65128841   315.16475048
 H     47  42   2     1.088818625851   132.46019523    94.52397119
 H     47  42   2     1.089531091801    83.63838232   206.04504406
 H     48  43  41     1.080402239909   127.23657387   181.62955349
 H     50  42   2     1.083186502870   118.77001737    94.71359229

---------------------------
INTERNAL COORDINATES (A.U.)
---------------------------
 C      0   0   0     0.000000000000     0.00000000     0.00000000
 C      1   0   0     9.781650349893     0.00000000     0.00000000
 C      1   2   0     4.561030093812    54.99978288     0.00000000
 C      3   1   2     2.652611475345    87.89718372   163.67790377
 C      4   3   1     2.608337580444   120.17339564     0.11487455
 C      5   4   3     4.625227379272   152.52718694     1.63051915
 C      2   1   3     2.585360837309    17.24045299   354.22227183
 C      7   2   1     2.710026725231   108.05010202   166.07527675
 C      2   1   3     2.710100516721   124.81974887    11.24554839
 C      1   2   3     2.610638700526    27.04291414   341.58126729
 N      1   2   3     2.555629460798   142.34362255    27.51971691
 N      9   2   1     2.600503484979   106.58526707   353.99627532
 N     12   9   2     5.527566200405   168.53581413   171.12065651
 N     13  12   9     5.583221047236    91.55032014    11.12112580
 N     14  13  12     5.528150518591    88.43092389   359.84326247
 C      8   7   2     2.654668413270   127.24786865   181.11170171
 C     13  12   9     2.582376967257    81.72106996   188.00453233
 C     14  13  12    10.882574804710    80.56209567   166.76250791
 C     17  13  12     2.757130505230   111.08861209   183.82872609
 C     18  14  13     4.558465206823    27.27532823    36.33507194
 C     20  18  14     2.650705180609    87.95206320   148.94598259
 C     21  20  18     2.611803198586   120.14573887   359.70382047
 C     18  14  13     4.623235745386   144.15733107    82.80075377
 C     19  17  13     2.557953565794   106.29293361   359.75308708
 C     13  12   9     2.582903091751   172.21332906    33.46711076
 C     18  14  13     2.609636529225    15.08449437   309.23336894
 N     22  21  20     2.556370638369   120.73759875     0.27865223
 C     25  13  17     2.666210041769   125.60330303   182.37774668
 C     14  13  12     2.601476916169    80.24689249   177.85461986
 C     14  13  12    10.892550769017   164.51507311   312.20821879
 C     29  14  13     2.712892575415   106.58649366   178.76395472
 C     30  14  13     4.560507835333    27.10625047    82.12560436
 C     32  30  14     2.652673401891    87.90059683   149.76154742
 C     33  32  30     2.609133588376   120.14881443   359.74174632
 C     34  33  32     4.627519515267   152.49203239     2.45173620
 C     31  29  14     2.585449236669   108.16950133     0.70383075
 C     14  13  12     2.600716325456   169.26375223   353.09862627
 C     30  14  13     2.609536633043    14.68948582   353.70041132
 N     34  33  32     2.556154803934   120.85575621     0.19603406
 C     37  14  29     2.654530526499   126.01551127   180.90772073
 C     15  14  13     2.582293994346    81.61824056   183.09049352
 C      2   1   3     8.029564866989   142.42041258   154.01393965
 C     41  15  14     2.758391104639   111.05201287   175.08990246
 C     42   2   1     4.559821839776    41.78584867   186.18586640
 C     44  42   2     2.652129475853    87.95153797   233.97558675
 C     45  44  42     2.611027836043   120.11137308     0.19721020
 C     42   2   1     4.629866436820   135.97209175    96.50071550
 C     43  41  15     2.559561325344   106.26758155     0.30894352
 C     15  14  13     2.584127074516   171.87382904   332.35056460
 C     42   2   1     2.611386828803    32.59078432   235.04114559
 C      9   2   1     2.655043698059   126.98745415   175.00061285
 N     42   2   1     2.556355970587   113.57249190   124.23730469
 H      1   2   3     2.047373283135    98.57438753   186.90455417
 H      2   1   3     2.040730117440   109.84106091   186.97939598
 H      4   3   1     2.046958989498   120.99573980   179.55540996
 H      5   4   3     2.045757499894   122.82624278   179.49930072
 H      6   5   4     2.063595647596   104.43923583   100.07261283
 H      6   5   4     2.059154716682    84.69711108   209.55677903
 H      6   5   4     2.060461917398   133.87097829   322.44260091
 H      7   2   1     2.040541119952   126.66122480   346.31369054
 H     10   1   2     2.047746511719   118.77724988   330.16638890
 H     12   9   2     1.920524309565   125.29023241   180.00180175
 H     14  13  12     1.917952867083    44.97226959   359.42596618
 H     18  14  13     2.046330847636   128.03556573   234.20482432
 H     55   4   3     1.977957486743   127.51574527   294.09072453
 H     21  20  18     2.047649722989   121.05669627   180.67006309
 H     22  21  20     2.045596898814   122.73097286   180.59748951
 H     23  18  14     2.063779938267   103.92715769   234.93429879
 H     23  18  14     2.057669673245   134.19244188    12.25587044
 H     23  18  14     2.059486796529    84.85857450   125.45241208
 H     24  19  17     2.041046823986   127.28078426   178.44613241
 H     26  18  14     2.047344503340   118.76995697   244.94906660
 H     30  14  13     2.046012340948   127.99711412   279.66882698
 H     31  29  14     2.040450114918   125.22293469   180.92530585
 H     33  32  30     2.046930203877   121.01964473   180.74284758
 H     34  33  32     2.045617847496   122.70821597   180.59516895
 H     35  34  33     2.064814429233   105.73575241    97.19771933
 H     35  34  33     2.058786158072    84.05943581   206.43036958
 H     35  34  33     2.058418400901   133.08365142   318.50306270
 H     36  31  29     2.039845353366   126.61599965   178.98859863
 H     38  30  73     2.047975821711   118.77264435   359.90091293
 H     42   2   1     2.045020725966   119.31790784   340.86883515
 H     43  41  15     2.041436952892   126.36969097   182.06329380
 H     45  44  42     2.047097678177   121.10105945   179.58025624
 H     46  45  44     2.045051284662   122.72144639   179.46906377
 H     47  42   2     2.062723288131   106.65128841   315.16475048
 H     47  42   2     2.057569012371   132.46019523    94.52397119
 H     47  42   2     2.058915377895    83.63838232   206.04504406
 H     48  43  41     2.041664347903   127.23657387   181.62955349
 H     50  42   2     2.046925842384   118.77001737    94.71359229

---------------------
BASIS SET INFORMATION
---------------------
There are 3 groups of distinct atoms

 Group   1 Type C   : 17s4p1d contracted to 3s2p1d pattern {881/31/1}
 Group   2 Type N   : 17s4p1d contracted to 3s2p1d pattern {881/31/1}
 Group   3 Type H   : 4s1p contracted to 2s1p pattern {31/1}

Atom   0C    basis set group =>   1
Atom   1N    basis set group =>   2
Atom   2C    basis set group =>   1
Atom   3N    basis set group =>   2
Atom   4C    basis set group =>   1
Atom   5N    basis set group =>   2
Atom   6C    basis set group =>   1
Atom   7N    basis set group =>   2
Atom   8C    basis set group =>   1
Atom   9N    basis set group =>   2
Atom  10C    basis set group =>   1
Atom  11N    basis set group =>   2
Atom  12C    basis set group =>   1
Atom  13N    basis set group =>   2
Atom  14C    basis set group =>   1
Atom  15N    basis set group =>   2
Atom  16C    basis set group =>   1
Atom  17C    basis set group =>   1
Atom  18C    basis set group =>   1
Atom  19C    basis set group =>   1
Atom  20C    basis set group =>   1
Atom  21C    basis set group =>   1
Atom  22C    basis set group =>   1
Atom  23C    basis set group =>   1
Atom  24C    basis set group =>   1
Atom  25C    basis set group =>   1
Atom  26C    basis set group =>   1
Atom  27C    basis set group =>   1
Atom  28C    basis set group =>   1
Atom  29C    basis set group =>   1
Atom  30C    basis set group =>   1
Atom  31C    basis set group =>   1
Atom  32C    basis set group =>   1
Atom  33C    basis set group =>   1
Atom  34C    basis set group =>   1
Atom  35C    basis set group =>   1
Atom  36C    basis set group =>   1
Atom  37C    basis set group =>   1
Atom  38C    basis set group =>   1
Atom  39C    basis set group =>   1
Atom  40C    basis set group =>   1
Atom  41C    basis set group =>   1
Atom  42C    basis set group =>   1
Atom  43C    basis set group =>   1
Atom  44C    basis set group =>   1
Atom  45C    basis set group =>   1
Atom  46C    basis set group =>   1
Atom  47C    basis set group =>   1
Atom  48C    basis set group =>   1
Atom  49C    basis set group =>   1
Atom  50C    basis set group =>   1
Atom  51C    basis set group =>   1
Atom  52H    basis set group =>   3
Atom  53H    basis set group =>   3
Atom  54H    basis set group =>   3
Atom  55H    basis set group =>   3
Atom  56H    basis set group =>   3
Atom  57H    basis set group =>   3
Atom  58H    basis set group =>   3
Atom  59H    basis set group =>   3
Atom  60H    basis set group =>   3
Atom  61H    basis set group =>   3
Atom  62H    basis set group =>   3
Atom  63H    basis set group =>   3
Atom  64H    basis set group =>   3
Atom  65H    basis set group =>   3
Atom  66H    basis set group =>   3
Atom  67H    basis set group =>   3
Atom  68H    basis set group =>   3
Atom  69H    basis set group =>   3
Atom  70H    basis set group =>   3
Atom  71H    basis set group =>   3
Atom  72H    basis set group =>   3
Atom  73H    basis set group =>   3
Atom  74H    basis set group =>   3
Atom  75H    basis set group =>   3
Atom  76H    basis set group =>   3
Atom  77H    basis set group =>   3
Atom  78H    basis set group =>   3
Atom  79H    basis set group =>   3
Atom  80H    basis set group =>   3
Atom  81H    basis set group =>   3
Atom  82H    basis set group =>   3
Atom  83H    basis set group =>   3
Atom  84H    basis set group =>   3
Atom  85H    basis set group =>   3
Atom  86H    basis set group =>   3
Atom  87H    basis set group =>   3
Atom  88H    basis set group =>   3
Atom  89H    basis set group =>   3


           ************************************************************
           *        Program running with 16 parallel MPI-processes    *
           *              working on a common directory               *
           ************************************************************
------------------------------------------------------------------------------
                           ORCA GTO INTEGRAL CALCULATION
------------------------------------------------------------------------------
------------------------------------------------------------------------------
                   ___                                                        
                  /   \      - P O W E R E D   B Y -                         
                 /     \                                                     
                 |  |  |   _    _      __       _____    __    __             
                 |  |  |  | |  | |    /  \     |  _  \  |  |  /  |          
                  \  \/   | |  | |   /    \    | | | |  |  | /  /          
                 / \  \   | |__| |  /  /\  \   | |_| |  |  |/  /          
                |  |  |   |  __  | /  /__\  \  |    /   |      \           
                |  |  |   | |  | | |   __   |  |    \   |  |\   \          
                \     /   | |  | | |  |  |  |  | |\  \  |  | \   \       
                 \___/    |_|  |_| |__|  |__|  |_| \__\ |__|  \__/        
                                                                              
                      - O R C A' S   B I G   F R I E N D -                    
                                      &                                       
                       - I N T E G R A L  F E E D E R -                       
                                                                              
 v1 FN, 2020, v2 2021                                                         
------------------------------------------------------------------------------


Reading SHARK input file /scratch/allen/tmpyp4_amber_gaff2/conf1/conf1/Conf21.orca.SHARKINP.tmp ... ok
----------------------
SHARK INTEGRAL PACKAGE
----------------------

Number of atoms                             ...     90
Number of basis functions                   ...   1230
Number of shells                            ...    738
Maximum angular momentum                    ...      2
Integral batch strategy                     ... SHARK/LIBINT Hybrid
RI-J (if used) integral strategy            ... SPLIT-RIJ (Revised 2003 algorithm where possible)
Printlevel                                  ...      1
Contraction scheme used                     ... PARTIAL GENERAL contraction
Coulomb Range Separation                    ... NOT USED
Exchange Range Separation                   ... NOT USED
Finite Nucleus Model                        ... NOT USED
Auxiliary Coulomb fitting basis             ... NOT available
Auxiliary J/K fitting basis                 ... NOT available
Auxiliary Correlation fitting basis         ... NOT available
Auxiliary 'external' fitting basis          ... NOT available
Integral threshold                          ...     2.500000e-11
Primitive cut-off                           ...     2.500000e-12
Primitive pair pre-selection threshold      ...     2.500000e-12

Calculating pre-screening integrals         ... done (  0.1 sec) Dimension = 738
Calculating pre-screening integrals (ORCA)  ... done (  0.3 sec) Dimension = 426
Organizing shell pair data                  ... done (  0.8 sec)
Shell pair information
Total number of shell pairs                 ...    272691
Shell pairs after pre-screening             ...     71710
Total number of primitive shell pairs       ...    422091
Primitive shell pairs kept                  ...     92608
          la=0 lb=0:  29440 shell pairs
          la=1 lb=0:  26027 shell pairs
          la=1 lb=1:   4700 shell pairs
          la=2 lb=0:   7890 shell pairs
          la=2 lb=1:   3124 shell pairs
          la=2 lb=2:    529 shell pairs

Calculating one electron integrals          ... done (  0.3 sec)
Calculating Nuclear repulsion               ... done (  0.0 sec) ENN=   6233.843749722088 Eh

SHARK setup successfully completed in   2.2 seconds

Maximum memory used throughout the entire GTOINT-calculation: 99.1 MB


           ************************************************************
           *        Program running with 16 parallel MPI-processes    *
           *              working on a common directory               *
           ************************************************************
-------------------------------------------------------------------------------
                                 ORCA SCF
-------------------------------------------------------------------------------

------------
SCF SETTINGS
------------
Hamiltonian:
 Ab initio Hamiltonian  Method          .... Hartree-Fock(GTOs)


General Settings:
 Integral files         IntName         .... /scratch/allen/tmpyp4_amber_gaff2/conf1/conf1/Conf21.orca
 Hartree-Fock type      HFTyp           .... RHF
 Total Charge           Charge          ....    0
 Multiplicity           Mult            ....    1
 Number of Electrons    NEL             ....  358
 Basis Dimension        Dim             ....  918
 Nuclear Repulsion      ENuc            ....   6233.8437497221 Eh

Convergence Acceleration:
 DIIS                   CNVDIIS         .... on
   Start iteration      DIISMaxIt       ....    12
   Startup error        DIISStart       ....  0.200000
   # of expansion vecs  DIISMaxEq       ....     5
   Bias factor          DIISBfac        ....   1.050
   Max. coefficient     DIISMaxC        ....  10.000
 Trust-Rad. Augm. Hess. CNVTRAH         .... auto
   Auto Start mean grad. ratio tolernc. ....  1.125000
   Auto Start start iteration           ....    20
   Auto Start num. interpolation iter.  ....    10
   Max. Number of Micro iterations      ....    16
   Max. Number of Macro iterations      .... Maxiter - #DIIS iter
   Number of Davidson start vectors     ....     2
   Converg. threshold I  (grad. norm)   ....   1.000e-05
   Converg. threshold II (energy diff.) ....   1.000e-08
   Grad. Scal. Fac. for Micro threshold ....   0.100
   Minimum threshold for Micro iter.    ....   0.010
   NR start threshold (gradient norm)   ....   0.001
   Initial trust radius                 ....   0.400
   Minimum AH scaling param. (alpha)    ....   1.000
   Maximum AH scaling param. (alpha)    .... 1000.000
   Orbital update algorithm             .... Taylor
   White noise on init. David. guess    .... on
   Maximum white noise                  ....   0.010
   Quad. conv. algorithm                .... NR
 SOSCF                  CNVSOSCF        .... on
   Start iteration      SOSCFMaxIt      ....   150
   Startup grad/error   SOSCFStart      ....  0.003300
 Level Shifting         CNVShift        .... on
   Level shift para.    LevelShift      ....    0.2500
   Turn off err/grad.   ShiftErr        ....    0.0010
 Zerner damping         CNVZerner       .... off
 Static damping         CNVDamp         .... on
   Fraction old density DampFac         ....    0.7000
   Max. Damping (<1)    DampMax         ....    0.9800
   Min. Damping (>=0)   DampMin         ....    0.0000
   Turn off err/grad.   DampErr         ....    0.1000
 Fernandez-Rico         CNVRico         .... off

SCF Procedure:
 Maximum # iterations   MaxIter         ....   125
 SCF integral mode      SCFMode         .... Direct
   Integral package                     .... SHARK and LIBINT hybrid scheme
 Reset frequency        DirectResetFreq ....    20
 Integral Threshold     Thresh          ....  2.500e-11 Eh
 Primitive CutOff       TCut            ....  2.500e-12 Eh

Convergence Tolerance:
 Convergence Check Mode ConvCheckMode   .... Total+1el-Energy
 Convergence forced     ConvForced      .... 1
 Energy Change          TolE            ....  1.000e-08 Eh
 1-El. energy change                    ....  1.000e-05 Eh
 Orbital Gradient       TolG            ....  1.000e-05
 Orbital Rotation angle TolX            ....  1.000e-05
 DIIS Error             TolErr          ....  5.000e-07


Diagonalization of the overlap matrix:
Smallest eigenvalue                        ... 2.021e-04
Time for diagonalization                   ...    0.351 sec
Threshold for overlap eigenvalues          ... 1.000e-08
Number of eigenvalues below threshold      ... 0
Time for construction of square roots      ...    0.252 sec
Total time needed                          ...    0.609 sec

Time for model grid setup =    1.056 sec

------------------------------
INITIAL GUESS: MODEL POTENTIAL
------------------------------
Loading Hartree-Fock densities                     ... done
Calculating cut-offs                               ... done
Initializing the effective Hamiltonian             ... done
Setting up the integral package (SHARK)            ... done
Starting the Coulomb interaction                   ... done (   1.2 sec)
Reading the grid                                   ... done
Mapping shells                                     ... done
Starting the XC term evaluation                    ... done (   0.2 sec)
Transforming the Hamiltonian                       ... done (   0.2 sec)
Diagonalizing the Hamiltonian                      ... done (   0.3 sec)
Back transforming the eigenvectors                 ... done (   0.1 sec)
Now organizing SCF variables                       ... done
                      ------------------
                      INITIAL GUESS DONE (   3.1 sec)
                      ------------------
--------------
SCF ITERATIONS
--------------
ITER       Energy         Delta-E        Max-DP      RMS-DP      [F,P]     Damp
               ***  Starting incremental Fock matrix formation  ***
  0  -2121.6395979290   0.000000000000 0.07484110  0.00124854  0.2315026 0.7000
  1  -2122.2860352496  -0.646437320636 0.05680191  0.00101827  0.1435775 0.7000
                               ***Turning on DIIS***
  2  -2122.6888240330  -0.402788783393 0.13260490  0.00230775  0.0802784 0.0000
  3  -2118.0025539314   4.686270101651 0.06238888  0.00069603  0.0435814 0.0000
  4  -2123.3767012794  -5.374147348080 0.01794149  0.00022983  0.0090158 0.0000
  5  -2123.5185054383  -0.141804158849 0.00837467  0.00013355  0.0048790 0.0000
  6  -2123.5028693468   0.015636091504 0.00493597  0.00008560  0.0021856 0.0000
  7  -2123.5966449410  -0.093775594196 0.00308311  0.00006748  0.0016016 0.0000
  8  -2123.6046963607  -0.008051419682 0.00328500  0.00006434  0.0014988 0.0000
  9  -2123.5768742492   0.027822111462 0.00263056  0.00004559  0.0012035 0.0000
 10  -2123.5850330408  -0.008158791619 0.00527363  0.00009537  0.0009388 0.0000
                      *** Initiating the SOSCF procedure ***
                           *** Shutting down DIIS ***
                      *** Re-Reading the Fockian *** 
                      *** Removing any level shift *** 
ITER      Energy       Delta-E        Grad      Rot      Max-DP    RMS-DP
 11  -2123.47824595   0.1067870930  0.000179  0.000179  0.000241  0.000005
               *** Restarting incremental Fock matrix formation ***
 12  -2123.54425940  -0.0660134534  0.000898  0.006225  0.001442  0.000035
 13  -2123.54436990  -0.0001104962  0.001117  0.030657  0.006546  0.000137
 14  -2123.54455635  -0.0001864490  0.000367  0.001493  0.000619  0.000012
 15  -2123.54457173  -0.0000153796  0.000188  0.002523  0.000580  0.000015
 16  -2123.54457963  -0.0000079039  0.000142  0.002351  0.000453  0.000009
 17  -2123.54458244  -0.0000028146  0.000137  0.001986  0.000314  0.000007
 18  -2123.54458390  -0.0000014521  0.000064  0.001147  0.000249  0.000004
 19  -2123.54458471  -0.0000008124  0.000046  0.001427  0.000241  0.000005
 20  -2123.54458516  -0.0000004472  0.000028  0.000943  0.000140  0.000003
 21  -2123.54458539  -0.0000002327  0.000027  0.001161  0.000173  0.000004
 22  -2123.54458561  -0.0000002197  0.000024  0.000981  0.000152  0.000003
 23  -2123.54458574  -0.0000001329  0.000016  0.000479  0.000077  0.000002
 24  -2123.54458580  -0.0000000581  0.000009  0.000330  0.000055  0.000001
 25  -2123.54458584  -0.0000000359  0.000009  0.000157  0.000044  0.000001
 26  -2123.54458585  -0.0000000160  0.000006  0.000106  0.000033  0.000001
 27  -2123.54458585  -0.0000000021  0.000003  0.000072  0.000023  0.000000
                  ***Gradient check signals convergence***
              ***Rediagonalizing the Fockian in SOSCF/NRSCF***

               *****************************************************
               *                     SUCCESS                       *
               *           SCF CONVERGED AFTER  28 CYCLES          *
               *****************************************************


----------------
TOTAL SCF ENERGY
----------------

Total Energy       :        -2123.54458585 Eh          -57784.58589 eV

Components:
Nuclear Repulsion  :         6233.84374972 Eh          169631.51233 eV
Electronic Energy  :        -8357.38833557 Eh         -227416.09822 eV
One Electron Energy:       -15308.29303478 Eh         -416559.83097 eV
Two Electron Energy:         6950.90469921 Eh          189143.73275 eV

Virial components:
Potential Energy   :        -4245.94813458 Eh         -115538.12259 eV
Kinetic Energy     :         2122.40354872 Eh           57753.53669 eV
Virial Ratio       :            2.00053762


---------------
SCF CONVERGENCE
---------------

  Last Energy change         ...    2.1064e-09  Tolerance :   1.0000e-08
  Last MAX-Density change    ...    1.0152e-05  Tolerance :   1.0000e-07
  Last RMS-Density change    ...    2.0328e-07  Tolerance :   5.0000e-09
  Last Orbital Gradient      ...    2.0945e-06  Tolerance :   1.0000e-05
  Last Orbital Rotation      ...    4.5525e-05  Tolerance :   1.0000e-05

             **** THE GBW FILE WAS UPDATED (/scratch/allen/tmpyp4_amber_gaff2/conf1/conf1/Conf21.orca.gbw) ****
             **** DENSITY /scratch/allen/tmpyp4_amber_gaff2/conf1/conf1/Conf21.orca.scfp WAS UPDATED ****
             **** ENERGY FILE WAS UPDATED (/scratch/allen/tmpyp4_amber_gaff2/conf1/conf1/Conf21.orca.en.tmp) ****
             **** THE GBW FILE WAS UPDATED (/scratch/allen/tmpyp4_amber_gaff2/conf1/conf1/Conf21.orca.gbw) ****
             **** DENSITY /scratch/allen/tmpyp4_amber_gaff2/conf1/conf1/Conf21.orca.scfp WAS UPDATED ****
----------------
ORBITAL ENERGIES
----------------

  NO   OCC          E(Eh)            E(eV) 
   0   2.0000     -15.678361      -426.6299 
   1   2.0000     -15.633222      -425.4016 
   2   2.0000     -15.632354      -425.3780 
   3   2.0000     -15.588829      -424.1936 
   4   2.0000     -15.524869      -422.4532 
   5   2.0000     -15.515838      -422.2074 
   6   2.0000     -15.453780      -420.5187 
   7   2.0000     -15.439938      -420.1421 
   8   2.0000     -11.328177      -308.2554 
   9   2.0000     -11.327233      -308.2297 
  10   2.0000     -11.327052      -308.2248 
  11   2.0000     -11.298856      -307.4575 
  12   2.0000     -11.298684      -307.4528 
  13   2.0000     -11.292312      -307.2794 
  14   2.0000     -11.291565      -307.2591 
  15   2.0000     -11.287079      -307.1370 
  16   2.0000     -11.285972      -307.1069 
  17   2.0000     -11.280707      -306.9636 
  18   2.0000     -11.270884      -306.6964 
  19   2.0000     -11.262389      -306.4652 
  20   2.0000     -11.261397      -306.4382 
  21   2.0000     -11.253451      -306.2220 
  22   2.0000     -11.250363      -306.1379 
  23   2.0000     -11.237101      -305.7771 
  24   2.0000     -11.236991      -305.7741 
  25   2.0000     -11.230595      -305.6000 
  26   2.0000     -11.230144      -305.5878 
  27   2.0000     -11.230009      -305.5841 
  28   2.0000     -11.229797      -305.5783 
  29   2.0000     -11.210481      -305.0527 
  30   2.0000     -11.209216      -305.0183 
  31   2.0000     -11.195796      -304.6531 
  32   2.0000     -11.190977      -304.5220 
  33   2.0000     -11.190851      -304.5185 
  34   2.0000     -11.188612      -304.4576 
  35   2.0000     -11.188232      -304.4473 
  36   2.0000     -11.186894      -304.4109 
  37   2.0000     -11.182938      -304.3032 
  38   2.0000     -11.178300      -304.1770 
  39   2.0000     -11.174059      -304.0616 
  40   2.0000     -11.171678      -303.9968 
  41   2.0000     -11.171097      -303.9810 
  42   2.0000     -11.167751      -303.8899 
  43   2.0000     -11.161610      -303.7229 
  44   2.0000     -11.160159      -303.6834 
  45   2.0000     -11.156858      -303.5936 
  46   2.0000     -11.156589      -303.5862 
  47   2.0000     -11.154188      -303.5209 
  48   2.0000     -11.147417      -303.3366 
  49   2.0000     -11.136363      -303.0359 
  50   2.0000     -11.129678      -302.8539 
  51   2.0000     -11.117658      -302.5268 
  52   2.0000      -1.359169       -36.9849 
  53   2.0000      -1.320576       -35.9347 
  54   2.0000      -1.320065       -35.9208 
  55   2.0000      -1.281931       -34.8831 
  56   2.0000      -1.225798       -33.3557 
  57   2.0000      -1.210403       -32.9367 
  58   2.0000      -1.173310       -31.9274 
  59   2.0000      -1.150712       -31.3125 
  60   2.0000      -1.142670       -31.0936 
  61   2.0000      -1.110159       -30.2090 
  62   2.0000      -1.108884       -30.1743 
  63   2.0000      -1.080956       -29.4143 
  64   2.0000      -1.078141       -29.3377 
  65   2.0000      -1.044790       -28.4302 
  66   2.0000      -1.044706       -28.4279 
  67   2.0000      -1.040462       -28.3124 
  68   2.0000      -1.014817       -27.6146 
  69   2.0000      -1.013041       -27.5663 
  70   2.0000      -1.009203       -27.4618 
  71   2.0000      -0.993164       -27.0254 
  72   2.0000      -0.986026       -26.8311 
  73   2.0000      -0.981194       -26.6997 
  74   2.0000      -0.972578       -26.4652 
  75   2.0000      -0.961953       -26.1761 
  76   2.0000      -0.954423       -25.9712 
  77   2.0000      -0.945760       -25.7354 
  78   2.0000      -0.936235       -25.4763 
  79   2.0000      -0.917713       -24.9722 
  80   2.0000      -0.909481       -24.7482 
  81   2.0000      -0.895768       -24.3751 
  82   2.0000      -0.875951       -23.8359 
  83   2.0000      -0.871664       -23.7192 
  84   2.0000      -0.870499       -23.6875 
  85   2.0000      -0.858646       -23.3649 
  86   2.0000      -0.842294       -22.9200 
  87   2.0000      -0.835424       -22.7331 
  88   2.0000      -0.826223       -22.4827 
  89   2.0000      -0.797027       -21.6882 
  90   2.0000      -0.789822       -21.4922 
  91   2.0000      -0.755756       -20.5652 
  92   2.0000      -0.751104       -20.4386 
  93   2.0000      -0.733272       -19.9533 
  94   2.0000      -0.726025       -19.7561 
  95   2.0000      -0.722685       -19.6652 
  96   2.0000      -0.717911       -19.5353 
  97   2.0000      -0.715086       -19.4585 
  98   2.0000      -0.711044       -19.3485 
  99   2.0000      -0.697777       -18.9875 
 100   2.0000      -0.696677       -18.9576 
 101   2.0000      -0.689634       -18.7659 
 102   2.0000      -0.684421       -18.6240 
 103   2.0000      -0.683399       -18.5962 
 104   2.0000      -0.678395       -18.4601 
 105   2.0000      -0.674287       -18.3483 
 106   2.0000      -0.671771       -18.2798 
 107   2.0000      -0.660232       -17.9658 
 108   2.0000      -0.657818       -17.9001 
 109   2.0000      -0.652610       -17.7584 
 110   2.0000      -0.651981       -17.7413 
 111   2.0000      -0.645140       -17.5551 
 112   2.0000      -0.644706       -17.5433 
 113   2.0000      -0.637358       -17.3434 
 114   2.0000      -0.637320       -17.3424 
 115   2.0000      -0.628215       -17.0946 
 116   2.0000      -0.622725       -16.9452 
 117   2.0000      -0.621281       -16.9059 
 118   2.0000      -0.612805       -16.6753 
 119   2.0000      -0.611900       -16.6506 
 120   2.0000      -0.611778       -16.6473 
 121   2.0000      -0.610339       -16.6082 
 122   2.0000      -0.601025       -16.3547 
 123   2.0000      -0.587275       -15.9806 
 124   2.0000      -0.581260       -15.8169 
 125   2.0000      -0.580925       -15.8078 
 126   2.0000      -0.579779       -15.7766 
 127   2.0000      -0.571366       -15.5477 
 128   2.0000      -0.568880       -15.4800 
 129   2.0000      -0.559695       -15.2301 
 130   2.0000      -0.552767       -15.0416 
 131   2.0000      -0.547654       -14.9024 
 132   2.0000      -0.542368       -14.7586 
 133   2.0000      -0.541530       -14.7358 
 134   2.0000      -0.538181       -14.6447 
 135   2.0000      -0.536217       -14.5912 
 136   2.0000      -0.530347       -14.4315 
 137   2.0000      -0.520057       -14.1515 
 138   2.0000      -0.516618       -14.0579 
 139   2.0000      -0.514756       -14.0072 
 140   2.0000      -0.512478       -13.9452 
 141   2.0000      -0.510763       -13.8986 
 142   2.0000      -0.508678       -13.8418 
 143   2.0000      -0.504622       -13.7315 
 144   2.0000      -0.502276       -13.6676 
 145   2.0000      -0.496207       -13.5025 
 146   2.0000      -0.490001       -13.3336 
 147   2.0000      -0.482166       -13.1204 
 148   2.0000      -0.478404       -13.0180 
 149   2.0000      -0.467326       -12.7166 
 150   2.0000      -0.466397       -12.6913 
 151   2.0000      -0.457121       -12.4389 
 152   2.0000      -0.451533       -12.2868 
 153   2.0000      -0.444754       -12.1024 
 154   2.0000      -0.439427       -11.9574 
 155   2.0000      -0.427665       -11.6374 
 156   2.0000      -0.414657       -11.2834 
 157   2.0000      -0.407467       -11.0877 
 158   2.0000      -0.393185       -10.6991 
 159   2.0000      -0.386819       -10.5259 
 160   2.0000      -0.386507       -10.5174 
 161   2.0000      -0.378535       -10.3005 
 162   2.0000      -0.369830       -10.0636 
 163   2.0000      -0.356433        -9.6990 
 164   2.0000      -0.355932        -9.6854 
 165   2.0000      -0.341804        -9.3010 
 166   2.0000      -0.337648        -9.1879 
 167   2.0000      -0.324827        -8.8390 
 168   2.0000      -0.321976        -8.7614 
 169   2.0000      -0.304882        -8.2963 
 170   2.0000      -0.299579        -8.1520 
 171   2.0000      -0.285461        -7.7678 
 172   2.0000      -0.279761        -7.6127 
 173   2.0000      -0.263751        -7.1770 
 174   2.0000      -0.241515        -6.5720 
 175   2.0000      -0.189946        -5.1687 
 176   2.0000      -0.180693        -4.9169 
 177   2.0000      -0.078296        -2.1305 
 178   2.0000      -0.059334        -1.6145 
 179   0.0000       0.028325         0.7708 
 180   0.0000       0.065533         1.7833 
 181   0.0000       0.090500         2.4626 
 182   0.0000       0.107166         2.9161 
 183   0.0000       0.113619         3.0917 
 184   0.0000       0.137209         3.7336 
 185   0.0000       0.139342         3.7917 
 186   0.0000       0.141678         3.8553 
 187   0.0000       0.163824         4.4579 
 188   0.0000       0.165376         4.5001 
 189   0.0000       0.165502         4.5035 
 190   0.0000       0.172098         4.6830 
 191   0.0000       0.181117         4.9284 
 192   0.0000       0.184514         5.0209 
 193   0.0000       0.188552         5.1308 
 194   0.0000       0.205044         5.5795 
 195   0.0000       0.205515         5.5923 
 196   0.0000       0.208332         5.6690 
 197   0.0000       0.208659         5.6779 
 198   0.0000       0.217226         5.9110 
 199   0.0000       0.228264         6.2114 
 200   0.0000       0.233073         6.3422 
 201   0.0000       0.234455         6.3798 
 202   0.0000       0.239118         6.5067 
 203   0.0000       0.239728         6.5233 
 204   0.0000       0.246701         6.7131 
 205   0.0000       0.255551         6.9539 
 206   0.0000       0.256461         6.9787 
 207   0.0000       0.257459         7.0058 
 208   0.0000       0.258803         7.0424 
 209   0.0000       0.260781         7.0962 
 210   0.0000       0.263174         7.1613 
 211   0.0000       0.266204         7.2438 
 212   0.0000       0.269275         7.3273 
 213   0.0000       0.271718         7.3938 
 214   0.0000       0.272793         7.4231 
 215   0.0000       0.275845         7.5061 
 216   0.0000       0.277852         7.5607 
 217   0.0000       0.282505         7.6873 
 218   0.0000       0.286591         7.7985 
 219   0.0000       0.287589         7.8257 
 220   0.0000       0.289848         7.8872 
 221   0.0000       0.292014         7.9461 
 222   0.0000       0.295064         8.0291 
 223   0.0000       0.296728         8.0744 
 224   0.0000       0.297012         8.0821 
 225   0.0000       0.300022         8.1640 
 226   0.0000       0.304886         8.2964 
 227   0.0000       0.308926         8.4063 
 228   0.0000       0.310800         8.4573 
 229   0.0000       0.324655         8.8343 
 230   0.0000       0.327639         8.9155 
 231   0.0000       0.333829         9.0840 
 232   0.0000       0.342119         9.3095 
 233   0.0000       0.352415         9.5897 
 234   0.0000       0.356134         9.6909 
 235   0.0000       0.362826         9.8730 
 236   0.0000       0.375914        10.2291 
 237   0.0000       0.390293        10.6204 
 238   0.0000       0.395080        10.7507 
 239   0.0000       0.398641        10.8476 
 240   0.0000       0.404607        11.0099 
 241   0.0000       0.409413        11.1407 
 242   0.0000       0.412092        11.2136 
 243   0.0000       0.419007        11.4018 
 244   0.0000       0.429366        11.6836 
 245   0.0000       0.434226        11.8159 
 246   0.0000       0.436464        11.8768 
 247   0.0000       0.440665        11.9911 
 248   0.0000       0.442205        12.0330 
 249   0.0000       0.448068        12.1925 
 250   0.0000       0.457437        12.4475 
 251   0.0000       0.466803        12.7024 
 252   0.0000       0.468765        12.7557 
 253   0.0000       0.469181        12.7671 
 254   0.0000       0.471880        12.8405 
 255   0.0000       0.475462        12.9380 
 256   0.0000       0.476160        12.9570 
 257   0.0000       0.479454        13.0466 
 258   0.0000       0.488348        13.2886 
 259   0.0000       0.496561        13.5121 
 260   0.0000       0.503728        13.7071 
 261   0.0000       0.505542        13.7565 
 262   0.0000       0.506282        13.7766 
 263   0.0000       0.511329        13.9140 
 264   0.0000       0.515906        14.0385 
 265   0.0000       0.519587        14.1387 
 266   0.0000       0.524070        14.2607 
 267   0.0000       0.528950        14.3935 
 268   0.0000       0.531789        14.4707 
 269   0.0000       0.536329        14.5942 
 270   0.0000       0.543446        14.7879 
 271   0.0000       0.546072        14.8594 
 272   0.0000       0.557807        15.1787 
 273   0.0000       0.559282        15.2188 
 274   0.0000       0.561435        15.2774 
 275   0.0000       0.566015        15.4020 
 276   0.0000       0.570472        15.5233 
 277   0.0000       0.573673        15.6104 
 278   0.0000       0.578795        15.7498 
 279   0.0000       0.586397        15.9567 
 280   0.0000       0.591296        16.0900 
 281   0.0000       0.593143        16.1402 
 282   0.0000       0.594032        16.1644 
 283   0.0000       0.595753        16.2113 
 284   0.0000       0.598224        16.2785 
 285   0.0000       0.599926        16.3248 
 286   0.0000       0.605895        16.4872 
 287   0.0000       0.611247        16.6329 
 288   0.0000       0.617068        16.7913 
 289   0.0000       0.623775        16.9738 
 290   0.0000       0.626056        17.0359 
 291   0.0000       0.628563        17.1041 
 292   0.0000       0.635241        17.2858 
 293   0.0000       0.636917        17.3314 
 294   0.0000       0.644497        17.5377 
 295   0.0000       0.647824        17.6282 
 296   0.0000       0.652345        17.7512 
 297   0.0000       0.655405        17.8345 
 298   0.0000       0.661497        18.0002 
 299   0.0000       0.666449        18.1350 
 300   0.0000       0.671812        18.2809 
 301   0.0000       0.675279        18.3753 
 302   0.0000       0.677140        18.4259 
 303   0.0000       0.679163        18.4810 
 304   0.0000       0.681316        18.5396 
 305   0.0000       0.684680        18.6311 
 306   0.0000       0.688440        18.7334 
 307   0.0000       0.691398        18.8139 
 308   0.0000       0.695588        18.9279 
 309   0.0000       0.698874        19.0173 
 310   0.0000       0.702437        19.1143 
 311   0.0000       0.703588        19.1456 
 312   0.0000       0.706236        19.2177 
 313   0.0000       0.711407        19.3584 
 314   0.0000       0.712748        19.3949 
 315   0.0000       0.715820        19.4785 
 316   0.0000       0.717215        19.5164 
 317   0.0000       0.717913        19.5354 
 318   0.0000       0.723575        19.6895 
 319   0.0000       0.725042        19.7294 
 320   0.0000       0.727333        19.7917 
 321   0.0000       0.729292        19.8450 
 322   0.0000       0.731074        19.8935 
 323   0.0000       0.732651        19.9364 
 324   0.0000       0.734920        19.9982 
 325   0.0000       0.740230        20.1427 
 326   0.0000       0.743871        20.2418 
 327   0.0000       0.749608        20.3979 
 328   0.0000       0.753222        20.4962 
 329   0.0000       0.755306        20.5529 
 330   0.0000       0.757212        20.6048 
 331   0.0000       0.761068        20.7097 
 332   0.0000       0.762570        20.7506 
 333   0.0000       0.766949        20.8697 
 334   0.0000       0.768721        20.9180 
 335   0.0000       0.773222        21.0404 
 336   0.0000       0.776797        21.1377 
 337   0.0000       0.781526        21.2664 
 338   0.0000       0.782934        21.3047 
 339   0.0000       0.789166        21.4743 
 340   0.0000       0.793207        21.5843 
 341   0.0000       0.793800        21.6004 
 342   0.0000       0.799387        21.7524 
 343   0.0000       0.803005        21.8509 
 344   0.0000       0.805584        21.9211 
 345   0.0000       0.807747        21.9799 
 346   0.0000       0.808975        22.0133 
 347   0.0000       0.814865        22.1736 
 348   0.0000       0.815506        22.1910 
 349   0.0000       0.817341        22.2410 
 350   0.0000       0.820748        22.3337 
 351   0.0000       0.821372        22.3507 
 352   0.0000       0.823201        22.4004 
 353   0.0000       0.826592        22.4927 
 354   0.0000       0.829153        22.5624 
 355   0.0000       0.832772        22.6609 
 356   0.0000       0.833916        22.6920 
 357   0.0000       0.836228        22.7549 
 358   0.0000       0.838170        22.8078 
 359   0.0000       0.839919        22.8554 
 360   0.0000       0.841382        22.8952 
 361   0.0000       0.843119        22.9424 
 362   0.0000       0.844512        22.9803 
 363   0.0000       0.849144        23.1064 
 364   0.0000       0.850191        23.1349 
 365   0.0000       0.855616        23.2825 
 366   0.0000       0.857845        23.3432 
 367   0.0000       0.861402        23.4399 
 368   0.0000       0.866391        23.5757 
 369   0.0000       0.868049        23.6208 
 370   0.0000       0.870918        23.6989 
 371   0.0000       0.872898        23.7528 
 372   0.0000       0.874869        23.8064 
 373   0.0000       0.876351        23.8467 
 374   0.0000       0.878615        23.9083 
 375   0.0000       0.883286        24.0354 
 376   0.0000       0.886803        24.1311 
 377   0.0000       0.889811        24.2130 
 378   0.0000       0.891850        24.2685 
 379   0.0000       0.892551        24.2876 
 380   0.0000       0.897129        24.4121 
 381   0.0000       0.898446        24.4480 
 382   0.0000       0.899628        24.4801 
 383   0.0000       0.900810        24.5123 
 384   0.0000       0.905766        24.6472 
 385   0.0000       0.905857        24.6496 
 386   0.0000       0.908247        24.7146 
 387   0.0000       0.910195        24.7677 
 388   0.0000       0.914160        24.8756 
 389   0.0000       0.916531        24.9401 
 390   0.0000       0.920575        25.0501 
 391   0.0000       0.925078        25.1727 
 392   0.0000       0.926646        25.2153 
 393   0.0000       0.927702        25.2441 
 394   0.0000       0.929061        25.2810 
 395   0.0000       0.930866        25.3302 
 396   0.0000       0.934917        25.4404 
 397   0.0000       0.940406        25.5897 
 398   0.0000       0.942461        25.6457 
 399   0.0000       0.943905        25.6850 
 400   0.0000       0.947912        25.7940 
 401   0.0000       0.953545        25.9473 
 402   0.0000       0.954391        25.9703 
 403   0.0000       0.956608        26.0306 
 404   0.0000       0.960164        26.1274 
 405   0.0000       0.962856        26.2006 
 406   0.0000       0.970603        26.4114 
 407   0.0000       0.975629        26.5482 
 408   0.0000       0.980870        26.6908 
 409   0.0000       0.984675        26.7944 
 410   0.0000       0.987021        26.8582 
 411   0.0000       0.988000        26.8848 
 412   0.0000       0.995926        27.1005 
 413   0.0000       1.000176        27.2162 
 414   0.0000       1.003738        27.3131 
 415   0.0000       1.007964        27.4281 
 416   0.0000       1.013502        27.5788 
 417   0.0000       1.015582        27.6354 
 418   0.0000       1.024703        27.8836 
 419   0.0000       1.032020        28.0827 
 420   0.0000       1.032499        28.0957 
 421   0.0000       1.036924        28.2161 
 422   0.0000       1.041973        28.3535 
 423   0.0000       1.052023        28.6270 
 424   0.0000       1.058908        28.8144 
 425   0.0000       1.061037        28.8723 
 426   0.0000       1.067336        29.0437 
 427   0.0000       1.070456        29.1286 
 428   0.0000       1.077613        29.3233 
 429   0.0000       1.085617        29.5411 
 430   0.0000       1.087361        29.5886 
 431   0.0000       1.089833        29.6559 
 432   0.0000       1.098279        29.8857 
 433   0.0000       1.099677        29.9237 
 434   0.0000       1.103432        30.0259 
 435   0.0000       1.106254        30.1027 
 436   0.0000       1.110928        30.2299 
 437   0.0000       1.113849        30.3094 
 438   0.0000       1.115780        30.3619 
 439   0.0000       1.120836        30.4995 
 440   0.0000       1.122035        30.5321 
 441   0.0000       1.125316        30.6214 
 442   0.0000       1.127270        30.6746 
 443   0.0000       1.130351        30.7584 
 444   0.0000       1.136340        30.9214 
 445   0.0000       1.136956        30.9381 
 446   0.0000       1.141388        31.0587 
 447   0.0000       1.146956        31.2103 
 448   0.0000       1.149810        31.2879 
 449   0.0000       1.152045        31.3487 
 450   0.0000       1.156556        31.4715 
 451   0.0000       1.159435        31.5498 
 452   0.0000       1.165304        31.7095 
 453   0.0000       1.167639        31.7731 
 454   0.0000       1.169142        31.8140 
 455   0.0000       1.171730        31.8844 
 456   0.0000       1.178781        32.0763 
 457   0.0000       1.183210        32.1968 
 458   0.0000       1.187983        32.3267 
 459   0.0000       1.197416        32.5833 
 460   0.0000       1.198313        32.6078 
 461   0.0000       1.200698        32.6726 
 462   0.0000       1.201532        32.6954 
 463   0.0000       1.206665        32.8350 
 464   0.0000       1.208726        32.8911 
 465   0.0000       1.214823        33.0570 
 466   0.0000       1.216807        33.1110 
 467   0.0000       1.222438        33.2642 
 468   0.0000       1.224422        33.3182 
 469   0.0000       1.227505        33.4021 
 470   0.0000       1.230001        33.4700 
 471   0.0000       1.234722        33.5985 
 472   0.0000       1.237495        33.6740 
 473   0.0000       1.241867        33.7929 
 474   0.0000       1.243616        33.8405 
 475   0.0000       1.245541        33.8929 
 476   0.0000       1.249875        34.0108 
 477   0.0000       1.250842        34.0371 
 478   0.0000       1.251878        34.0653 
 479   0.0000       1.256586        34.1934 
 480   0.0000       1.261064        34.3153 
 481   0.0000       1.263412        34.3792 
 482   0.0000       1.266256        34.4566 
 483   0.0000       1.271508        34.5995 
 484   0.0000       1.277657        34.7668 
 485   0.0000       1.280811        34.8526 
 486   0.0000       1.283094        34.9148 
 487   0.0000       1.287786        35.0424 
 488   0.0000       1.289990        35.1024 
 489   0.0000       1.292810        35.1792 
 490   0.0000       1.296922        35.2911 
 491   0.0000       1.299666        35.3657 
 492   0.0000       1.304009        35.4839 
 493   0.0000       1.311307        35.6825 
 494   0.0000       1.312153        35.7055 
 495   0.0000       1.318438        35.8765 
 496   0.0000       1.319390        35.9024 
 497   0.0000       1.322066        35.9752 
 498   0.0000       1.326268        36.0896 
 499   0.0000       1.330526        36.2055 
 500   0.0000       1.331901        36.2429 
 501   0.0000       1.340522        36.4774 
 502   0.0000       1.341913        36.5153 
 503   0.0000       1.345774        36.6204 
 504   0.0000       1.347514        36.6677 
 505   0.0000       1.349906        36.7328 
 506   0.0000       1.351967        36.7889 
 507   0.0000       1.356030        36.8994 
 508   0.0000       1.358643        36.9706 
 509   0.0000       1.361811        37.0568 
[...]
      pz      :     0.022117  p :     0.079774
      px      :     0.043602
      py      :     0.014055
 77 H s       :     0.884635  s :     0.884635
      pz      :     0.047967  p :     0.079281
      px      :     0.015024
      py      :     0.016291
 78 H s       :     0.884965  s :     0.884965
      pz      :     0.025879  p :     0.079253
      px      :     0.020458
      py      :     0.032916
 79 H s       :     0.910756  s :     0.910756
      pz      :     0.021796  p :     0.086303
      px      :     0.021662
      py      :     0.042845
 80 H s       :     0.864548  s :     0.864548
      pz      :     0.039378  p :     0.084806
      px      :     0.030270
      py      :     0.015158
 81 H s       :     0.886714  s :     0.886714
      pz      :     0.037829  p :     0.084123
      px      :     0.016174
      py      :     0.030120
 82 H s       :     0.915917  s :     0.915917
      pz      :     0.021947  p :     0.086733
      px      :     0.031650
      py      :     0.033136
 83 H s       :     0.873240  s :     0.873240
      pz      :     0.039290  p :     0.084109
      px      :     0.015271
      py      :     0.029548
 84 H s       :     0.886537  s :     0.886537
      pz      :     0.035780  p :     0.083439
      px      :     0.031703
      py      :     0.015956
 85 H s       :     0.892697  s :     0.892697
      pz      :     0.022494  p :     0.079793
      px      :     0.014064
      py      :     0.043235
 86 H s       :     0.890888  s :     0.890888
      pz      :     0.024734  p :     0.078838
      px      :     0.032988
      py      :     0.021116
 87 H s       :     0.889783  s :     0.889783
      pz      :     0.048021  p :     0.078747
      px      :     0.015587
      py      :     0.015139
 88 H s       :     0.910614  s :     0.910614
      pz      :     0.021617  p :     0.087009
      px      :     0.042938
      py      :     0.022453
 89 H s       :     0.871177  s :     0.871177
      pz      :     0.037956  p :     0.083853
      px      :     0.030495
      py      :     0.015401


                      *****************************
                      * MAYER POPULATION ANALYSIS *
                      *****************************

  NA   - Mulliken gross atomic population
  ZA   - Total nuclear charge
  QA   - Mulliken gross atomic charge
  VA   - Mayer's total valence
  BVA  - Mayer's bonded valence
  FA   - Mayer's free valence

  ATOM       NA         ZA         QA         VA         BVA        FA
  0 C      5.7862     6.0000     0.2138     3.8458     3.8458    -0.0000
  1 N      7.4557     7.0000    -0.4557     3.3383     3.3383     0.0000
  2 C      6.0706     6.0000    -0.0706     3.9229     3.9229    -0.0000
  3 N      7.3396     7.0000    -0.3396     3.4562     3.4562    -0.0000
  4 C      6.0538     6.0000    -0.0538     4.0712     4.0712    -0.0000
  5 N      7.5668     7.0000    -0.5668     3.0949     3.0949     0.0000
  6 C      6.1087     6.0000    -0.1087     3.9542     3.9542    -0.0000
  7 N      7.3407     7.0000    -0.3407     3.4329     3.4329    -0.0000
  8 C      5.7909     6.0000     0.2091     3.8462     3.8462    -0.0000
  9 N      7.5621     7.0000    -0.5621     3.0770     3.0770    -0.0000
 10 C      5.8810     6.0000     0.1190     3.9092     3.9092    -0.0000
 11 N      7.4386     7.0000    -0.4386     3.3773     3.3773    -0.0000
 12 C      6.0708     6.0000    -0.0708     3.8745     3.8745    -0.0000
 13 N      7.4297     7.0000    -0.4297     3.4268     3.4268    -0.0000
 14 C      5.7737     6.0000     0.2263     3.7898     3.7898    -0.0000
 15 N      7.4408     7.0000    -0.4408     3.3731     3.3731     0.0000
 16 C      5.7705     6.0000     0.2295     3.7765     3.7765    -0.0000
 17 C      6.1217     6.0000    -0.1217     3.9700     3.9700    -0.0000
 18 C      6.1865     6.0000    -0.1865     3.7636     3.7636    -0.0000
 19 C      5.7813     6.0000     0.2187     3.8672     3.8672    -0.0000
 20 C      5.7869     6.0000     0.2131     3.8292     3.8292    -0.0000
 21 C      6.0758     6.0000    -0.0758     3.8498     3.8498    -0.0000
 22 C      6.0912     6.0000    -0.0912     3.9830     3.9830    -0.0000
 23 C      6.0397     6.0000    -0.0397     3.9926     3.9926     0.0000
 24 C      5.8065     6.0000     0.1935     3.8213     3.8213    -0.0000
 25 C      5.8853     6.0000     0.1147     3.8919     3.8919     0.0000
 26 C      6.0888     6.0000    -0.0888     3.9109     3.9109     0.0000
 27 C      5.7856     6.0000     0.2144     3.8622     3.8622     0.0000
 28 C      6.0617     6.0000    -0.0617     3.9887     3.9887    -0.0000
 29 C      6.1813     6.0000    -0.1813     3.7453     3.7453     0.0000
 30 C      5.7539     6.0000     0.2461     3.8009     3.8009    -0.0000
 31 C      5.7706     6.0000     0.2294     3.8174     3.8174     0.0000
 32 C      6.0620     6.0000    -0.0620     3.9228     3.9228    -0.0000
 33 C      6.0608     6.0000    -0.0608     3.9718     3.9718    -0.0000
 34 C      6.0514     6.0000    -0.0514     3.9837     3.9837    -0.0000
 35 C      5.7719     6.0000     0.2281     3.8169     3.8169    -0.0000
 36 C      5.8916     6.0000     0.1084     3.8752     3.8752    -0.0000
 37 C      6.0642     6.0000    -0.0642     3.9178     3.9178     0.0000
 38 C      5.7691     6.0000     0.2309     3.8003     3.8003     0.0000
 39 C      6.0575     6.0000    -0.0575     3.9834     3.9834     0.0000
 40 C      6.1816     6.0000    -0.1816     3.7275     3.7275    -0.0000
 41 C      5.7738     6.0000     0.2262     3.8872     3.8872    -0.0000
 42 C      5.8023     6.0000     0.1977     3.8257     3.8257    -0.0000
 43 C      6.0723     6.0000    -0.0723     3.9000     3.9000     0.0000
 44 C      6.0891     6.0000    -0.0891     3.9849     3.9849     0.0000
 45 C      6.0613     6.0000    -0.0613     3.9920     3.9920    -0.0000
 46 C      5.7881     6.0000     0.2119     3.8283     3.8283     0.0000
 47 C      5.8847     6.0000     0.1153     3.8926     3.8926     0.0000
 48 C      6.0669     6.0000    -0.0669     3.9095     3.9095     0.0000
 49 C      5.7612     6.0000     0.2388     3.8937     3.8937    -0.0000
 50 C      6.0464     6.0000    -0.0464     3.9903     3.9903    -0.0000
 51 C      6.1925     6.0000    -0.1925     3.7363     3.7363    -0.0000
 52 H      0.9627     1.0000     0.0373     0.9858     0.9858    -0.0000
 53 H      1.0176     1.0000    -0.0176     0.9986     0.9986    -0.0000
 54 H      0.9519     1.0000     0.0481     1.0207     1.0207    -0.0000
 55 H      0.9639     1.0000     0.0361     0.9865     0.9865    -0.0000
 56 H      0.9506     1.0000     0.0494     0.9695     0.9695    -0.0000
 57 H      0.9522     1.0000     0.0478     0.9827     0.9827     0.0000
 58 H      0.9529     1.0000     0.0471     0.9847     0.9847     0.0000
 59 H      1.0031     1.0000    -0.0031     0.9999     0.9999    -0.0000
 60 H      0.9547     1.0000     0.0453     1.0172     1.0172     0.0000
 61 H      0.8288     1.0000     0.1712     1.0421     1.0421    -0.0000
 62 H      0.8246     1.0000     0.1754     1.0436     1.0436    -0.0000
 63 H      0.9451     1.0000     0.0549     0.9853     0.9853    -0.0000
 64 H      1.0180     1.0000    -0.0180     0.9936     0.9936     0.0000
 65 H      0.9530     1.0000     0.0470     1.0098     1.0098     0.0000
 66 H      0.9446     1.0000     0.0554     0.9855     0.9855    -0.0000
 67 H      0.9379     1.0000     0.0621     0.9719     0.9719    -0.0000
 68 H      0.9429     1.0000     0.0571     0.9868     0.9868     0.0000
 69 H      0.9438     1.0000     0.0562     0.9828     0.9828    -0.0000
 70 H      1.0303     1.0000    -0.0303     0.9940     0.9940     0.0000
 71 H      0.9556     1.0000     0.0444     1.0059     1.0059    -0.0000
 72 H      0.9290     1.0000     0.0710     0.9836     0.9836     0.0000
 73 H      1.0081     1.0000    -0.0081     1.0010     1.0010     0.0000
 74 H      0.9399     1.0000     0.0601     1.0100     1.0100     0.0000
 75 H      0.9296     1.0000     0.0704     0.9839     0.9839    -0.0000
 76 H      0.9254     1.0000     0.0746     0.9721     0.9721    -0.0000
 77 H      0.9322     1.0000     0.0678     0.9855     0.9855    -0.0000
 78 H      0.9329     1.0000     0.0671     0.9854     0.9854    -0.0000
 79 H      1.0166     1.0000    -0.0166     0.9975     0.9975     0.0000
 80 H      0.9390     1.0000     0.0610     1.0072     1.0072     0.0000
 81 H      0.9455     1.0000     0.0545     0.9856     0.9856    -0.0000
 82 H      1.0247     1.0000    -0.0247     0.9935     0.9935     0.0000
 83 H      0.9578     1.0000     0.0422     1.0083     1.0083    -0.0000
 84 H      0.9455     1.0000     0.0545     0.9852     0.9852    -0.0000
 85 H      0.9389     1.0000     0.0611     0.9716     0.9716    -0.0000
 86 H      0.9443     1.0000     0.0557     0.9839     0.9839    -0.0000
 87 H      0.9426     1.0000     0.0574     0.9856     0.9856    -0.0000
 88 H      1.0145     1.0000    -0.0145     0.9967     0.9967     0.0000
 89 H      0.9532     1.0000     0.0468     1.0076     1.0076    -0.0000

  Mayer bond orders larger than 0.100000
B(  0-C ,  1-N ) :   1.0979 B(  0-C , 17-C ) :   1.7074 B(  0-C , 52-H ) :   0.9650 
B(  1-N ,  8-C ) :   1.0881 B(  1-N , 10-C ) :   0.9774 B(  2-C , 12-C ) :   1.4976 
B(  2-C , 16-C ) :   1.3648 B(  2-C , 53-H ) :   0.9737 B(  3-N , 14-C ) :   1.2207 
B(  3-N , 16-C ) :   1.1844 B(  3-N , 61-H ) :   0.8989 B(  4-C ,  6-C ) :   1.2124 
B(  4-C , 17-C ) :   1.2138 B(  4-C , 18-C ) :   1.4599 B(  5-N , 19-C ) :   1.4557 
B(  5-N , 27-C ) :   1.3744 B(  6-C ,  8-C ) :   1.7169 B(  6-C , 54-H ) :   0.9142 
B(  7-N , 30-C ) :   1.1960 B(  7-N , 38-C ) :   1.1894 B(  7-N , 62-H ) :   0.8969 
B(  8-C , 55-H ) :   0.9646 B(  9-N , 41-C ) :   1.3949 B(  9-N , 49-C ) :   1.4247 
B( 10-C , 56-H ) :   0.9774 B( 10-C , 57-H ) :   0.9822 B( 10-C , 58-H ) :   0.9843 
B( 11-N , 20-C ) :   1.1303 B( 11-N , 24-C ) :   1.1065 B( 11-N , 25-C ) :   0.9605 
B( 12-C , 14-C ) :   1.3566 B( 12-C , 59-H ) :   0.9581 B( 13-N , 31-C ) :   1.1601 
B( 13-N , 35-C ) :   1.1594 B( 13-N , 36-C ) :   0.9418 B( 14-C , 18-C ) :   1.1235 
B( 15-N , 42-C ) :   1.1084 B( 15-N , 46-C ) :   1.1247 B( 15-N , 47-C ) :   0.9610 
B( 16-C , 51-C ) :   1.1693 B( 17-C , 60-H ) :   0.9314 B( 18-C , 19-C ) :   1.1239 
B( 19-C , 21-C ) :   1.2514 B( 20-C , 28-C ) :   1.6294 B( 20-C , 63-H ) :   0.9703 
B( 21-C , 26-C ) :   1.5879 B( 21-C , 64-H ) :   0.9418 B( 22-C , 23-C ) :   1.2884 
B( 22-C , 28-C ) :   1.2632 B( 22-C , 29-C ) :   1.2267 B( 23-C , 24-C ) :   1.6211 
B( 23-C , 65-H ) :   0.9703 B( 24-C , 66-H ) :   0.9695 B( 25-C , 67-H ) :   0.9760 
B( 25-C , 68-H ) :   0.9828 B( 25-C , 69-H ) :   0.9823 B( 26-C , 27-C ) :   1.2557 
B( 26-C , 70-H ) :   0.9689 B( 27-C , 29-C ) :   1.2067 B( 28-C , 71-H ) :   0.9720 
B( 29-C , 30-C ) :   1.2451 B( 30-C , 32-C ) :   1.2803 B( 31-C , 39-C ) :   1.5888 
B( 31-C , 72-H ) :   0.9682 B( 32-C , 37-C ) :   1.5783 B( 32-C , 73-H ) :   0.9786 
B( 33-C , 34-C ) :   1.3059 B( 33-C , 39-C ) :   1.3034 B( 33-C , 40-C ) :   1.1782 
B( 34-C , 35-C ) :   1.5866 B( 34-C , 74-H ) :   0.9697 B( 35-C , 75-H ) :   0.9681 
B( 36-C , 76-H ) :   0.9768 B( 36-C , 77-H ) :   0.9816 B( 36-C , 78-H ) :   0.9823 
B( 37-C , 38-C ) :   1.2863 B( 37-C , 79-H ) :   0.9765 B( 38-C , 40-C ) :   1.2328 
B( 39-C , 80-H ) :   0.9705 B( 40-C , 41-C ) :   1.2502 B( 41-C , 43-C ) :   1.1844 
B( 42-C , 50-C ) :   1.6324 B( 42-C , 81-H ) :   0.9696 B( 43-C , 48-C ) :   1.6685 
B( 43-C , 82-H ) :   0.9722 B( 44-C , 45-C ) :   1.2642 B( 44-C , 50-C ) :   1.2730 
B( 44-C , 51-C ) :   1.2591 B( 45-C , 46-C ) :   1.6339 B( 45-C , 83-H ) :   0.9718 
B( 46-C , 84-H ) :   0.9700 B( 47-C , 85-H ) :   0.9762 B( 47-C , 86-H ) :   0.9829 
B( 47-C , 87-H ) :   0.9824 B( 48-C , 49-C ) :   1.1879 B( 48-C , 88-H ) :   0.9748 
B( 49-C , 51-C ) :   1.2444 B( 50-C , 89-H ) :   0.9709 

-------
TIMINGS
-------

Total SCF time: 0 days 0 hours 30 min 57 sec 

Total time                  ....    1857.247 sec
Sum of individual times     ....    1852.665 sec  ( 99.8%)

Fock matrix formation       ....    1829.464 sec  ( 98.5%)
Diagonalization             ....       6.890 sec  (  0.4%)
Density matrix formation    ....       0.701 sec  (  0.0%)
Population analysis         ....       0.526 sec  (  0.0%)
Initial guess               ....       2.054 sec  (  0.1%)
Orbital Transformation      ....       0.000 sec  (  0.0%)
Orbital Orthonormalization  ....       0.000 sec  (  0.0%)
DIIS solution               ....       3.507 sec  (  0.2%)
SOSCF solution              ....       8.466 sec  (  0.5%)

Maximum memory used throughout the entire SCF-calculation: 302.7 MB


           ************************************************************
           *        Program running with 16 parallel MPI-processes    *
           *              working on a common directory               *
           ************************************************************

------------------------------------------------------------------------------
                                ORCA  MP2 
------------------------------------------------------------------------------

Freezing NCore=104 chemical core electrons

----------
MP2 ENERGY (disk based algorithm)
----------

Dimension of the basis                    ...  918
Memory devoted to MP2                     ... 2000 MB   
Data format for buffers                   ... DOUBLE
Compression type for matrix containers    ... UNCOMPRESSED

-------------------------------
PARTIAL EXCHANGE TRANSFORMATION
-------------------------------

Transformation type                        ... one-operator
Generation of integrals (i,mue|j,nue)      ... ON
Generation of integrals (mue,kappa|nue,tau)... OFF
Generation of integrals (i,mue|a,nue)      ... OFF
Dimension of the basis                     ...  918
Number of internal MOs                     ...  127 (  52- 178)
Pair cutoff                                ... 2.500e-12 Eh
Number of AO pairs in the trafo            ... 421821
Total Number of distinct AO pairs          ... 421821
Memory devoted for trafo                   ... 2000.0 MB 
Max. Number of MO pairs treated together   ...  311      
Number Format for Storage                  ... Double (8 Byte)
Integral package used                      ... LIBINT

Starting integral evaluation:
    ... done with AO integral generation
Closing buffer AOK     (38.41 GB; CompressionRatio= 1.32)
Collecting buffer AOK 
Number of MO pairs included in the trafo   ... 8128
------------------------
SORTING OF (i,mue|j,nue)
------------------------

IBATCH = 1 of  2
IBATCH = 2 of  2
Closing buffer KAO     (51.03 GB; CompressionRatio= 1.00)
Collecting buffer KAO 
N(AO-Batches) Done                         ...  85790910 
N(AO-Batches) Skipped                      ...  82644215 
N(IJ)-pairs Skipped                        ...         0 
TOTAL TIME for half transformation         ...  3207.017 sec
AO-integral generation                     ...   214.522 sec
Half transformation                        ...   373.272 sec
K-integral sorting                         ...  2442.711 sec
Process 13:   Internal MO 156
Process 10:   Internal MO 132

Finished integral transformation - now doing MP2 part

OPERATOR COMBINATION   0   0: ij=( 52..178, 52..178)
Process  4:   Internal MO  84
Process  1:   Internal MO  60
Process  7:   Internal MO 108
Process  2:   Internal MO  69
Process  1:   Internal MO  63
Process  2:   Internal MO  72
Process  8:   Internal MO 117
Process  1:   Internal MO  66
Process  0:   Internal MO  54
Process 14:   Internal MO 165
Process  6:   Internal MO 102
Process  0:   Internal MO  57
Process  5:   Internal MO  93
Process  2:   Internal MO  75
Process  3:   Internal MO  78
Process  9:   Internal MO 126
Process 11:   Internal MO 141
Process  7:   Internal MO 111
Process  3:   Internal MO  81
Process 12:   Internal MO 150
Process 10:   Internal MO 135
Process  5:   Internal MO  96
Process 15:   Internal MO 174
Process  6:   Internal MO 105
Process  8:   Internal MO 120
Process  4:   Internal MO  87
Process  7:   Internal MO 114
Process  9:   Internal MO 129
Process  5:   Internal MO  99
Process 13:   Internal MO 159
Process  4:   Internal MO  90
Process 14:   Internal MO 168
Process 12:   Internal MO 153
Process 11:   Internal MO 144
Process 10:   Internal MO 138
Process  8:   Internal MO 123
Process 15:   Internal MO 177
Process 13:   Internal MO 162
Process 11:   Internal MO 147
Process 14:   Internal MO 171
-----------------------------------------------
 MP2 CORRELATION ENERGY   :     -7.286551249 Eh
-----------------------------------------------


-------
TIMINGS
-------
Total time                : 3562.840 sec
Integral trafo            : 3209.362 sec ( 90.1%)
K(i,j)                    :   45.959 sec (  1.3%)
T(i,j)                    :    1.567 sec (  0.0%)

---------------------------------------
MP2 TOTAL ENERGY:    -2130.831137101 Eh
---------------------------------------

Maximum memory used throughout the entire MP2-calculation: 2275.3 MB

-------------------------   --------------------
FINAL SINGLE POINT ENERGY     -2130.831137100503
-------------------------   --------------------


                            ***************************************
                            *     ORCA property calculations      *
                            ***************************************


  WARNING: The energy has been calculated at the MP2 level but the densities
           used in the property calculations are still SCF densities
           MP2 response densities have not been calculated 
           use %mp2 Density relaxed end
           or  %mp2 Density unrelaxed end

                                    ---------------------
                                    Active property flags
                                    ---------------------
   (+) Dipole Moment


------------------------------------------------------------------------------
                       ORCA ELECTRIC PROPERTIES CALCULATION
------------------------------------------------------------------------------

Dipole Moment Calculation                       ... on
Quadrupole Moment Calculation                   ... off
Polarizability Calculation                      ... off
GBWName                                         ... /scratch/allen/tmpyp4_amber_gaff2/conf1/conf1/Conf21.orca.gbw
Electron density                                ... /scratch/allen/tmpyp4_amber_gaff2/conf1/conf1/Conf21.orca.scfp
The origin for moment calculation is the CENTER OF MASS  = (-0.000960, -0.004732  0.002881)

-------------
DIPOLE MOMENT
-------------
                                X             Y             Z
Electronic contribution:      2.83447      -4.13508      -0.10459
Nuclear contribution   :     -0.04563       0.15578       0.12116
                        -----------------------------------------
Total Dipole Moment    :      2.78884      -3.97930       0.01657
                        -----------------------------------------
Magnitude (a.u.)       :      4.85930
Magnitude (Debye)      :     12.35135



--------------------
Rotational spectrum 
--------------------
 
Rotational constants in cm-1:     0.001503     0.001477     0.000760 
Rotational constants in MHz :    45.051831    44.288347    22.789137 

 Dipole components along the rotational axes: 
x,y,z [a.u.] :     3.505397     3.365193     0.020826 
x,y,z [Debye]:     8.910011     8.553641     0.052936 

 

Timings for individual modules:

Sum of individual times         ...     5441.777 sec (=  90.696 min)
GTO integral calculation        ...        3.290 sec (=   0.055 min)   0.1 %
SCF iterations                  ...     1858.317 sec (=  30.972 min)  34.1 %
MP2 module                      ...     3580.171 sec (=  59.670 min)  65.8 %
                             ****ORCA TERMINATED NORMALLY****
TOTAL RUN TIME: 0 days 1 hours 30 minutes 45 seconds 269 msec
# of primitive gaussian functions

