
                                 *****************
                                 * O   R   C   A *
                                 *****************

                                            #,                                       
                                            ###                                      
                                            ####                                     
                                            #####                                    
                                            ######                                   
                                           ########,                                 
                                     ,,################,,,,,                         
                               ,,#################################,,                 
                          ,,##########################################,,             
                       ,#########################################, ''#####,          
                    ,#############################################,,   '####,        
                  ,##################################################,,,,####,       
                ,###########''''           ''''###############################       
              ,#####''   ,,,,##########,,,,          '''####'''          '####       
            ,##' ,,,,###########################,,,                        '##       
           ' ,,###''''                  '''############,,,                           
         ,,##''                                '''############,,,,        ,,,,,,###''
      ,#''                                            '''#######################'''  
     '                                                          ''''####''''         
             ,#######,   #######,   ,#######,      ##                                
            ,#'     '#,  ##    ##  ,#'     '#,    #''#        ######   ,####,        
            ##       ##  ##   ,#'  ##            #'  '#       #        #'  '#        
            ##       ##  #######   ##           ,######,      #####,   #    #        
            '#,     ,#'  ##    ##  '#,     ,#' ,#      #,         ##   #,  ,#        
             '#######'   ##     ##  '#######'  #'      '#     #####' # '####'        



                  #######################################################
                  #                        -***-                        #
                  #          Department of theory and spectroscopy      #
                  #    Directorship and core code : Frank Neese         #
                  #        Max Planck Institute fuer Kohlenforschung    #
                  #                Kaiser Wilhelm Platz 1               #
                  #                 D-45470 Muelheim/Ruhr               #
                  #                      Germany                        #
                  #                                                     #
                  #                  All rights reserved                #
                  #                        -***-                        #
                  #######################################################


                         Program Version 5.0.4 -  RELEASE  -


 With contributions from (in alphabetic order):
   Daniel Aravena         : Magnetic Suceptibility
   Michael Atanasov       : Ab Initio Ligand Field Theory (pilot matlab implementation)
   Alexander A. Auer      : GIAO ZORA, VPT2 properties, NMR spectrum
   Ute Becker             : Parallelization
   Giovanni Bistoni       : ED, misc. LED, open-shell LED, HFLD
   Martin Brehm           : Molecular dynamics
   Dmytro Bykov           : SCF Hessian
   Vijay G. Chilkuri      : MRCI spin determinant printing, contributions to CSF-ICE
   Dipayan Datta          : RHF DLPNO-CCSD density
   Achintya Kumar Dutta   : EOM-CC, STEOM-CC
   Dmitry Ganyushin       : Spin-Orbit,Spin-Spin,Magnetic field MRCI
   Miquel Garcia          : C-PCM and meta-GGA Hessian, CC/C-PCM, Gaussian charge scheme
   Yang Guo               : DLPNO-NEVPT2, F12-NEVPT2, CIM, IAO-localization
   Andreas Hansen         : Spin unrestricted coupled pair/coupled cluster methods
   Benjamin Helmich-Paris : MC-RPA, TRAH-SCF, COSX integrals
   Lee Huntington         : MR-EOM, pCC
   Robert Izsak           : Overlap fitted RIJCOSX, COSX-SCS-MP3, EOM
   Marcus Kettner         : VPT2
   Christian Kollmar      : KDIIS, OOCD, Brueckner-CCSD(T), CCSD density, CASPT2, CASPT2-K
   Simone Kossmann        : Meta GGA functionals, TD-DFT gradient, OOMP2, MP2 Hessian
   Martin Krupicka        : Initial AUTO-CI
   Lucas Lang             : DCDCAS
   Marvin Lechner         : AUTO-CI (C++ implementation), FIC-MRCC
   Dagmar Lenk            : GEPOL surface, SMD
   Dimitrios Liakos       : Extrapolation schemes; Compound Job, initial MDCI parallelization
   Dimitrios Manganas     : Further ROCIS development; embedding schemes
   Dimitrios Pantazis     : SARC Basis sets
   Anastasios Papadopoulos: AUTO-CI, single reference methods and gradients
   Taras Petrenko         : DFT Hessian,TD-DFT gradient, ASA, ECA, R-Raman, ABS, FL, XAS/XES, NRVS
   Peter Pinski           : DLPNO-MP2, DLPNO-MP2 Gradient
   Christoph Reimann      : Effective Core Potentials
   Marius Retegan         : Local ZFS, SOC
   Christoph Riplinger    : Optimizer, TS searches, QM/MM, DLPNO-CCSD(T), (RO)-DLPNO pert. Triples
   Tobias Risthaus        : Range-separated hybrids, TD-DFT gradient, RPA, STAB
   Michael Roemelt        : Original ROCIS implementation
   Masaaki Saitow         : Open-shell DLPNO-CCSD energy and density
   Barbara Sandhoefer     : DKH picture change effects
   Avijit Sen             : IP-ROCIS
   Kantharuban Sivalingam : CASSCF convergence, NEVPT2, FIC-MRCI
   Bernardo de Souza      : ESD, SOC TD-DFT
   Georgi Stoychev        : AutoAux, RI-MP2 NMR, DLPNO-MP2 response
   Willem Van den Heuvel  : Paramagnetic NMR
   Boris Wezisla          : Elementary symmetry handling
   Frank Wennmohs         : Technical directorship


 We gratefully acknowledge several colleagues who have allowed us to
 interface, adapt or use parts of their codes:
   Stefan Grimme, W. Hujo, H. Kruse, P. Pracht,  : VdW corrections, initial TS optimization,
                  C. Bannwarth, S. Ehlert          DFT functionals, gCP, sTDA/sTD-DF
   Ed Valeev, F. Pavosevic, A. Kumar             : LibInt (2-el integral package), F12 methods
   Garnet Chan, S. Sharma, J. Yang, R. Olivares  : DMRG
   Ulf Ekstrom                                   : XCFun DFT Library
   Mihaly Kallay                                 : mrcc  (arbitrary order and MRCC methods)
   Jiri Pittner, Ondrej Demel                    : Mk-CCSD
   Frank Weinhold                                : gennbo (NPA and NBO analysis)
   Christopher J. Cramer and Donald G. Truhlar   : smd solvation model
   Lars Goerigk                                  : TD-DFT with DH, B97 family of functionals
   V. Asgeirsson, H. Jonsson                     : NEB implementation
   FAccTs GmbH                                   : IRC, NEB, NEB-TS, DLPNO-Multilevel, CI-OPT
                                                   MM, QMMM, 2- and 3-layer-ONIOM, Crystal-QMMM,
                                                   LR-CPCM, SF, NACMEs, symmetry and pop. for TD-DFT,
                                                   nearIR, NL-DFT gradient (VV10), updates on ESD,
                                                   ML-optimized integration grids
   S Lehtola, MJT Oliveira, MAL Marques          : LibXC Library
   Liviu Ungur et al                             : ANISO software


 Your calculation uses the libint2 library for the computation of 2-el integrals
 For citations please refer to: http://libint.valeyev.net

 Your ORCA version has been built with support for libXC version: 5.1.0
 For citations please refer to: https://tddft.org/programs/libxc/

 This ORCA versions uses:
   CBLAS   interface :  Fast vector & matrix operations
   LAPACKE interface :  Fast linear algebra routines
   SCALAPACK package :  Parallel linear algebra routines
   Shared memory     :  Shared parallel matrices
   BLAS/LAPACK       :  OpenBLAS 0.3.15  USE64BITINT DYNAMIC_ARCH NO_AFFINITY Sandybridge SINGLE_THREADED
        Core in use  :  Sandybridge
   Copyright (c) 2011-2014, The OpenBLAS Project


================================================================================

----- Orbital basis set information -----
Your calculation utilizes the basis: cc-pVDZ 
       H, B-Ne : Obtained from the ccRepo (grant-hill.group.shef.ac.uk/ccrepo) Feb. 2017
                 T. H. Dunning, Jr., J. Chem. Phys. 90, 1007 (1989)
            He : Obtained from the ccRepo (grant-hill.group.shef.ac.uk/ccrepo) Feb. 2017
                 D. E. Woon, T. H. Dunning, Jr., J. Chem. Phys. 100, 2975 (1994)
  Li-Be, Na-Mg : Obtained from the ccRepo (grant-hill.group.shef.ac.uk/ccrepo) Feb. 2017
                 B. P. Prascher, D. E. Woon, K. A. Peterson, T. H. Dunning, Jr., A. K. Wilson, Theor. Chem. Acc. 128, 69 (2011)
         Al-Ar : Obtained from the ccRepo (grant-hill.group.shef.ac.uk/ccrepo) Feb. 2017
                 D. E. Woon, T. H. Dunning, Jr., J. Chem. Phys. 98, 1358 (1993)
            Ca : Obtained from the Peterson Research Group Website (tyr0.chem.wsu.edu/~kipeters) Feb. 2017
                 J. Koput, K. A. Peterson, J. Phys. Chem. 106, 9595 (2002)
         Sc-Zn : Obtained from the ccRepo (grant-hill.group.shef.ac.uk/ccrepo) Feb. 2017
                 N. B. Balabanov, K. A. Peterson, J. Chem. Phys. 123, 064107 (2005)
                 N. B. Balabanov, K. A. Peterson, J. Chem. Phys. 125, 074110 (2006)
         Ga-Kr : Obtained from the ccRepo (grant-hill.group.shef.ac.uk/ccrepo) Feb. 2017
                 A. K. Wilson, D. E. Woon, K. A. Peterson, T. H. Dunning, Jr., J. Chem. Phys. 110, 7667 (1999)

================================================================================
                                        WARNINGS
                       Please study these warnings very carefully!
================================================================================


WARNING: No MP2 level density has been requested!
         To caclulate MP2 level properties use
         %mp2 Density relaxed end
         or
         %mp2 Density unrelaxed end

WARNING: Post HF methods need fully converged wavefunctions
  ===> : Setting SCFConvForced true
         You can overwrite this default with %scf ConvForced false 


INFO   : the flag for use of the SHARK integral package has been found!

================================================================================
                                       INPUT FILE
================================================================================
NAME = /scratch/allen/tmpyp4_amber_gaff2/2.Mdgx/conf11/conf11/Conf139.orca
|  1> ! PAL2
|  2> ! mp2 cc-pvdz TightSCF  NoKeepInts
|  3> 
|  4> %scf
|  5>   MaxCore 2000
|  6> end
|  7> %mp2
|  8>   MaxCore 2000
|  9> end
| 10> * xyz 0 1
| 11>    C       -4.70100         5.37200        -0.71500
| 12>    C        1.47400         4.04100         0.05700
| 13>    C       -2.80200         4.09300         0.04900
| 14>    C       -2.46900         5.17700         0.87500
| 15>    C       -3.25600         6.31100         0.88200
| 16>    C       -5.19600         7.61300         0.15100
| 17>    C        0.13200         4.30700         0.06100
| 18>    C       -0.56900         3.05600         0.04700
| 19>    C        1.64900         2.61800         0.02300
| 20>    C       -3.94800         4.21400        -0.75200
| 21>    N       -4.35200         6.39900         0.09300
| 22>    N        0.38800         2.06700         0.02500
| 23>    N       -2.01000         0.39500        -0.07500
| 24>    N       -0.38800        -2.07400        -0.02700
| 25>    N        2.01000        -0.40100         0.06500
| 26>    C       -1.96000         2.86100         0.02400
| 27>    C       -2.62300         1.61500        -0.01800
| 28>    C       -5.57300        -4.32900         1.06600
| 29>    C       -4.07300         1.47100         0.05600
| 30>    C       -4.10600        -2.75600        -0.02600
| 31>    C       -4.99500        -2.75700        -1.11100
| 32>    C       -6.13200        -3.54200        -1.07600
| 33>    C       -7.65100        -5.11300         0.04000
| 34>    C       -4.32400         0.14100         0.03700
| 35>    C       -3.02500        -0.52000        -0.04800
| 36>    C       -4.42200        -3.56600         1.07500
| 37>    N       -6.40700        -4.31300         0.00100
| 38>    C       -2.86700        -1.92200        -0.04000
| 39>    C       -1.65000        -2.62400        -0.02700
| 40>    C        3.56800        -6.14200        -1.04000
| 41>    C       -1.47600        -4.04900        -0.03400
| 42>    C        2.80300        -4.09900        -0.00800
| 43>    C        3.65700        -4.38400         1.06900
| 44>    C        4.42700        -5.53000         1.05900
| 45>    C        5.24500        -7.58800         0.01400
| 46>    C       -0.13400        -4.31500        -0.02200
| 47>    C        0.56800        -3.06400        -0.02700
| 48>    C        2.77500        -5.01200        -1.07400
| 49>    N        4.37600        -6.39100         0.01700
| 50>    C        1.95900        -2.86900        -0.00900
| 51>    C        2.62100        -1.62200         0.00900
| 52>    C        5.54300         4.33900        -1.13000
| 53>    C        4.07000        -1.47900        -0.09400
| 54>    C        4.10400         2.75100        -0.02100
| 55>    C        5.02700         2.72900         1.03600
| 56>    C        6.16600         3.50900         0.97800
| 57>    C        7.61900         5.15300        -0.11500
| 58>    C        4.32100        -0.14800        -0.09200
| 59>    C        3.02500         0.51400         0.01500
| 60>    C        4.38700         3.58200        -1.11500
| 61>    C        2.86600         1.91600         0.01300
| 62>    N        6.41300         4.29600        -0.09500
| 63>    H       -5.58500         5.51400        -1.32400
| 64>    H        2.27400         4.76600         0.08100
| 65>    H       -1.60200         5.14000         1.52400
| 66>    H       -3.04500         7.16800         1.50900
| 67>    H       -5.91900         7.50500         0.96400
| 68>    H       -4.55600         8.47700         0.33100
| 69>    H       -5.71600         7.72400        -0.80000
| 70>    H       -0.33200         5.28200         0.06900
| 71>    H       -4.25000         3.41700        -1.42200
| 72>    H        0.18200         1.07200         0.00500
| 73>    H       -0.18300        -1.08000        -0.02100
| 74>    H       -5.86400        -4.96200         1.89500
| 75>    H       -4.79400         2.27200         0.13900
| 76>    H       -4.80000        -2.16000        -1.99400
| 77>    H       -6.84100        -3.58200        -1.89300
| 78>    H       -8.42800        -4.53600         0.54600
| 79>    H       -7.95600        -5.33700        -0.98100
| 80>    H       -7.45600        -6.03700         0.58400
| 81>    H       -5.28700        -0.34400         0.10000
| 82>    H       -3.78000        -3.60100         1.94700
| 83>    H        3.58700        -6.86800        -1.84300
| 84>    H       -2.27600        -4.77400        -0.05000
| 85>    H        3.71400        -3.72400         1.92600
| 86>    H        5.09200        -5.79500         1.87100
| 87>    H        6.20500        -7.32900        -0.43900
| 88>    H        5.39300        -7.91700         1.04200
| 89>    H        4.75900        -8.37300        -0.56400
| 90>    H        0.32900        -5.29000        -0.00800
| 91>    H        2.14600        -4.84200        -1.94000
| 92>    H        5.80800         4.98600        -1.95600
| 93>    H        4.78800        -2.28100        -0.18500
| 94>    H        4.86000         2.11400         1.91200
| 95>    H        6.90100         3.53100         1.77200
| 96>    H        7.38300         6.10900         0.35600
| 97>    H        8.41400         4.65200         0.43500
| 98>    H        7.92100         5.31000        -1.15000
| 99>    H        5.28300         0.33600        -0.17900
|100>    H        3.72000         3.63200        -1.96700
|101> *
|102> 
|103>                          ****END OF INPUT****
================================================================================

                       ****************************
                       * Single Point Calculation *
                       ****************************

---------------------------------
CARTESIAN COORDINATES (ANGSTROEM)
---------------------------------
  C     -4.701000    5.372000   -0.715000
  C      1.474000    4.041000    0.057000
  C     -2.802000    4.093000    0.049000
  C     -2.469000    5.177000    0.875000
  C     -3.256000    6.311000    0.882000
  C     -5.196000    7.613000    0.151000
  C      0.132000    4.307000    0.061000
  C     -0.569000    3.056000    0.047000
  C      1.649000    2.618000    0.023000
  C     -3.948000    4.214000   -0.752000
  N     -4.352000    6.399000    0.093000
  N      0.388000    2.067000    0.025000
  N     -2.010000    0.395000   -0.075000
  N     -0.388000   -2.074000   -0.027000
  N      2.010000   -0.401000    0.065000
  C     -1.960000    2.861000    0.024000
  C     -2.623000    1.615000   -0.018000
  C     -5.573000   -4.329000    1.066000
  C     -4.073000    1.471000    0.056000
  C     -4.106000   -2.756000   -0.026000
  C     -4.995000   -2.757000   -1.111000
  C     -6.132000   -3.542000   -1.076000
  C     -7.651000   -5.113000    0.040000
  C     -4.324000    0.141000    0.037000
  C     -3.025000   -0.520000   -0.048000
  C     -4.422000   -3.566000    1.075000
  N     -6.407000   -4.313000    0.001000
  C     -2.867000   -1.922000   -0.040000
  C     -1.650000   -2.624000   -0.027000
  C      3.568000   -6.142000   -1.040000
  C     -1.476000   -4.049000   -0.034000
  C      2.803000   -4.099000   -0.008000
  C      3.657000   -4.384000    1.069000
  C      4.427000   -5.530000    1.059000
  C      5.245000   -7.588000    0.014000
  C     -0.134000   -4.315000   -0.022000
  C      0.568000   -3.064000   -0.027000
  C      2.775000   -5.012000   -1.074000
  N      4.376000   -6.391000    0.017000
  C      1.959000   -2.869000   -0.009000
  C      2.621000   -1.622000    0.009000
  C      5.543000    4.339000   -1.130000
  C      4.070000   -1.479000   -0.094000
  C      4.104000    2.751000   -0.021000
  C      5.027000    2.729000    1.036000
  C      6.166000    3.509000    0.978000
  C      7.619000    5.153000   -0.115000
  C      4.321000   -0.148000   -0.092000
  C      3.025000    0.514000    0.015000
  C      4.387000    3.582000   -1.115000
  C      2.866000    1.916000    0.013000
  N      6.413000    4.296000   -0.095000
  H     -5.585000    5.514000   -1.324000
  H      2.274000    4.766000    0.081000
  H     -1.602000    5.140000    1.524000
  H     -3.045000    7.168000    1.509000
  H     -5.919000    7.505000    0.964000
  H     -4.556000    8.477000    0.331000
  H     -5.716000    7.724000   -0.800000
  H     -0.332000    5.282000    0.069000
  H     -4.250000    3.417000   -1.422000
  H      0.182000    1.072000    0.005000
  H     -0.183000   -1.080000   -0.021000
  H     -5.864000   -4.962000    1.895000
  H     -4.794000    2.272000    0.139000
  H     -4.800000   -2.160000   -1.994000
  H     -6.841000   -3.582000   -1.893000
  H     -8.428000   -4.536000    0.546000
  H     -7.956000   -5.337000   -0.981000
  H     -7.456000   -6.037000    0.584000
  H     -5.287000   -0.344000    0.100000
  H     -3.780000   -3.601000    1.947000
  H      3.587000   -6.868000   -1.843000
  H     -2.276000   -4.774000   -0.050000
  H      3.714000   -3.724000    1.926000
  H      5.092000   -5.795000    1.871000
  H      6.205000   -7.329000   -0.439000
  H      5.393000   -7.917000    1.042000
  H      4.759000   -8.373000   -0.564000
  H      0.329000   -5.290000   -0.008000
  H      2.146000   -4.842000   -1.940000
  H      5.808000    4.986000   -1.956000
  H      4.788000   -2.281000   -0.185000
  H      4.860000    2.114000    1.912000
  H      6.901000    3.531000    1.772000
  H      7.383000    6.109000    0.356000
  H      8.414000    4.652000    0.435000
  H      7.921000    5.310000   -1.150000
  H      5.283000    0.336000   -0.179000
  H      3.720000    3.632000   -1.967000

----------------------------
CARTESIAN COORDINATES (A.U.)
----------------------------
  NO LB      ZA    FRAG     MASS         X           Y           Z
   0 C     6.0000    0    12.011   -8.883603   10.151609   -1.351154
   1 C     6.0000    0    12.011    2.785456    7.636383    0.107714
   2 C     6.0000    0    12.011   -5.295013    7.734649    0.092597
   3 C     6.0000    0    12.011   -4.665734    9.783112    1.653510
   4 C     6.0000    0    12.011   -6.152948   11.926062    1.666738
   5 C     6.0000    0    12.011   -9.819017   14.386485    0.285349
   6 C     6.0000    0    12.011    0.249444    8.139050    0.115273
   7 C     6.0000    0    12.011   -1.075254    5.775003    0.088817
   8 C     6.0000    0    12.011    3.116158    4.947303    0.043464
   9 C     6.0000    0    12.011   -7.460639    7.963306   -1.421074
  10 N     7.0000    0    14.007   -8.224088   12.092358    0.175745
  11 N     7.0000    0    14.007    0.733214    3.906064    0.047243
  12 N     7.0000    0    14.007   -3.798350    0.746442   -0.141729
  13 N     7.0000    0    14.007   -0.733214   -3.919292   -0.051023
  14 N     7.0000    0    14.007    3.798350   -0.757780    0.122832
  15 C     6.0000    0    12.011   -3.703863    5.406506    0.045353
  16 C     6.0000    0    12.011   -4.956752    3.051908   -0.034015
  17 C     6.0000    0    12.011  -10.531444   -8.180624    2.014448
  18 C     6.0000    0    12.011   -7.696855    2.779787    0.105825
  19 C     6.0000    0    12.011   -7.759216   -5.208085   -0.049133
  20 C     6.0000    0    12.011   -9.439182   -5.209975   -2.099486
  21 C     6.0000    0    12.011  -11.587801   -6.693410   -2.033345
  22 C     6.0000    0    12.011  -14.458295   -9.662170    0.075589
  23 C     6.0000    0    12.011   -8.171176    0.266451    0.069920
  24 C     6.0000    0    12.011   -5.716422   -0.982658   -0.090707
  25 C     6.0000    0    12.011   -8.356369   -6.738763    2.031456
  26 N     7.0000    0    14.007  -12.107475   -8.150389    0.001890
  27 C     6.0000    0    12.011   -5.417845   -3.632054   -0.075589
  28 C     6.0000    0    12.011   -3.118048   -4.958641   -0.051023
  29 C     6.0000    0    12.011    6.742543  -11.606698   -1.965315
  30 C     6.0000    0    12.011   -2.789236   -7.651501   -0.064251
  31 C     6.0000    0    12.011    5.296902   -7.745987   -0.015118
  32 C     6.0000    0    12.011    6.910728   -8.284559    2.020117
  33 C     6.0000    0    12.011    8.365818  -10.450186    2.001220
  34 C     6.0000    0    12.011    9.911614  -14.339242    0.026456
  35 C     6.0000    0    12.011   -0.253223   -8.154168   -0.041574
  36 C     6.0000    0    12.011    1.073364   -5.790121   -0.051023
  37 C     6.0000    0    12.011    5.243990   -9.471307   -2.029566
  38 N     7.0000    0    14.007    8.269442  -12.077240    0.032125
  39 C     6.0000    0    12.011    3.701973   -5.421624   -0.017008
  40 C     6.0000    0    12.011    4.952972   -3.065136    0.017008
  41 C     6.0000    0    12.011   10.474752    8.199522   -2.135391
  42 C     6.0000    0    12.011    7.691185   -2.794905   -0.177634
  43 C     6.0000    0    12.011    7.755436    5.198637   -0.039684
  44 C     6.0000    0    12.011    9.499653    5.157063    1.957756
  45 C     6.0000    0    12.011   11.652051    6.631049    1.848152
  46 C     6.0000    0    12.011   14.397823    9.737759   -0.217319
  47 C     6.0000    0    12.011    8.165507   -0.279679   -0.173855
  48 C     6.0000    0    12.011    5.716422    0.971319    0.028346
  49 C     6.0000    0    12.011    8.290229    6.768999   -2.107045
  50 C     6.0000    0    12.011    5.415955    3.620715    0.024566
  51 N     7.0000    0    14.007   12.118814    8.118263   -0.179524
  52 H     1.0000    0     1.008  -10.554120   10.419950   -2.501997
  53 H     1.0000    0     1.008    4.297237    9.006435    0.153068
  54 H     1.0000    0     1.008   -3.027341    9.713192    2.879943
  55 H     1.0000    0     1.008   -5.754216   13.545557    2.851597
  56 H     1.0000    0     1.008  -11.185289   14.182395    1.821696
  57 H     1.0000    0     1.008   -8.609592   16.019208    0.625499
  58 H     1.0000    0     1.008  -10.801675   14.596245   -1.511781
  59 H     1.0000    0     1.008   -0.627389    9.981533    0.130391
  60 H     1.0000    0     1.008   -8.031336    6.457194   -2.687191
  61 H     1.0000    0     1.008    0.343930    2.025786    0.009449
  62 H     1.0000    0     1.008   -0.345820   -2.040904   -0.039684
  63 H     1.0000    0     1.008  -11.081354   -9.376821    3.581031
  64 H     1.0000    0     1.008   -9.059347    4.293458    0.262672
  65 H     1.0000    0     1.008   -9.070685   -4.081808   -3.768114
  66 H     1.0000    0     1.008  -12.927616   -6.768999   -3.577252
  67 H     1.0000    0     1.008  -15.926612   -8.571798    1.031790
  68 H     1.0000    0     1.008  -15.034661  -10.085468   -1.853821
  69 H     1.0000    0     1.008  -14.089798  -11.408277    1.103600
  70 H     1.0000    0     1.008   -9.990982   -0.650066    0.188973
  71 H     1.0000    0     1.008   -7.143165   -6.804904    3.679297
  72 H     1.0000    0     1.008    6.778448  -12.978639   -3.482765
  73 H     1.0000    0     1.008   -4.301017   -9.021553   -0.094486
  74 H     1.0000    0     1.008    7.018443   -7.037340    3.639613
  75 H     1.0000    0     1.008    9.622485  -10.950963    3.535678
  76 H     1.0000    0     1.008   11.725751  -13.849803   -0.829590
  77 H     1.0000    0     1.008   10.191293  -14.960962    1.969095
  78 H     1.0000    0     1.008    8.993207  -15.822677   -1.065806
  79 H     1.0000    0     1.008    0.621720   -9.996651   -0.015118
  80 H     1.0000    0     1.008    4.055352   -9.150054   -3.666069
  81 H     1.0000    0     1.008   10.975529    9.422175   -3.696304
  82 H     1.0000    0     1.008    9.048009   -4.310465   -0.349599
  83 H     1.0000    0     1.008    9.184069    3.994881    3.613156
  84 H     1.0000    0     1.008   13.041000    6.672623    3.348595
  85 H     1.0000    0     1.008   13.951848   11.544337    0.672743
  86 H     1.0000    0     1.008   15.900156    8.791006    0.822031
  87 H     1.0000    0     1.008   14.968521   10.034446   -2.173185
  88 H     1.0000    0     1.008    9.983423    0.634948   -0.338261
  89 H     1.0000    0     1.008    7.029781    6.863485   -3.717091

--------------------------------
INTERNAL COORDINATES (ANGSTROEM)
--------------------------------
 C      0   0   0     0.000000000000     0.00000000     0.00000000
 C      1   0   0     6.363817250676     0.00000000     0.00000000
 C      1   2   0     2.413656562148    24.12478268     0.00000000
 C      3   1   2     1.402932999113    87.91825011    64.89645358
 C      4   3   1     1.380352853440   120.16055313     0.14662050
 C      5   4   3     2.448094156686   152.52623128     1.61714189
 C      2   1   3     1.368114030335     7.19826100   308.10761238
 C      7   2   4     1.434084376876   108.05010202   246.02408748
 C      2   1   3     1.434123425651   108.84796996    34.32367464
 C      1   2   7     1.381789419557    45.50826972   268.53926590
 N      1   2   7     1.352550923256    80.55881104    61.48202294
 N      9   2   1     1.376127174356   106.58526707   351.67371132
 N     12   9   2     2.925062050624   168.53581413   171.12065651
 N     13  12   9     2.954513327098    91.55032014    11.12112580
 N     14  13  12     2.925371258490    88.43092389   359.84326247
 C      8   7   2     1.404790019896   127.24786865   181.11170171
 C     13  12   9     1.366535034311    81.72106996   188.00453233
 C     14  13  12     5.758810554272    80.56209567   166.76250791
 C     17  13  12     1.459010623676   111.08861209   183.82872609
 C     18  14  13     2.412235892279    27.27532823    36.33507194
 C     20  18  14     1.402692767501    87.95206320   148.94598259
 C     21  20  18     1.382106725257   120.14573887   359.70382047
 C     18  14  13     2.446510985056   144.15733107    82.80075377
 C     19  17  13     1.353610726908   106.29293361   359.75308708
 C     13  12   9     1.366813447402   172.21332906    33.46711076
 C     18  14  13     1.380960173213    15.08449437   309.23336894
 N     22  21  20     1.352773077792   120.73759875     0.27865223
 C     25  13  17     1.410897586645   125.60330303   182.37774668
 C     14  13  12     1.376642291955    80.24689249   177.85461986
 C     14  13  12     5.764089607215   164.51507311   312.20821879
 C     29  14  13     1.435600919476   106.58649366   178.76395472
 C     30  14  13     2.413316804732    27.10625047    82.12560436
 C     32  30  14     1.403734305344    87.90059683   149.76154742
 C     33  32  30     1.380694028378   120.14881443   359.74174632
 C     34  33  32     2.448777858443   152.49203239     2.45173620
 C     31  29  14     1.368160809262   108.16950133     0.70383075
 C     14  13  12     1.376239804685   169.26375223   353.09862627
 C     30  14  13     1.380907310430    14.68948582   353.70041132
 N     34  33  32     1.352658863128   120.85575621     0.19603406
 C     37  14  29     1.404717053360   126.01551127   180.90772073
 C     15  14  13     1.366491126938    81.61824056   183.09049352
 C      2   1   3     4.249062720177   151.72118183   155.27769744
 C     41  15  14     1.459677704153   111.05201287   175.08990246
 C     42   2   1     2.412953791518    41.78584867   210.72386865
 C     44  42   2     1.403446472082    87.95153797   233.97558675
 C     45  44  42     1.381696421071   120.11137308     0.19721020
 C     42   2   1     2.450019795838   135.97209175   121.03871775
 C     43  41  15     1.354461516618   106.26758155     0.30894352
 C     15  14  13     1.367461151185   171.87382904   332.35056460
 C     42   2   1     1.381886391857    32.59078432   259.57914784
 C      9   2   1     1.404988612053   126.98745415   172.67804885
 N     42   2   1     1.352765315936   113.57249190   148.77530694
 H      1   2   7     1.082820853142   152.60047019   193.08765554
 H      2   1   3     1.079907866440   125.52834111   207.05878425
 H      4   3   1     1.083632317717   121.07404450   179.50670788
 H      5   4   3     1.082635210955   122.82879368   179.37830696
 H      6   5   4     1.093326117862   104.44567116   100.09642930
 H      6   5   4     1.090181636242    84.66276065   209.51241355
 H      6   5   4     1.089551283786   133.86946818   322.39330544
 H      7   2  54     1.079807853278   126.66122480     1.30600390
 H     10   1   2     1.084118535954   118.74029423   212.33389688
 H     12   9   2     1.016297692608   125.29023241   180.00180175
 H     14  13  12     1.014936943854    44.97226959   359.42596618
 H     18  14  13     1.082871645210   128.03556573   234.20482432
 H     19  17  13     1.080893611786   126.41830519   178.11313280
 H     21  20  18     1.083569563987   121.05669627   180.67006309
 H     22  21  20     1.082483256222   122.73097286   180.59748951
 H     23  18  14     1.092105306278   103.92715769   234.93429879
 H     23  18  14     1.088871893291   134.19244188    12.25587044
 H     23  18  14     1.089833473518    84.85857450   125.45241208
 H     24  19  17     1.080075460327   127.28078426   178.44613241
 H     26  18  14     1.083408048706   118.76995697   244.94906660
 H     30  14  13     1.082703098730   127.99711412   279.66882698
 H     31  29  14     1.079759695488   125.22293469   180.92530585
 H     33  32  30     1.083188810873   121.01964473   180.74284758
 H     34  33  32     1.082494341787   122.70821597   180.59516895
 H     35  34  33     1.092652735319   105.73575241    97.19771933
 H     35  34  33     1.089462711615    84.05943581   206.43036958
 H     35  34  33     1.089268102902   133.08365142   318.50306270
 H     36  31  29     1.079439669458   126.61599965   178.98859863
 H     38  30  73     1.083742127999   118.77264435   359.90091293
 H     42   2   1     1.082178358682   119.31790784     5.40683740
 H     43  41  15     1.080281907652   126.36969097   182.06329380
 H     45  44  42     1.083277434455   121.10105945   179.58025624
 H     46  45  44     1.082194529648   122.72144639   179.46906377
 H     47  42   2     1.091546151109   106.65128841   315.16475048
 H     47  42   2     1.088818625851   132.46019523    94.52397119
 H     47  42   2     1.089531091801    83.63838232   206.04504406
 H     48  43  41     1.080402239909   127.23657387   181.62955349
 H     50  42   2     1.083186502870   118.77001737    94.71359229

---------------------------
INTERNAL COORDINATES (A.U.)
---------------------------
 C      0   0   0     0.000000000000     0.00000000     0.00000000
 C      1   0   0    12.025871770101     0.00000000     0.00000000
 C      1   2   0     4.561149883802    24.12478268     0.00000000
 C      3   1   2     2.651159152564    87.91825011    64.89645358
 C      4   3   1     2.608488861178   120.16055313     0.14662050
 C      5   4   3     4.626227506189   152.52623128     1.61714189
 C      2   1   3     2.585360837309     7.19826100   308.10761238
 C      7   2   4     2.710026725231   108.05010202   246.02408748
 C      2   1   3     2.710100516721   108.84796996    34.32367464
 C      1   2   7     2.611203577713    45.50826972   268.53926590
 N      1   2   7     2.555950827136    80.55881104    61.48202294
 N      9   2   1     2.600503484979   106.58526707   351.67371132
 N     12   9   2     5.527566200405   168.53581413   171.12065651
 N     13  12   9     5.583221047236    91.55032014    11.12112580
 N     14  13  12     5.528150518591    88.43092389   359.84326247
 C      8   7   2     2.654668413270   127.24786865   181.11170171
 C     13  12   9     2.582376967257    81.72106996   188.00453233
 C     14  13  12    10.882574804710    80.56209567   166.76250791
 C     17  13  12     2.757130505230   111.08861209   183.82872609
 C     18  14  13     4.558465206823    27.27532823    36.33507194
 C     20  18  14     2.650705180609    87.95206320   148.94598259
 C     21  20  18     2.611803198586   120.14573887   359.70382047
 C     18  14  13     4.623235745386   144.15733107    82.80075377
 C     19  17  13     2.557953565794   106.29293361   359.75308708
 C     13  12   9     2.582903091751   172.21332906    33.46711076
 C     18  14  13     2.609636529225    15.08449437   309.23336894
 N     22  21  20     2.556370638369   120.73759875     0.27865223
 C     25  13  17     2.666210041769   125.60330303   182.37774668
 C     14  13  12     2.601476916169    80.24689249   177.85461986
 C     14  13  12    10.892550769017   164.51507311   312.20821879
 C     29  14  13     2.712892575415   106.58649366   178.76395472
 C     30  14  13     4.560507835333    27.10625047    82.12560436
 C     32  30  14     2.652673401891    87.90059683   149.76154742
 C     33  32  30     2.609133588376   120.14881443   359.74174632
 C     34  33  32     4.627519515267   152.49203239     2.45173620
 C     31  29  14     2.585449236669   108.16950133     0.70383075
 C     14  13  12     2.600716325456   169.26375223   353.09862627
 C     30  14  13     2.609536633043    14.68948582   353.70041132
 N     34  33  32     2.556154803934   120.85575621     0.19603406
 C     37  14  29     2.654530526499   126.01551127   180.90772073
 C     15  14  13     2.582293994346    81.61824056   183.09049352
 C      2   1   3     8.029564866989   151.72118183   155.27769744
 C     41  15  14     2.758391104639   111.05201287   175.08990246
 C     42   2   1     4.559821839776    41.78584867   210.72386865
 C     44  42   2     2.652129475853    87.95153797   233.97558675
 C     45  44  42     2.611027836043   120.11137308     0.19721020
 C     42   2   1     4.629866436820   135.97209175   121.03871775
 C     43  41  15     2.559561325344   106.26758155     0.30894352
 C     15  14  13     2.584127074516   171.87382904   332.35056460
 C     42   2   1     2.611386828803    32.59078432   259.57914784
 C      9   2   1     2.655043698059   126.98745415   172.67804885
 N     42   2   1     2.556355970587   113.57249190   148.77530694
 H      1   2   7     2.046234864538   152.60047019   193.08765554
 H      2   1   3     2.040730117440   125.52834111   207.05878425
 H      4   3   1     2.047768310351   121.07404450   179.50670788
 H      5   4   3     2.045884051645   122.82879368   179.37830696
 H      6   5   4     2.066086937823   104.44567116   100.09642930
 H      6   5   4     2.060144728728    84.66276065   209.51241355
 H      6   5   4     2.058953535218   133.86946818   322.39330544
 H      7   2  54     2.040541119952   126.66122480     1.30600390
 H     10   1   2     2.048687129662   118.74029423   212.33389688
 H     12   9   2     1.920524309565   125.29023241   180.00180175
 H     14  13  12     1.917952867083    44.97226959   359.42596618
 H     18  14  13     2.046330847636   128.03556573   234.20482432
 H     19  17  13     2.042592906181   126.41830519   178.11313280
 H     21  20  18     2.047649722989   121.05669627   180.67006309
 H     22  21  20     2.045596898814   122.73097286   180.59748951
 H     23  18  14     2.063779938267   103.92715769   234.93429879
 H     23  18  14     2.057669673245   134.19244188    12.25587044
 H     23  18  14     2.059486796529    84.85857450   125.45241208
 H     24  19  17     2.041046823986   127.28078426   178.44613241
 H     26  18  14     2.047344503340   118.76995697   244.94906660
 H     30  14  13     2.046012340948   127.99711412   279.66882698
 H     31  29  14     2.040450114918   125.22293469   180.92530585
 H     33  32  30     2.046930203877   121.01964473   180.74284758
 H     34  33  32     2.045617847496   122.70821597   180.59516895
 H     35  34  33     2.064814429233   105.73575241    97.19771933
 H     35  34  33     2.058786158072    84.05943581   206.43036958
 H     35  34  33     2.058418400901   133.08365142   318.50306270
 H     36  31  29     2.039845353366   126.61599965   178.98859863
 H     38  30  73     2.047975821711   118.77264435   359.90091293
 H     42   2   1     2.045020725966   119.31790784     5.40683740
 H     43  41  15     2.041436952892   126.36969097   182.06329380
 H     45  44  42     2.047097678177   121.10105945   179.58025624
 H     46  45  44     2.045051284662   122.72144639   179.46906377
 H     47  42   2     2.062723288131   106.65128841   315.16475048
 H     47  42   2     2.057569012371   132.46019523    94.52397119
 H     47  42   2     2.058915377895    83.63838232   206.04504406
 H     48  43  41     2.041664347903   127.23657387   181.62955349
 H     50  42   2     2.046925842384   118.77001737    94.71359229

---------------------
BASIS SET INFORMATION
---------------------
There are 3 groups of distinct atoms

 Group   1 Type C   : 17s4p1d contracted to 3s2p1d pattern {881/31/1}
 Group   2 Type N   : 17s4p1d contracted to 3s2p1d pattern {881/31/1}
 Group   3 Type H   : 4s1p contracted to 2s1p pattern {31/1}

Atom   0C    basis set group =>   1
Atom   1N    basis set group =>   2
Atom   2C    basis set group =>   1
Atom   3N    basis set group =>   2
Atom   4C    basis set group =>   1
Atom   5N    basis set group =>   2
Atom   6C    basis set group =>   1
Atom   7N    basis set group =>   2
Atom   8C    basis set group =>   1
Atom   9N    basis set group =>   2
Atom  10C    basis set group =>   1
Atom  11N    basis set group =>   2
Atom  12C    basis set group =>   1
Atom  13N    basis set group =>   2
Atom  14C    basis set group =>   1
Atom  15N    basis set group =>   2
Atom  16C    basis set group =>   1
Atom  17C    basis set group =>   1
Atom  18C    basis set group =>   1
Atom  19C    basis set group =>   1
Atom  20C    basis set group =>   1
Atom  21C    basis set group =>   1
Atom  22C    basis set group =>   1
Atom  23C    basis set group =>   1
Atom  24C    basis set group =>   1
Atom  25C    basis set group =>   1
Atom  26C    basis set group =>   1
Atom  27C    basis set group =>   1
Atom  28C    basis set group =>   1
Atom  29C    basis set group =>   1
Atom  30C    basis set group =>   1
Atom  31C    basis set group =>   1
Atom  32C    basis set group =>   1
Atom  33C    basis set group =>   1
Atom  34C    basis set group =>   1
Atom  35C    basis set group =>   1
Atom  36C    basis set group =>   1
Atom  37C    basis set group =>   1
Atom  38C    basis set group =>   1
Atom  39C    basis set group =>   1
Atom  40C    basis set group =>   1
Atom  41C    basis set group =>   1
Atom  42C    basis set group =>   1
Atom  43C    basis set group =>   1
Atom  44C    basis set group =>   1
Atom  45C    basis set group =>   1
Atom  46C    basis set group =>   1
Atom  47C    basis set group =>   1
Atom  48C    basis set group =>   1
Atom  49C    basis set group =>   1
Atom  50C    basis set group =>   1
Atom  51C    basis set group =>   1
Atom  52H    basis set group =>   3
Atom  53H    basis set group =>   3
Atom  54H    basis set group =>   3
Atom  55H    basis set group =>   3
Atom  56H    basis set group =>   3
Atom  57H    basis set group =>   3
Atom  58H    basis set group =>   3
Atom  59H    basis set group =>   3
Atom  60H    basis set group =>   3
Atom  61H    basis set group =>   3
Atom  62H    basis set group =>   3
Atom  63H    basis set group =>   3
Atom  64H    basis set group =>   3
Atom  65H    basis set group =>   3
Atom  66H    basis set group =>   3
Atom  67H    basis set group =>   3
Atom  68H    basis set group =>   3
Atom  69H    basis set group =>   3
Atom  70H    basis set group =>   3
Atom  71H    basis set group =>   3
Atom  72H    basis set group =>   3
Atom  73H    basis set group =>   3
Atom  74H    basis set group =>   3
Atom  75H    basis set group =>   3
Atom  76H    basis set group =>   3
Atom  77H    basis set group =>   3
Atom  78H    basis set group =>   3
Atom  79H    basis set group =>   3
Atom  80H    basis set group =>   3
Atom  81H    basis set group =>   3
Atom  82H    basis set group =>   3
Atom  83H    basis set group =>   3
Atom  84H    basis set group =>   3
Atom  85H    basis set group =>   3
Atom  86H    basis set group =>   3
Atom  87H    basis set group =>   3
Atom  88H    basis set group =>   3
Atom  89H    basis set group =>   3


           ************************************************************
           *        Program running with 16 parallel MPI-processes    *
           *              working on a common directory               *
           ************************************************************
------------------------------------------------------------------------------
                           ORCA GTO INTEGRAL CALCULATION
------------------------------------------------------------------------------
------------------------------------------------------------------------------
                   ___                                                        
                  /   \      - P O W E R E D   B Y -                         
                 /     \                                                     
                 |  |  |   _    _      __       _____    __    __             
                 |  |  |  | |  | |    /  \     |  _  \  |  |  /  |          
                  \  \/   | |  | |   /    \    | | | |  |  | /  /          
                 / \  \   | |__| |  /  /\  \   | |_| |  |  |/  /          
                |  |  |   |  __  | /  /__\  \  |    /   |      \           
                |  |  |   | |  | | |   __   |  |    \   |  |\   \          
                \     /   | |  | | |  |  |  |  | |\  \  |  | \   \       
                 \___/    |_|  |_| |__|  |__|  |_| \__\ |__|  \__/        
                                                                              
                      - O R C A' S   B I G   F R I E N D -                    
                                      &                                       
                       - I N T E G R A L  F E E D E R -                       
                                                                              
 v1 FN, 2020, v2 2021                                                         
------------------------------------------------------------------------------


Reading SHARK input file /scratch/allen/tmpyp4_amber_gaff2/conf1/conf1/Conf139.orca.SHARKINP.tmp ... ok
----------------------
SHARK INTEGRAL PACKAGE
----------------------

Number of atoms                             ...     90
Number of basis functions                   ...   1230
Number of shells                            ...    738
Maximum angular momentum                    ...      2
Integral batch strategy                     ... SHARK/LIBINT Hybrid
RI-J (if used) integral strategy            ... SPLIT-RIJ (Revised 2003 algorithm where possible)
Printlevel                                  ...      1
Contraction scheme used                     ... PARTIAL GENERAL contraction
Coulomb Range Separation                    ... NOT USED
Exchange Range Separation                   ... NOT USED
Finite Nucleus Model                        ... NOT USED
Auxiliary Coulomb fitting basis             ... NOT available
Auxiliary J/K fitting basis                 ... NOT available
Auxiliary Correlation fitting basis         ... NOT available
Auxiliary 'external' fitting basis          ... NOT available
Integral threshold                          ...     2.500000e-11
Primitive cut-off                           ...     2.500000e-12
Primitive pair pre-selection threshold      ...     2.500000e-12

Calculating pre-screening integrals         ... done (  0.1 sec) Dimension = 738
Calculating pre-screening integrals (ORCA)  ... done (  0.3 sec) Dimension = 426
Organizing shell pair data                  ... done (  0.5 sec)
Shell pair information
Total number of shell pairs                 ...    272691
Shell pairs after pre-screening             ...     71640
Total number of primitive shell pairs       ...    422091
Primitive shell pairs kept                  ...     92428
          la=0 lb=0:  29416 shell pairs
          la=1 lb=0:  25985 shell pairs
          la=1 lb=1:   4709 shell pairs
          la=2 lb=0:   7878 shell pairs
          la=2 lb=1:   3122 shell pairs
          la=2 lb=2:    530 shell pairs

Calculating one electron integrals          ... done (  0.2 sec)
Calculating Nuclear repulsion               ... done (  0.0 sec) ENN=   6228.466723296577 Eh

SHARK setup successfully completed in   1.7 seconds

Maximum memory used throughout the entire GTOINT-calculation: 99.0 MB


           ************************************************************
           *        Program running with 16 parallel MPI-processes    *
           *              working on a common directory               *
           ************************************************************
-------------------------------------------------------------------------------
                                 ORCA SCF
-------------------------------------------------------------------------------

------------
SCF SETTINGS
------------
Hamiltonian:
 Ab initio Hamiltonian  Method          .... Hartree-Fock(GTOs)


General Settings:
 Integral files         IntName         .... /scratch/allen/tmpyp4_amber_gaff2/conf1/conf1/Conf139.orca
 Hartree-Fock type      HFTyp           .... RHF
 Total Charge           Charge          ....    0
 Multiplicity           Mult            ....    1
 Number of Electrons    NEL             ....  358
 Basis Dimension        Dim             ....  918
 Nuclear Repulsion      ENuc            ....   6228.4667232966 Eh

Convergence Acceleration:
 DIIS                   CNVDIIS         .... on
   Start iteration      DIISMaxIt       ....    12
   Startup error        DIISStart       ....  0.200000
   # of expansion vecs  DIISMaxEq       ....     5
   Bias factor          DIISBfac        ....   1.050
   Max. coefficient     DIISMaxC        ....  10.000
 Trust-Rad. Augm. Hess. CNVTRAH         .... auto
   Auto Start mean grad. ratio tolernc. ....  1.125000
   Auto Start start iteration           ....    20
   Auto Start num. interpolation iter.  ....    10
   Max. Number of Micro iterations      ....    16
   Max. Number of Macro iterations      .... Maxiter - #DIIS iter
   Number of Davidson start vectors     ....     2
   Converg. threshold I  (grad. norm)   ....   1.000e-05
   Converg. threshold II (energy diff.) ....   1.000e-08
   Grad. Scal. Fac. for Micro threshold ....   0.100
   Minimum threshold for Micro iter.    ....   0.010
   NR start threshold (gradient norm)   ....   0.001
   Initial trust radius                 ....   0.400
   Minimum AH scaling param. (alpha)    ....   1.000
   Maximum AH scaling param. (alpha)    .... 1000.000
   Orbital update algorithm             .... Taylor
   White noise on init. David. guess    .... on
   Maximum white noise                  ....   0.010
   Quad. conv. algorithm                .... NR
 SOSCF                  CNVSOSCF        .... on
   Start iteration      SOSCFMaxIt      ....   150
   Startup grad/error   SOSCFStart      ....  0.003300
 Level Shifting         CNVShift        .... on
   Level shift para.    LevelShift      ....    0.2500
   Turn off err/grad.   ShiftErr        ....    0.0010
 Zerner damping         CNVZerner       .... off
 Static damping         CNVDamp         .... on
   Fraction old density DampFac         ....    0.7000
   Max. Damping (<1)    DampMax         ....    0.9800
   Min. Damping (>=0)   DampMin         ....    0.0000
   Turn off err/grad.   DampErr         ....    0.1000
 Fernandez-Rico         CNVRico         .... off

SCF Procedure:
 Maximum # iterations   MaxIter         ....   125
 SCF integral mode      SCFMode         .... Direct
   Integral package                     .... SHARK and LIBINT hybrid scheme
 Reset frequency        DirectResetFreq ....    20
 Integral Threshold     Thresh          ....  2.500e-11 Eh
 Primitive CutOff       TCut            ....  2.500e-12 Eh

Convergence Tolerance:
 Convergence Check Mode ConvCheckMode   .... Total+1el-Energy
 Convergence forced     ConvForced      .... 1
 Energy Change          TolE            ....  1.000e-08 Eh
 1-El. energy change                    ....  1.000e-05 Eh
 Orbital Gradient       TolG            ....  1.000e-05
 Orbital Rotation angle TolX            ....  1.000e-05
 DIIS Error             TolErr          ....  5.000e-07


Diagonalization of the overlap matrix:
Smallest eigenvalue                        ... 2.235e-04
Time for diagonalization                   ...    0.407 sec
Threshold for overlap eigenvalues          ... 1.000e-08
Number of eigenvalues below threshold      ... 0
Time for construction of square roots      ...    0.195 sec
Total time needed                          ...    0.607 sec

Time for model grid setup =    1.004 sec

------------------------------
INITIAL GUESS: MODEL POTENTIAL
------------------------------
Loading Hartree-Fock densities                     ... done
Calculating cut-offs                               ... done
Initializing the effective Hamiltonian             ... done
Setting up the integral package (SHARK)            ... done
Starting the Coulomb interaction                   ... done (   1.1 sec)
Reading the grid                                   ... done
Mapping shells                                     ... done
Starting the XC term evaluation                    ... done (   0.2 sec)
Transforming the Hamiltonian                       ... done (   0.2 sec)
Diagonalizing the Hamiltonian                      ... done (   0.3 sec)
Back transforming the eigenvectors                 ... done (   0.1 sec)
Now organizing SCF variables                       ... done
                      ------------------
                      INITIAL GUESS DONE (   2.9 sec)
                      ------------------
--------------
SCF ITERATIONS
--------------
ITER       Energy         Delta-E        Max-DP      RMS-DP      [F,P]     Damp
               ***  Starting incremental Fock matrix formation  ***
  0  -2121.6947490691   0.000000000000 0.06887415  0.00120779  0.2324317 0.7000
  1  -2122.3531731323  -0.658424063155 0.05203702  0.00098131  0.1439254 0.7000
                               ***Turning on DIIS***
  2  -2122.7622974569  -0.409124324686 0.12117314  0.00222735  0.0802400 0.0000
  3  -2117.8719115866   4.890385870327 0.03016250  0.00067068  0.0440366 0.0000
  4  -2123.4332498867  -5.561338300120 0.00908633  0.00022543  0.0072919 0.0000
  5  -2123.5985790402  -0.165329153468 0.00516137  0.00013273  0.0049982 0.0000
  6  -2123.5816094581   0.016969582071 0.00352060  0.00008549  0.0019572 0.0000
  7  -2123.6818856049  -0.100276146732 0.00299100  0.00006713  0.0015496 0.0000
  8  -2123.6947057752  -0.012820170363 0.00313916  0.00006290  0.0014393 0.0000
  9  -2123.6626299408   0.032075834441 0.00251481  0.00004348  0.0011445 0.0000
 10  -2123.6731324254  -0.010502484563 0.00510879  0.00008851  0.0008799 0.0000
                      *** Initiating the SOSCF procedure ***
                           *** Shutting down DIIS ***
                      *** Re-Reading the Fockian *** 
                      *** Removing any level shift *** 
ITER      Energy       Delta-E        Grad      Rot      Max-DP    RMS-DP
 11  -2123.56263993   0.1104924973  0.000217  0.000217  0.000249  0.000005
               *** Restarting incremental Fock matrix formation ***
 12  -2123.62783643  -0.0651965009  0.000846  0.005681  0.001281  0.000032
 13  -2123.62792379  -0.0000873594  0.001003  0.027461  0.006148  0.000122
 14  -2123.62807046  -0.0001466757  0.000382  0.001869  0.000523  0.000012
 15  -2123.62808617  -0.0000157063  0.000176  0.003887  0.000930  0.000019
 16  -2123.62809646  -0.0000102933  0.000167  0.003804  0.000610  0.000013
 17  -2123.62810019  -0.0000037223  0.000138  0.002490  0.000360  0.000008
 18  -2123.62810216  -0.0000019776  0.000077  0.001052  0.000319  0.000004
 19  -2123.62810306  -0.0000008977  0.000049  0.000536  0.000147  0.000003
 20  -2123.62810333  -0.0000002654  0.000024  0.000462  0.000102  0.000002
 21  -2123.62810347  -0.0000001402  0.000024  0.000253  0.000085  0.000002
 22  -2123.62810355  -0.0000000786  0.000014  0.000274  0.000089  0.000001
 23  -2123.62810359  -0.0000000480  0.000008  0.000151  0.000042  0.000001
 24  -2123.62810362  -0.0000000229  0.000004  0.000104  0.000027  0.000000
 25  -2123.62810363  -0.0000000090  0.000004  0.000073  0.000015  0.000000
                  ***Gradient check signals convergence***
              ***Rediagonalizing the Fockian in SOSCF/NRSCF***

               *****************************************************
               *                     SUCCESS                       *
               *           SCF CONVERGED AFTER  26 CYCLES          *
               *****************************************************


----------------
TOTAL SCF ENERGY
----------------

Total Energy       :        -2123.62810363 Eh          -57786.85853 eV

Components:
Nuclear Repulsion  :         6228.46672330 Eh          169485.19600 eV
Electronic Energy  :        -8352.09482693 Eh         -227272.05453 eV
One Electron Energy:       -15297.85390148 Eh         -416275.76771 eV
Two Electron Energy:         6945.75907455 Eh          189003.71318 eV

Virial components:
Potential Energy   :        -4245.68639982 Eh         -115531.00042 eV
Kinetic Energy     :         2122.05829619 Eh           57744.14189 eV
Virial Ratio       :            2.00073976


---------------
SCF CONVERGENCE
---------------

  Last Energy change         ...   -6.2446e-09  Tolerance :   1.0000e-08
  Last MAX-Density change    ...    1.4409e-05  Tolerance :   1.0000e-07
  Last RMS-Density change    ...    3.2319e-07  Tolerance :   5.0000e-09
  Last Orbital Gradient      ...    2.2465e-06  Tolerance :   1.0000e-05
  Last Orbital Rotation      ...    9.0972e-05  Tolerance :   1.0000e-05

             **** THE GBW FILE WAS UPDATED (/scratch/allen/tmpyp4_amber_gaff2/conf1/conf1/Conf139.orca.gbw) ****
             **** DENSITY /scratch/allen/tmpyp4_amber_gaff2/conf1/conf1/Conf139.orca.scfp WAS UPDATED ****
             **** ENERGY FILE WAS UPDATED (/scratch/allen/tmpyp4_amber_gaff2/conf1/conf1/Conf139.orca.en.tmp) ****
             **** THE GBW FILE WAS UPDATED (/scratch/allen/tmpyp4_amber_gaff2/conf1/conf1/Conf139.orca.gbw) ****
             **** DENSITY /scratch/allen/tmpyp4_amber_gaff2/conf1/conf1/Conf139.orca.scfp WAS UPDATED ****
----------------
ORBITAL ENERGIES
----------------

  NO   OCC          E(Eh)            E(eV) 
   0   2.0000     -15.663941      -426.2375 
   1   2.0000     -15.638492      -425.5450 
   2   2.0000     -15.628438      -425.2714 
   3   2.0000     -15.597584      -424.4318 
   4   2.0000     -15.523785      -422.4237 
   5   2.0000     -15.515855      -422.2079 
   6   2.0000     -15.449752      -420.4091 
   7   2.0000     -15.443460      -420.2379 
   8   2.0000     -11.318126      -307.9819 
   9   2.0000     -11.316747      -307.9444 
  10   2.0000     -11.314407      -307.8807 
  11   2.0000     -11.302106      -307.5459 
  12   2.0000     -11.296090      -307.3822 
  13   2.0000     -11.295846      -307.3756 
  14   2.0000     -11.291520      -307.2579 
  15   2.0000     -11.287359      -307.1447 
  16   2.0000     -11.284252      -307.0601 
  17   2.0000     -11.277856      -306.8861 
  18   2.0000     -11.267134      -306.5943 
  19   2.0000     -11.261778      -306.4486 
  20   2.0000     -11.261553      -306.4424 
  21   2.0000     -11.252207      -306.1881 
  22   2.0000     -11.251289      -306.1631 
  23   2.0000     -11.242048      -305.9117 
  24   2.0000     -11.234428      -305.7043 
  25   2.0000     -11.233854      -305.6887 
  26   2.0000     -11.233143      -305.6694 
  27   2.0000     -11.227009      -305.5024 
  28   2.0000     -11.226758      -305.4956 
  29   2.0000     -11.208255      -304.9921 
  30   2.0000     -11.207580      -304.9738 
  31   2.0000     -11.207029      -304.9588 
  32   2.0000     -11.202727      -304.8417 
  33   2.0000     -11.202236      -304.8283 
  34   2.0000     -11.190393      -304.5061 
  35   2.0000     -11.189981      -304.4949 
  36   2.0000     -11.184292      -304.3401 
  37   2.0000     -11.180893      -304.2476 
  38   2.0000     -11.180178      -304.2281 
  39   2.0000     -11.174339      -304.0692 
  40   2.0000     -11.169727      -303.9437 
  41   2.0000     -11.167992      -303.8965 
  42   2.0000     -11.166442      -303.8543 
  43   2.0000     -11.164072      -303.7898 
  44   2.0000     -11.163048      -303.7620 
  45   2.0000     -11.160881      -303.7030 
  46   2.0000     -11.153817      -303.5108 
  47   2.0000     -11.149642      -303.3972 
  48   2.0000     -11.148884      -303.3765 
  49   2.0000     -11.143981      -303.2431 
  50   2.0000     -11.136364      -303.0359 
  51   2.0000     -11.130453      -302.8750 
  52   2.0000      -1.346880       -36.6505 
  53   2.0000      -1.325105       -36.0579 
  54   2.0000      -1.316585       -35.8261 
  55   2.0000      -1.291107       -35.1328 
  56   2.0000      -1.223936       -33.3050 
  57   2.0000      -1.210749       -32.9462 
  58   2.0000      -1.167673       -31.7740 
  59   2.0000      -1.154690       -31.4207 
  60   2.0000      -1.132216       -30.8092 
  61   2.0000      -1.113407       -30.2973 
  62   2.0000      -1.106235       -30.1022 
  63   2.0000      -1.085989       -29.5513 
  64   2.0000      -1.069530       -29.1034 
  65   2.0000      -1.049091       -28.5472 
  66   2.0000      -1.041331       -28.3360 
  67   2.0000      -1.033941       -28.1350 
  68   2.0000      -1.018589       -27.7172 
  69   2.0000      -1.014078       -27.5945 
  70   2.0000      -1.009382       -27.4667 
  71   2.0000      -0.992711       -27.0130 
  72   2.0000      -0.987509       -26.8715 
  73   2.0000      -0.976946       -26.5841 
  74   2.0000      -0.972660       -26.4674 
  75   2.0000      -0.959092       -26.0982 
  76   2.0000      -0.950879       -25.8747 
  77   2.0000      -0.947518       -25.7833 
  78   2.0000      -0.936410       -25.4810 
  79   2.0000      -0.921163       -25.0661 
  80   2.0000      -0.900170       -24.4949 
  81   2.0000      -0.890691       -24.2369 
  82   2.0000      -0.876104       -23.8400 
  83   2.0000      -0.870010       -23.6742 
  84   2.0000      -0.865327       -23.5467 
  85   2.0000      -0.854967       -23.2648 
  86   2.0000      -0.843661       -22.9572 
  87   2.0000      -0.838395       -22.8139 
  88   2.0000      -0.822322       -22.3765 
  89   2.0000      -0.798667       -21.7328 
  90   2.0000      -0.794366       -21.6158 
  91   2.0000      -0.745032       -20.2734 
  92   2.0000      -0.737463       -20.0674 
  93   2.0000      -0.732073       -19.9207 
  94   2.0000      -0.723449       -19.6860 
  95   2.0000      -0.719705       -19.5842 
  96   2.0000      -0.713823       -19.4241 
  97   2.0000      -0.706026       -19.2120 
  98   2.0000      -0.702294       -19.1104 
  99   2.0000      -0.696286       -18.9469 
 100   2.0000      -0.694101       -18.8875 
 101   2.0000      -0.681868       -18.5546 
 102   2.0000      -0.679279       -18.4841 
 103   2.0000      -0.674520       -18.3546 
 104   2.0000      -0.673890       -18.3375 
 105   2.0000      -0.670779       -18.2528 
 106   2.0000      -0.664808       -18.0904 
 107   2.0000      -0.662833       -18.0366 
 108   2.0000      -0.656518       -17.8648 
 109   2.0000      -0.653633       -17.7863 
 110   2.0000      -0.649553       -17.6752 
 111   2.0000      -0.645906       -17.5760 
 112   2.0000      -0.642749       -17.4901 
 113   2.0000      -0.636717       -17.3259 
 114   2.0000      -0.634573       -17.2676 
 115   2.0000      -0.629175       -17.1207 
 116   2.0000      -0.623780       -16.9739 
 117   2.0000      -0.615926       -16.7602 
 118   2.0000      -0.614361       -16.7176 
 119   2.0000      -0.612282       -16.6610 
 120   2.0000      -0.608685       -16.5631 
 121   2.0000      -0.601805       -16.3759 
 122   2.0000      -0.600352       -16.3364 
 123   2.0000      -0.588421       -16.0117 
 124   2.0000      -0.586683       -15.9644 
 125   2.0000      -0.584071       -15.8934 
 126   2.0000      -0.578468       -15.7409 
 127   2.0000      -0.577408       -15.7121 
 128   2.0000      -0.563168       -15.3246 
 129   2.0000      -0.558420       -15.1954 
 130   2.0000      -0.553830       -15.0705 
 131   2.0000      -0.549073       -14.9410 
 132   2.0000      -0.542535       -14.7631 
 133   2.0000      -0.538981       -14.6664 
 134   2.0000      -0.535286       -14.5659 
 135   2.0000      -0.534001       -14.5309 
 136   2.0000      -0.524928       -14.2840 
 137   2.0000      -0.524114       -14.2619 
 138   2.0000      -0.517877       -14.0921 
 139   2.0000      -0.514943       -14.0123 
 140   2.0000      -0.510472       -13.8906 
 141   2.0000      -0.509874       -13.8744 
 142   2.0000      -0.509113       -13.8537 
 143   2.0000      -0.502479       -13.6731 
 144   2.0000      -0.500622       -13.6226 
 145   2.0000      -0.497079       -13.5262 
 146   2.0000      -0.494135       -13.4461 
 147   2.0000      -0.486165       -13.2292 
 148   2.0000      -0.484005       -13.1704 
 149   2.0000      -0.468745       -12.7552 
 150   2.0000      -0.463982       -12.6256 
 151   2.0000      -0.456072       -12.4104 
 152   2.0000      -0.448545       -12.2055 
 153   2.0000      -0.446762       -12.1570 
 154   2.0000      -0.445305       -12.1174 
 155   2.0000      -0.440344       -11.9824 
 156   2.0000      -0.432265       -11.7625 
 157   2.0000      -0.427976       -11.6458 
 158   2.0000      -0.400496       -10.8980 
 159   2.0000      -0.385548       -10.4913 
 160   2.0000      -0.379086       -10.3155 
 161   2.0000      -0.376893       -10.2558 
 162   2.0000      -0.370818       -10.0905 
 163   2.0000      -0.359655        -9.7867 
 164   2.0000      -0.353245        -9.6123 
 165   2.0000      -0.337662        -9.1882 
 166   2.0000      -0.337165        -9.1747 
 167   2.0000      -0.331601        -9.0233 
 168   2.0000      -0.328216        -8.9312 
 169   2.0000      -0.302523        -8.2321 
 170   2.0000      -0.299740        -8.1563 
 171   2.0000      -0.286963        -7.8087 
 172   2.0000      -0.284344        -7.7374 
 173   2.0000      -0.259597        -7.0640 
 174   2.0000      -0.245515        -6.6808 
 175   2.0000      -0.189457        -5.1554 
 176   2.0000      -0.179661        -4.8888 
 177   2.0000      -0.072190        -1.9644 
 178   2.0000      -0.057187        -1.5562 
 179   0.0000       0.029071         0.7911 
 180   0.0000       0.067864         1.8467 
 181   0.0000       0.092238         2.5099 
 182   0.0000       0.105269         2.8645 
 183   0.0000       0.116775         3.1776 
 184   0.0000       0.134206         3.6519 
 185   0.0000       0.141620         3.8537 
 186   0.0000       0.149203         4.0600 
 187   0.0000       0.162262         4.4154 
 188   0.0000       0.162761         4.4290 
 189   0.0000       0.164836         4.4854 
 190   0.0000       0.167673         4.5626 
 191   0.0000       0.182894         4.9768 
 192   0.0000       0.188745         5.1360 
 193   0.0000       0.192168         5.2291 
 194   0.0000       0.202395         5.5075 
 195   0.0000       0.205827         5.6008 
 196   0.0000       0.207735         5.6527 
 197   0.0000       0.210756         5.7350 
 198   0.0000       0.222758         6.0616 
 199   0.0000       0.224248         6.1021 
 200   0.0000       0.227664         6.1951 
 201   0.0000       0.237119         6.4523 
 202   0.0000       0.241493         6.5714 
 203   0.0000       0.241959         6.5840 
 204   0.0000       0.251068         6.8319 
 205   0.0000       0.254645         6.9293 
 206   0.0000       0.256049         6.9674 
 207   0.0000       0.259987         7.0746 
 208   0.0000       0.261172         7.1068 
 209   0.0000       0.261923         7.1273 
 210   0.0000       0.265296         7.2191 
 211   0.0000       0.271001         7.3743 
 212   0.0000       0.271406         7.3853 
 213   0.0000       0.272477         7.4145 
 214   0.0000       0.275766         7.5040 
 215   0.0000       0.277904         7.5622 
 216   0.0000       0.278927         7.5900 
 217   0.0000       0.281284         7.6541 
 218   0.0000       0.284035         7.7290 
 219   0.0000       0.289102         7.8669 
 220   0.0000       0.289414         7.8754 
 221   0.0000       0.293596         7.9891 
 222   0.0000       0.293716         7.9924 
 223   0.0000       0.296602         8.0710 
 224   0.0000       0.298155         8.1132 
 225   0.0000       0.299883         8.1602 
 226   0.0000       0.306891         8.3509 
 227   0.0000       0.308329         8.3901 
 228   0.0000       0.309709         8.4276 
 229   0.0000       0.318381         8.6636 
 230   0.0000       0.321641         8.7523 
 231   0.0000       0.325655         8.8615 
 232   0.0000       0.328388         8.9359 
 233   0.0000       0.330417         8.9911 
 234   0.0000       0.339652         9.2424 
 235   0.0000       0.346613         9.4318 
 236   0.0000       0.355247         9.6668 
 237   0.0000       0.381036        10.3685 
 238   0.0000       0.394765        10.7421 
 239   0.0000       0.397750        10.8233 
 240   0.0000       0.402089        10.9414 
 241   0.0000       0.414334        11.2746 
 242   0.0000       0.418401        11.3853 
 243   0.0000       0.421359        11.4658 
 244   0.0000       0.427076        11.6213 
 245   0.0000       0.434144        11.8137 
 246   0.0000       0.434918        11.8347 
 247   0.0000       0.438489        11.9319 
 248   0.0000       0.443092        12.0572 
 249   0.0000       0.443862        12.0781 
 250   0.0000       0.451495        12.2858 
 251   0.0000       0.459366        12.5000 
 252   0.0000       0.461030        12.5453 
 253   0.0000       0.465724        12.6730 
 254   0.0000       0.469629        12.7793 
 255   0.0000       0.474257        12.9052 
 256   0.0000       0.482055        13.1174 
 257   0.0000       0.482785        13.1372 
 258   0.0000       0.488734        13.2991 
 259   0.0000       0.498575        13.5669 
 260   0.0000       0.501744        13.6531 
 261   0.0000       0.504418        13.7259 
 262   0.0000       0.506676        13.7874 
 263   0.0000       0.509038        13.8516 
 264   0.0000       0.513707        13.9787 
 265   0.0000       0.518913        14.1203 
 266   0.0000       0.519611        14.1393 
 267   0.0000       0.524056        14.2603 
 268   0.0000       0.534428        14.5425 
 269   0.0000       0.537466        14.6252 
 270   0.0000       0.540366        14.7041 
 271   0.0000       0.546424        14.8690 
 272   0.0000       0.548992        14.9388 
 273   0.0000       0.555503        15.1160 
 274   0.0000       0.559896        15.2356 
 275   0.0000       0.564346        15.3566 
 276   0.0000       0.570641        15.5279 
 277   0.0000       0.574699        15.6384 
 278   0.0000       0.579316        15.7640 
 279   0.0000       0.585607        15.9352 
 280   0.0000       0.587800        15.9948 
 281   0.0000       0.590492        16.0681 
 282   0.0000       0.592076        16.1112 
 283   0.0000       0.596527        16.2323 
 284   0.0000       0.598337        16.2816 
 285   0.0000       0.598804        16.2943 
 286   0.0000       0.608073        16.5465 
 287   0.0000       0.612105        16.6562 
 288   0.0000       0.616076        16.7643 
 289   0.0000       0.619045        16.8451 
 290   0.0000       0.627554        17.0766 
 291   0.0000       0.628988        17.1156 
 292   0.0000       0.633486        17.2380 
 293   0.0000       0.635459        17.2917 
 294   0.0000       0.646171        17.5832 
 295   0.0000       0.650030        17.6882 
 296   0.0000       0.653998        17.7962 
 297   0.0000       0.657393        17.8886 
 298   0.0000       0.665557        18.1107 
 299   0.0000       0.666382        18.1332 
 300   0.0000       0.670021        18.2322 
 301   0.0000       0.671294        18.2668 
 302   0.0000       0.678636        18.4666 
 303   0.0000       0.681300        18.5391 
 304   0.0000       0.682680        18.5767 
 305   0.0000       0.686217        18.6729 
 306   0.0000       0.691303        18.8113 
 307   0.0000       0.691971        18.8295 
 308   0.0000       0.695555        18.9270 
 309   0.0000       0.697811        18.9884 
 310   0.0000       0.700170        19.0526 
 311   0.0000       0.703399        19.1405 
 312   0.0000       0.706066        19.2130 
 313   0.0000       0.709674        19.3112 
 314   0.0000       0.711651        19.3650 
 315   0.0000       0.713793        19.4233 
 316   0.0000       0.716947        19.5091 
 317   0.0000       0.717977        19.5372 
 318   0.0000       0.721191        19.6246 
 319   0.0000       0.726001        19.7555 
 320   0.0000       0.726557        19.7706 
 321   0.0000       0.728813        19.8320 
 322   0.0000       0.734170        19.9778 
 323   0.0000       0.736851        20.0507 
 324   0.0000       0.738600        20.0983 
 325   0.0000       0.740255        20.1434 
 326   0.0000       0.741851        20.1868 
 327   0.0000       0.744398        20.2561 
 328   0.0000       0.747844        20.3499 
 329   0.0000       0.751271        20.4431 
 330   0.0000       0.752181        20.4679 
 331   0.0000       0.755053        20.5460 
 332   0.0000       0.758980        20.6529 
 333   0.0000       0.762540        20.7498 
 334   0.0000       0.768747        20.9187 
 335   0.0000       0.775040        21.0899 
 336   0.0000       0.776578        21.1318 
 337   0.0000       0.780640        21.2423 
 338   0.0000       0.785202        21.3664 
 339   0.0000       0.790159        21.5013 
 340   0.0000       0.791797        21.5459 
 341   0.0000       0.795229        21.6393 
 342   0.0000       0.795493        21.6465 
 343   0.0000       0.799728        21.7617 
 344   0.0000       0.804390        21.8886 
 345   0.0000       0.806461        21.9449 
 346   0.0000       0.807568        21.9750 
 347   0.0000       0.809140        22.0178 
 348   0.0000       0.814662        22.1681 
 349   0.0000       0.817311        22.2402 
 350   0.0000       0.820847        22.3364 
 351   0.0000       0.823065        22.3967 
 352   0.0000       0.823820        22.4173 
 353   0.0000       0.826012        22.4769 
 354   0.0000       0.830468        22.5982 
 355   0.0000       0.832837        22.6626 
 356   0.0000       0.833800        22.6889 
 357   0.0000       0.835716        22.7410 
 358   0.0000       0.836676        22.7671 
 359   0.0000       0.838305        22.8114 
 360   0.0000       0.841877        22.9086 
 361   0.0000       0.842905        22.9366 
 362   0.0000       0.843931        22.9645 
 363   0.0000       0.844099        22.9691 
 364   0.0000       0.849564        23.1178 
 365   0.0000       0.853803        23.2332 
 366   0.0000       0.854974        23.2650 
 367   0.0000       0.856789        23.3144 
 368   0.0000       0.861850        23.4521 
 369   0.0000       0.864965        23.5369 
 370   0.0000       0.866949        23.5909 
 371   0.0000       0.871873        23.7249 
 372   0.0000       0.874904        23.8073 
 373   0.0000       0.878293        23.8996 
 374   0.0000       0.880459        23.9585 
 375   0.0000       0.882606        24.0169 
 376   0.0000       0.884722        24.0745 
 377   0.0000       0.888966        24.1900 
 378   0.0000       0.890514        24.2321 
 379   0.0000       0.894253        24.3339 
 380   0.0000       0.897463        24.4212 
 381   0.0000       0.899265        24.4703 
 382   0.0000       0.902456        24.5571 
 383   0.0000       0.903362        24.5817 
 384   0.0000       0.903520        24.5860 
 385   0.0000       0.905184        24.6313 
 386   0.0000       0.906971        24.6799 
 387   0.0000       0.909535        24.7497 
 388   0.0000       0.910919        24.7874 
 389   0.0000       0.915246        24.9051 
 390   0.0000       0.917349        24.9623 
 391   0.0000       0.923140        25.1199 
 392   0.0000       0.923955        25.1421 
 393   0.0000       0.924394        25.1540 
 394   0.0000       0.927209        25.2306 
 395   0.0000       0.930011        25.3069 
 396   0.0000       0.931728        25.3536 
 397   0.0000       0.932901        25.3855 
 398   0.0000       0.941407        25.6170 
 399   0.0000       0.941825        25.6284 
 400   0.0000       0.943079        25.6625 
 401   0.0000       0.948979        25.8230 
 402   0.0000       0.952288        25.9131 
 403   0.0000       0.955737        26.0069 
 404   0.0000       0.958371        26.0786 
 405   0.0000       0.959289        26.1036 
 406   0.0000       0.961789        26.1716 
 407   0.0000       0.964350        26.2413 
 408   0.0000       0.969832        26.3905 
 409   0.0000       0.973829        26.4992 
 410   0.0000       0.977935        26.6110 
 411   0.0000       0.981719        26.7139 
 412   0.0000       0.986383        26.8408 
 413   0.0000       0.987108        26.8606 
 414   0.0000       0.989569        26.9275 
 415   0.0000       0.999710        27.2035 
 416   0.0000       1.002995        27.2929 
 417   0.0000       1.005005        27.3476 
 418   0.0000       1.005875        27.3712 
 419   0.0000       1.017560        27.6892 
 420   0.0000       1.021934        27.8082 
 421   0.0000       1.028674        27.9917 
 422   0.0000       1.033729        28.1292 
 423   0.0000       1.041821        28.3494 
 424   0.0000       1.043981        28.4082 
 425   0.0000       1.053001        28.6536 
 426   0.0000       1.058036        28.7906 
 427   0.0000       1.061006        28.8714 
 428   0.0000       1.064752        28.9734 
 429   0.0000       1.071863        29.1669 
 430   0.0000       1.077289        29.3145 
 431   0.0000       1.083692        29.4888 
 432   0.0000       1.084352        29.5067 
 433   0.0000       1.088668        29.6242 
 434   0.0000       1.098728        29.8979 
 435   0.0000       1.104646        30.0589 
 436   0.0000       1.106071        30.0977 
 437   0.0000       1.110414        30.2159 
 438   0.0000       1.114982        30.3402 
 439   0.0000       1.116315        30.3765 
 440   0.0000       1.121654        30.5218 
 441   0.0000       1.124049        30.5869 
 442   0.0000       1.126145        30.6440 
 443   0.0000       1.128566        30.7098 
 444   0.0000       1.131553        30.7911 
 445   0.0000       1.133334        30.8396 
 446   0.0000       1.138199        30.9720 
 447   0.0000       1.142091        31.0779 
 448   0.0000       1.145932        31.1824 
 449   0.0000       1.149852        31.2891 
 450   0.0000       1.150623        31.3101 
 451   0.0000       1.151797        31.3420 
 452   0.0000       1.157564        31.4989 
 453   0.0000       1.158302        31.5190 
 454   0.0000       1.162814        31.6418 
 455   0.0000       1.170535        31.8519 
 456   0.0000       1.171997        31.8916 
 457   0.0000       1.177511        32.0417 
 458   0.0000       1.179064        32.0840 
 459   0.0000       1.186292        32.2807 
 460   0.0000       1.187936        32.3254 
 461   0.0000       1.194898        32.5148 
 462   0.0000       1.201054        32.6823 
 463   0.0000       1.202793        32.7297 
 464   0.0000       1.206295        32.8250 
 465   0.0000       1.208770        32.8923 
 466   0.0000       1.212591        32.9963 
 467   0.0000       1.214329        33.0436 
 468   0.0000       1.221943        33.2508 
 469   0.0000       1.226693        33.3800 
 470   0.0000       1.229468        33.4555 
 471   0.0000       1.232017        33.5249 
 472   0.0000       1.234567        33.5943 
 473   0.0000       1.235452        33.6184 
 474   0.0000       1.242099        33.7992 
 475   0.0000       1.246155        33.9096 
 476   0.0000       1.251150        34.0455 
 477   0.0000       1.251725        34.0612 
 478   0.0000       1.254163        34.1275 
 479   0.0000       1.255110        34.1533 
 480   0.0000       1.258877        34.2558 
 481   0.0000       1.263689        34.3867 
 482   0.0000       1.269579        34.5470 
 483   0.0000       1.272142        34.6167 
 484   0.0000       1.274014        34.6677 
 485   0.0000       1.276453        34.7340 
 486   0.0000       1.279222        34.8094 
 487   0.0000       1.282825        34.9074 
 488   0.0000       1.287374        35.0312 
 489   0.0000       1.290503        35.1164 
 490   0.0000       1.294915        35.2364 
 491   0.0000       1.296469        35.2787 
 492   0.0000       1.299146        35.3516 
 493   0.0000       1.303747        35.4768 
 494   0.0000       1.310535        35.6615 
 495   0.0000       1.314380        35.7661 
 496   0.0000       1.316915        35.8351 
 497   0.0000       1.323837        36.0234 
 498   0.0000       1.324770        36.0488 
 499   0.0000       1.328956        36.1627 
 500   0.0000       1.334234        36.3063 
 501   0.0000       1.335702        36.3463 
 502   0.0000       1.339319        36.4447 
 503   0.0000       1.348346        36.6904 
 504   0.0000       1.349126        36.7116 
 505   0.0000       1.350667        36.7535 
 506   0.0000       1.351805        36.7845 
 507   0.0000       1.358363        36.9629 
 508   0.0000       1.362617        37.0787 
 509   0.0000       1.364850        37.1394 
 510   0.0000       1.365131        37.1471 
 511   0.0000       1.369076        37.2544 
 512   0.0000       1.373648        37.3789 
[...]
      pz      :     0.022059  p :     0.079704
      px      :     0.043499
      py      :     0.014146
 77 H s       :     0.886306  s :     0.886306
      pz      :     0.047847  p :     0.079136
      px      :     0.015018
      py      :     0.016271
 78 H s       :     0.886729  s :     0.886729
      pz      :     0.025812  p :     0.079084
      px      :     0.020493
      py      :     0.032779
 79 H s       :     0.909812  s :     0.909812
      pz      :     0.021921  p :     0.086492
      px      :     0.021702
      py      :     0.042868
 80 H s       :     0.867000  s :     0.867000
      pz      :     0.039187  p :     0.084559
      px      :     0.030152
      py      :     0.015220
 81 H s       :     0.887195  s :     0.887195
      pz      :     0.037784  p :     0.084034
      px      :     0.016185
      py      :     0.030066
 82 H s       :     0.915910  s :     0.915910
      pz      :     0.022036  p :     0.086766
      px      :     0.031528
      py      :     0.033201
 83 H s       :     0.873567  s :     0.873567
      pz      :     0.039228  p :     0.084018
      px      :     0.015277
      py      :     0.029514
 84 H s       :     0.887227  s :     0.887227
      pz      :     0.035751  p :     0.083540
      px      :     0.031692
      py      :     0.016098
 85 H s       :     0.893502  s :     0.893502
      pz      :     0.022485  p :     0.079753
      px      :     0.014090
      py      :     0.043179
 86 H s       :     0.891160  s :     0.891160
      pz      :     0.024719  p :     0.078819
      px      :     0.032968
      py      :     0.021131
 87 H s       :     0.890156  s :     0.890156
      pz      :     0.047984  p :     0.078710
      px      :     0.015593
      py      :     0.015133
 88 H s       :     0.911781  s :     0.911781
      pz      :     0.021823  p :     0.087016
      px      :     0.042765
      py      :     0.022428
 89 H s       :     0.871662  s :     0.871662
      pz      :     0.037931  p :     0.083841
      px      :     0.030469
      py      :     0.015441


                      *****************************
                      * MAYER POPULATION ANALYSIS *
                      *****************************

  NA   - Mulliken gross atomic population
  ZA   - Total nuclear charge
  QA   - Mulliken gross atomic charge
  VA   - Mayer's total valence
  BVA  - Mayer's bonded valence
  FA   - Mayer's free valence

  ATOM       NA         ZA         QA         VA         BVA        FA
  0 C      5.7952     6.0000     0.2048     3.8389     3.8389    -0.0000
  1 N      7.4526     7.0000    -0.4526     3.3337     3.3337     0.0000
  2 C      6.0641     6.0000    -0.0641     3.9212     3.9212    -0.0000
  3 N      7.3360     7.0000    -0.3360     3.4571     3.4571    -0.0000
  4 C      6.0542     6.0000    -0.0542     3.9940     3.9940     0.0000
  5 N      7.5607     7.0000    -0.5607     3.0937     3.0937     0.0000
  6 C      6.1061     6.0000    -0.1061     4.0085     4.0085    -0.0000
  7 N      7.3397     7.0000    -0.3397     3.4359     3.4359     0.0000
  8 C      5.7952     6.0000     0.2048     3.8398     3.8398    -0.0000
  9 N      7.5627     7.0000    -0.5627     3.0801     3.0801     0.0000
 10 C      5.8822     6.0000     0.1178     3.9062     3.9062     0.0000
 11 N      7.4375     7.0000    -0.4375     3.3832     3.3832     0.0000
 12 C      6.0804     6.0000    -0.0804     3.9126     3.9126     0.0000
 13 N      7.4332     7.0000    -0.4332     3.4109     3.4109    -0.0000
 14 C      5.7698     6.0000     0.2302     3.7810     3.7810    -0.0000
 15 N      7.4414     7.0000    -0.4414     3.3696     3.3696     0.0000
 16 C      5.7701     6.0000     0.2299     3.7819     3.7819    -0.0000
 17 C      6.1037     6.0000    -0.1037     4.0084     4.0084     0.0000
 18 C      6.1807     6.0000    -0.1807     3.7672     3.7672    -0.0000
 19 C      5.7831     6.0000     0.2169     3.8635     3.8635     0.0000
 20 C      5.7869     6.0000     0.2131     3.8274     3.8274     0.0000
 21 C      6.0897     6.0000    -0.0897     3.9068     3.9068     0.0000
 22 C      6.0880     6.0000    -0.0880     3.9821     3.9821    -0.0000
 23 C      6.0427     6.0000    -0.0427     3.9917     3.9917     0.0000
 24 C      5.8011     6.0000     0.1989     3.8218     3.8218     0.0000
 25 C      5.8860     6.0000     0.1140     3.8899     3.8899     0.0000
 26 C      6.0742     6.0000    -0.0742     3.9065     3.9065    -0.0000
 27 C      5.7862     6.0000     0.2138     3.8690     3.8690    -0.0000
 28 C      6.0582     6.0000    -0.0582     3.9885     3.9885    -0.0000
 29 C      6.1811     6.0000    -0.1811     3.7424     3.7424    -0.0000
 30 C      5.7578     6.0000     0.2422     3.7965     3.7965    -0.0000
 31 C      5.7756     6.0000     0.2244     3.8213     3.8213     0.0000
 32 C      6.0624     6.0000    -0.0624     3.9219     3.9219     0.0000
 33 C      6.0680     6.0000    -0.0680     3.9770     3.9770    -0.0000
 34 C      6.0496     6.0000    -0.0496     3.9869     3.9869    -0.0000
 35 C      5.7814     6.0000     0.2186     3.8196     3.8196    -0.0000
 36 C      5.8897     6.0000     0.1103     3.8807     3.8807     0.0000
 37 C      6.0651     6.0000    -0.0651     3.9175     3.9175     0.0000
 38 C      5.7657     6.0000     0.2343     3.8014     3.8014    -0.0000
 39 C      6.0599     6.0000    -0.0599     3.9859     3.9859    -0.0000
 40 C      6.1832     6.0000    -0.1832     3.7319     3.7319    -0.0000
 41 C      5.7772     6.0000     0.2228     3.8843     3.8843    -0.0000
 42 C      5.8016     6.0000     0.1984     3.8267     3.8267     0.0000
 43 C      6.0731     6.0000    -0.0731     3.9008     3.9008    -0.0000
 44 C      6.0909     6.0000    -0.0909     3.9857     3.9857     0.0000
 45 C      6.0588     6.0000    -0.0588     3.9923     3.9923     0.0000
 46 C      5.7923     6.0000     0.2077     3.8280     3.8280     0.0000
 47 C      5.8843     6.0000     0.1157     3.8940     3.8940     0.0000
 48 C      6.0700     6.0000    -0.0700     3.9076     3.9076    -0.0000
 49 C      5.7659     6.0000     0.2341     3.8914     3.8914     0.0000
 50 C      6.0485     6.0000    -0.0485     3.9906     3.9906    -0.0000
 51 C      6.1923     6.0000    -0.1923     3.7368     3.7368    -0.0000
 52 H      0.9569     1.0000     0.0431     0.9859     0.9859    -0.0000
 53 H      1.0158     1.0000    -0.0158     0.9985     0.9985     0.0000
 54 H      0.9501     1.0000     0.0499     1.0096     1.0096    -0.0000
 55 H      0.9580     1.0000     0.0420     0.9865     0.9865     0.0000
 56 H      0.9487     1.0000     0.0513     0.9701     0.9701    -0.0000
 57 H      0.9501     1.0000     0.0499     0.9824     0.9824     0.0000
 58 H      0.9509     1.0000     0.0491     0.9854     0.9854    -0.0000
 59 H      1.0011     1.0000    -0.0011     1.0029     1.0029     0.0000
 60 H      0.9514     1.0000     0.0486     1.0128     1.0128    -0.0000
 61 H      0.8286     1.0000     0.1714     1.0419     1.0419    -0.0000
 62 H      0.8252     1.0000     0.1748     1.0436     1.0436     0.0000
 63 H      0.9431     1.0000     0.0569     0.9852     0.9852     0.0000
 64 H      1.0080     1.0000    -0.0080     0.9972     0.9972     0.0000
 65 H      0.9530     1.0000     0.0470     1.0096     1.0096     0.0000
 66 H      0.9429     1.0000     0.0571     0.9853     0.9853    -0.0000
 67 H      0.9365     1.0000     0.0635     0.9720     0.9720     0.0000
 68 H      0.9420     1.0000     0.0580     0.9868     0.9868     0.0000
 69 H      0.9421     1.0000     0.0579     0.9829     0.9829     0.0000
 70 H      1.0273     1.0000    -0.0273     0.9930     0.9930    -0.0000
 71 H      0.9530     1.0000     0.0470     1.0061     1.0061    -0.0000
 72 H      0.9338     1.0000     0.0662     0.9841     0.9841     0.0000
 73 H      1.0099     1.0000    -0.0099     1.0001     1.0001     0.0000
 74 H      0.9443     1.0000     0.0557     1.0101     1.0101    -0.0000
 75 H      0.9347     1.0000     0.0653     0.9845     0.9845    -0.0000
 76 H      0.9296     1.0000     0.0704     0.9720     0.9720     0.0000
 77 H      0.9355     1.0000     0.0645     0.9854     0.9854    -0.0000
 78 H      0.9363     1.0000     0.0637     0.9852     0.9852    -0.0000
 79 H      1.0151     1.0000    -0.0151     0.9984     0.9984     0.0000
 80 H      0.9438     1.0000     0.0562     1.0071     1.0071    -0.0000
 81 H      0.9465     1.0000     0.0535     0.9856     0.9856     0.0000
 82 H      1.0249     1.0000    -0.0249     0.9935     0.9935    -0.0000
 83 H      0.9586     1.0000     0.0414     1.0086     1.0086     0.0000
 84 H      0.9470     1.0000     0.0530     0.9854     0.9854    -0.0000
 85 H      0.9404     1.0000     0.0596     0.9715     0.9715     0.0000
 86 H      0.9447     1.0000     0.0553     0.9839     0.9839    -0.0000
 87 H      0.9434     1.0000     0.0566     0.9856     0.9856     0.0000
 88 H      1.0170     1.0000    -0.0170     0.9960     0.9960    -0.0000
 89 H      0.9540     1.0000     0.0460     1.0070     1.0070    -0.0000

  Mayer bond orders larger than 0.100000
B(  0-C ,  1-N ) :   1.0922 B(  0-C , 17-C ) :   1.6918 B(  0-C , 52-H ) :   0.9682 
B(  1-N ,  8-C ) :   1.0921 B(  1-N , 10-C ) :   0.9749 B(  2-C , 12-C ) :   1.5187 
B(  2-C , 16-C ) :   1.3451 B(  2-C , 53-H ) :   0.9767 B(  3-N , 14-C ) :   1.2152 
B(  3-N , 16-C ) :   1.1930 B(  3-N , 61-H ) :   0.8993 B(  4-C ,  6-C ) :   1.2201 
B(  4-C , 17-C ) :   1.2201 B(  4-C , 18-C ) :   1.3928 B(  5-N , 19-C ) :   1.4452 
B(  5-N , 27-C ) :   1.3859 B(  6-C ,  8-C ) :   1.6911 B(  6-C , 54-H ) :   0.9657 
B(  7-N , 30-C ) :   1.1936 B(  7-N , 38-C ) :   1.1951 B(  7-N , 62-H ) :   0.8971 
B(  8-C , 55-H ) :   0.9691 B(  9-N , 41-C ) :   1.3961 B(  9-N , 49-C ) :   1.4255 
B( 10-C , 56-H ) :   0.9766 B( 10-C , 57-H ) :   0.9830 B( 10-C , 58-H ) :   0.9833 
B( 11-N , 20-C ) :   1.1310 B( 11-N , 24-C ) :   1.1144 B( 11-N , 25-C ) :   0.9584 
B( 12-C , 14-C ) :   1.3473 B( 12-C , 59-H ) :   0.9750 B( 13-N , 31-C ) :   1.1492 
B( 13-N , 35-C ) :   1.1429 B( 13-N , 36-C ) :   0.9479 B( 14-C , 18-C ) :   1.1489 
B( 15-N , 42-C ) :   1.1085 B( 15-N , 46-C ) :   1.1192 B( 15-N , 47-C ) :   0.9625 
B( 16-C , 51-C ) :   1.1799 B( 17-C , 60-H ) :   0.9656 B( 18-C , 19-C ) :   1.1558 
B( 19-C , 21-C ) :   1.2341 B( 20-C , 28-C ) :   1.6242 B( 20-C , 63-H ) :   0.9701 
B( 21-C , 26-C ) :   1.6249 B( 21-C , 64-H ) :   0.9711 B( 22-C , 23-C ) :   1.2900 
B( 22-C , 28-C ) :   1.2698 B( 22-C , 29-C ) :   1.2205 B( 23-C , 24-C ) :   1.6165 
B( 23-C , 65-H ) :   0.9706 B( 24-C , 66-H ) :   0.9693 B( 25-C , 67-H ) :   0.9761 
B( 25-C , 68-H ) :   0.9828 B( 25-C , 69-H ) :   0.9822 B( 26-C , 27-C ) :   1.2286 
B( 26-C , 70-H ) :   0.9716 B( 27-C , 29-C ) :   1.2194 B( 28-C , 71-H ) :   0.9717 
B( 29-C , 30-C ) :   1.2345 B( 30-C , 32-C ) :   1.2894 B( 31-C , 39-C ) :   1.6032 
B( 31-C , 72-H ) :   0.9686 B( 32-C , 37-C ) :   1.5698 B( 32-C , 73-H ) :   0.9783 
B( 33-C , 34-C ) :   1.2972 B( 33-C , 39-C ) :   1.2902 B( 33-C , 40-C ) :   1.1999 
B( 34-C , 35-C ) :   1.5997 B( 34-C , 74-H ) :   0.9699 B( 35-C , 75-H ) :   0.9687 
B( 36-C , 76-H ) :   0.9766 B( 36-C , 77-H ) :   0.9817 B( 36-C , 78-H ) :   0.9826 
B( 37-C , 38-C ) :   1.2927 B( 37-C , 79-H ) :   0.9770 B( 38-C , 40-C ) :   1.2262 
B( 39-C , 80-H ) :   0.9709 B( 40-C , 41-C ) :   1.2392 B( 41-C , 43-C ) :   1.1969 
B( 42-C , 50-C ) :   1.6356 B( 42-C , 81-H ) :   0.9697 B( 43-C , 48-C ) :   1.6547 
B( 43-C , 82-H ) :   0.9726 B( 44-C , 45-C ) :   1.2638 B( 44-C , 50-C ) :   1.2686 
B( 44-C , 51-C ) :   1.2635 B( 45-C , 46-C ) :   1.6363 B( 45-C , 83-H ) :   0.9716 
B( 46-C , 84-H ) :   0.9702 B( 47-C , 85-H ) :   0.9762 B( 47-C , 86-H ) :   0.9829 
B( 47-C , 87-H ) :   0.9825 B( 48-C , 49-C ) :   1.1996 B( 48-C , 88-H ) :   0.9746 
B( 49-C , 51-C ) :   1.2305 B( 50-C , 89-H ) :   0.9710 

-------
TIMINGS
-------

Total SCF time: 0 days 0 hours 21 min 30 sec 

Total time                  ....    1290.190 sec
Sum of individual times     ....    1286.468 sec  ( 99.7%)

Fock matrix formation       ....    1266.744 sec  ( 98.2%)
Diagonalization             ....       6.677 sec  (  0.5%)
Density matrix formation    ....       0.354 sec  (  0.0%)
Population analysis         ....       0.430 sec  (  0.0%)
Initial guess               ....       1.919 sec  (  0.1%)
Orbital Transformation      ....       0.000 sec  (  0.0%)
Orbital Orthonormalization  ....       0.000 sec  (  0.0%)
DIIS solution               ....       2.921 sec  (  0.2%)
SOSCF solution              ....       6.420 sec  (  0.5%)

Maximum memory used throughout the entire SCF-calculation: 302.6 MB


           ************************************************************
           *        Program running with 16 parallel MPI-processes    *
           *              working on a common directory               *
           ************************************************************

------------------------------------------------------------------------------
                                ORCA  MP2 
------------------------------------------------------------------------------

Freezing NCore=104 chemical core electrons

----------
MP2 ENERGY (disk based algorithm)
----------

Dimension of the basis                    ...  918
Memory devoted to MP2                     ... 2000 MB   
Data format for buffers                   ... DOUBLE
Compression type for matrix containers    ... UNCOMPRESSED

-------------------------------
PARTIAL EXCHANGE TRANSFORMATION
-------------------------------

Transformation type                        ... one-operator
Generation of integrals (i,mue|j,nue)      ... ON
Generation of integrals (mue,kappa|nue,tau)... OFF
Generation of integrals (i,mue|a,nue)      ... OFF
Dimension of the basis                     ...  918
Number of internal MOs                     ...  127 (  52- 178)
Pair cutoff                                ... 2.500e-12 Eh
Number of AO pairs in the trafo            ... 421821
Total Number of distinct AO pairs          ... 421821
Memory devoted for trafo                   ... 2000.0 MB 
Max. Number of MO pairs treated together   ...  311      
Number Format for Storage                  ... Double (8 Byte)
Integral package used                      ... LIBINT

Starting integral evaluation:
    ... done with AO integral generation
Closing buffer AOK     (38.24 GB; CompressionRatio= 1.33)
Collecting buffer AOK 
Number of MO pairs included in the trafo   ... 8128
------------------------
SORTING OF (i,mue|j,nue)
------------------------

IBATCH = 1 of  2
IBATCH = 2 of  2
Closing buffer KAO     (51.03 GB; CompressionRatio= 1.00)
Collecting buffer KAO 
N(AO-Batches) Done                         ...  85735526 
N(AO-Batches) Skipped                      ...  82274252 
N(IJ)-pairs Skipped                        ...         0 
TOTAL TIME for half transformation         ...  2528.266 sec
AO-integral generation                     ...   177.650 sec
Half transformation                        ...   315.949 sec
K-integral sorting                         ...  1897.537 sec
Process 10:   Internal MO 132
Process 13:   Internal MO 156

Finished integral transformation - now doing MP2 part

OPERATOR COMBINATION   0   0: ij=( 52..178, 52..178)
Process  4:   Internal MO  84
Process  1:   Internal MO  60
Process  7:   Internal MO 108
Process  2:   Internal MO  69
Process  5:   Internal MO  93
Process  3:   Internal MO  78
Process  2:   Internal MO  72
Process  8:   Internal MO 117
Process  6:   Internal MO 102
Process  1:   Internal MO  63
Process 14:   Internal MO 165
Process  2:   Internal MO  75
Process 11:   Internal MO 141
Process  0:   Internal MO  54
Process  1:   Internal MO  66
Process  4:   Internal MO  87
Process  0:   Internal MO  57
Process  3:   Internal MO  81
Process  9:   Internal MO 126
Process  5:   Internal MO  96
Process  7:   Internal MO 111
Process 12:   Internal MO 150
Process 10:   Internal MO 135
Process  6:   Internal MO 105
Process 15:   Internal MO 174
Process  4:   Internal MO  90
Process  8:   Internal MO 120
Process  5:   Internal MO  99
Process  7:   Internal MO 114
Process  9:   Internal MO 129
Process 11:   Internal MO 144
Process 13:   Internal MO 159
Process 14:   Internal MO 168
Process  8:   Internal MO 123
Process 10:   Internal MO 138
Process 12:   Internal MO 153
Process 15:   Internal MO 177
Process 11:   Internal MO 147
Process 13:   Internal MO 162
Process 14:   Internal MO 171
-----------------------------------------------
 MP2 CORRELATION ENERGY   :     -7.283537967 Eh
-----------------------------------------------


-------
TIMINGS
-------
Total time                : 2820.626 sec
Integral trafo            : 2530.141 sec ( 89.7%)
K(i,j)                    :   54.928 sec (  1.9%)
T(i,j)                    :    2.177 sec (  0.1%)

---------------------------------------
MP2 TOTAL ENERGY:    -2130.911641599 Eh
---------------------------------------

Maximum memory used throughout the entire MP2-calculation: 2275.2 MB

-------------------------   --------------------
FINAL SINGLE POINT ENERGY     -2130.911641598666
-------------------------   --------------------


                            ***************************************
                            *     ORCA property calculations      *
                            ***************************************


  WARNING: The energy has been calculated at the MP2 level but the densities
           used in the property calculations are still SCF densities
           MP2 response densities have not been calculated 
           use %mp2 Density relaxed end
           or  %mp2 Density unrelaxed end

                                    ---------------------
                                    Active property flags
                                    ---------------------
   (+) Dipole Moment


------------------------------------------------------------------------------
                       ORCA ELECTRIC PROPERTIES CALCULATION
------------------------------------------------------------------------------

Dipole Moment Calculation                       ... on
Quadrupole Moment Calculation                   ... off
Polarizability Calculation                      ... off
GBWName                                         ... /scratch/allen/tmpyp4_amber_gaff2/conf1/conf1/Conf139.orca.gbw
Electron density                                ... /scratch/allen/tmpyp4_amber_gaff2/conf1/conf1/Conf139.orca.scfp
The origin for moment calculation is the CENTER OF MASS  = ( 0.003225, -0.001938  0.002380)

-------------
DIPOLE MOMENT
-------------
                                X             Y             Z
Electronic contribution:      1.53565      -3.29661      -0.22372
Nuclear contribution   :      0.02275       0.20067       0.22902
                        -----------------------------------------
Total Dipole Moment    :      1.55840      -3.09594       0.00530
                        -----------------------------------------
Magnitude (a.u.)       :      3.46605
Magnitude (Debye)      :      8.80999



--------------------
Rotational spectrum 
--------------------
 
Rotational constants in cm-1:     0.001499     0.001477     0.000761 
Rotational constants in MHz :    44.947961    44.271090    22.821036 

 Dipole components along the rotational axes: 
x,y,z [a.u.] :     2.365531    -2.533310     0.009724 
x,y,z [Debye]:     6.012702    -6.439161     0.024716 

 

Timings for individual modules:

Sum of individual times         ...     4133.744 sec (=  68.896 min)
GTO integral calculation        ...        2.701 sec (=   0.045 min)   0.1 %
SCF iterations                  ...     1291.144 sec (=  21.519 min)  31.2 %
MP2 module                      ...     2839.899 sec (=  47.332 min)  68.7 %
                             ****ORCA TERMINATED NORMALLY****
TOTAL RUN TIME: 0 days 1 hours 8 minutes 57 seconds 205 msec
# of primitive gaussian functions

