
                                 *****************
                                 * O   R   C   A *
                                 *****************

                                            #,                                       
                                            ###                                      
                                            ####                                     
                                            #####                                    
                                            ######                                   
                                           ########,                                 
                                     ,,################,,,,,                         
                               ,,#################################,,                 
                          ,,##########################################,,             
                       ,#########################################, ''#####,          
                    ,#############################################,,   '####,        
                  ,##################################################,,,,####,       
                ,###########''''           ''''###############################       
              ,#####''   ,,,,##########,,,,          '''####'''          '####       
            ,##' ,,,,###########################,,,                        '##       
           ' ,,###''''                  '''############,,,                           
         ,,##''                                '''############,,,,        ,,,,,,###''
      ,#''                                            '''#######################'''  
     '                                                          ''''####''''         
             ,#######,   #######,   ,#######,      ##                                
            ,#'     '#,  ##    ##  ,#'     '#,    #''#        ######   ,####,        
            ##       ##  ##   ,#'  ##            #'  '#       #        #'  '#        
            ##       ##  #######   ##           ,######,      #####,   #    #        
            '#,     ,#'  ##    ##  '#,     ,#' ,#      #,         ##   #,  ,#        
             '#######'   ##     ##  '#######'  #'      '#     #####' # '####'        



                  #######################################################
                  #                        -***-                        #
                  #          Department of theory and spectroscopy      #
                  #    Directorship and core code : Frank Neese         #
                  #        Max Planck Institute fuer Kohlenforschung    #
                  #                Kaiser Wilhelm Platz 1               #
                  #                 D-45470 Muelheim/Ruhr               #
                  #                      Germany                        #
                  #                                                     #
                  #                  All rights reserved                #
                  #                        -***-                        #
                  #######################################################


                         Program Version 5.0.4 -  RELEASE  -


 With contributions from (in alphabetic order):
   Daniel Aravena         : Magnetic Suceptibility
   Michael Atanasov       : Ab Initio Ligand Field Theory (pilot matlab implementation)
   Alexander A. Auer      : GIAO ZORA, VPT2 properties, NMR spectrum
   Ute Becker             : Parallelization
   Giovanni Bistoni       : ED, misc. LED, open-shell LED, HFLD
   Martin Brehm           : Molecular dynamics
   Dmytro Bykov           : SCF Hessian
   Vijay G. Chilkuri      : MRCI spin determinant printing, contributions to CSF-ICE
   Dipayan Datta          : RHF DLPNO-CCSD density
   Achintya Kumar Dutta   : EOM-CC, STEOM-CC
   Dmitry Ganyushin       : Spin-Orbit,Spin-Spin,Magnetic field MRCI
   Miquel Garcia          : C-PCM and meta-GGA Hessian, CC/C-PCM, Gaussian charge scheme
   Yang Guo               : DLPNO-NEVPT2, F12-NEVPT2, CIM, IAO-localization
   Andreas Hansen         : Spin unrestricted coupled pair/coupled cluster methods
   Benjamin Helmich-Paris : MC-RPA, TRAH-SCF, COSX integrals
   Lee Huntington         : MR-EOM, pCC
   Robert Izsak           : Overlap fitted RIJCOSX, COSX-SCS-MP3, EOM
   Marcus Kettner         : VPT2
   Christian Kollmar      : KDIIS, OOCD, Brueckner-CCSD(T), CCSD density, CASPT2, CASPT2-K
   Simone Kossmann        : Meta GGA functionals, TD-DFT gradient, OOMP2, MP2 Hessian
   Martin Krupicka        : Initial AUTO-CI
   Lucas Lang             : DCDCAS
   Marvin Lechner         : AUTO-CI (C++ implementation), FIC-MRCC
   Dagmar Lenk            : GEPOL surface, SMD
   Dimitrios Liakos       : Extrapolation schemes; Compound Job, initial MDCI parallelization
   Dimitrios Manganas     : Further ROCIS development; embedding schemes
   Dimitrios Pantazis     : SARC Basis sets
   Anastasios Papadopoulos: AUTO-CI, single reference methods and gradients
   Taras Petrenko         : DFT Hessian,TD-DFT gradient, ASA, ECA, R-Raman, ABS, FL, XAS/XES, NRVS
   Peter Pinski           : DLPNO-MP2, DLPNO-MP2 Gradient
   Christoph Reimann      : Effective Core Potentials
   Marius Retegan         : Local ZFS, SOC
   Christoph Riplinger    : Optimizer, TS searches, QM/MM, DLPNO-CCSD(T), (RO)-DLPNO pert. Triples
   Tobias Risthaus        : Range-separated hybrids, TD-DFT gradient, RPA, STAB
   Michael Roemelt        : Original ROCIS implementation
   Masaaki Saitow         : Open-shell DLPNO-CCSD energy and density
   Barbara Sandhoefer     : DKH picture change effects
   Avijit Sen             : IP-ROCIS
   Kantharuban Sivalingam : CASSCF convergence, NEVPT2, FIC-MRCI
   Bernardo de Souza      : ESD, SOC TD-DFT
   Georgi Stoychev        : AutoAux, RI-MP2 NMR, DLPNO-MP2 response
   Willem Van den Heuvel  : Paramagnetic NMR
   Boris Wezisla          : Elementary symmetry handling
   Frank Wennmohs         : Technical directorship


 We gratefully acknowledge several colleagues who have allowed us to
 interface, adapt or use parts of their codes:
   Stefan Grimme, W. Hujo, H. Kruse, P. Pracht,  : VdW corrections, initial TS optimization,
                  C. Bannwarth, S. Ehlert          DFT functionals, gCP, sTDA/sTD-DF
   Ed Valeev, F. Pavosevic, A. Kumar             : LibInt (2-el integral package), F12 methods
   Garnet Chan, S. Sharma, J. Yang, R. Olivares  : DMRG
   Ulf Ekstrom                                   : XCFun DFT Library
   Mihaly Kallay                                 : mrcc  (arbitrary order and MRCC methods)
   Jiri Pittner, Ondrej Demel                    : Mk-CCSD
   Frank Weinhold                                : gennbo (NPA and NBO analysis)
   Christopher J. Cramer and Donald G. Truhlar   : smd solvation model
   Lars Goerigk                                  : TD-DFT with DH, B97 family of functionals
   V. Asgeirsson, H. Jonsson                     : NEB implementation
   FAccTs GmbH                                   : IRC, NEB, NEB-TS, DLPNO-Multilevel, CI-OPT
                                                   MM, QMMM, 2- and 3-layer-ONIOM, Crystal-QMMM,
                                                   LR-CPCM, SF, NACMEs, symmetry and pop. for TD-DFT,
                                                   nearIR, NL-DFT gradient (VV10), updates on ESD,
                                                   ML-optimized integration grids
   S Lehtola, MJT Oliveira, MAL Marques          : LibXC Library
   Liviu Ungur et al                             : ANISO software


 Your calculation uses the libint2 library for the computation of 2-el integrals
 For citations please refer to: http://libint.valeyev.net

 Your ORCA version has been built with support for libXC version: 5.1.0
 For citations please refer to: https://tddft.org/programs/libxc/

 This ORCA versions uses:
   CBLAS   interface :  Fast vector & matrix operations
   LAPACKE interface :  Fast linear algebra routines
   SCALAPACK package :  Parallel linear algebra routines
   Shared memory     :  Shared parallel matrices
   BLAS/LAPACK       :  OpenBLAS 0.3.15  USE64BITINT DYNAMIC_ARCH NO_AFFINITY Sandybridge SINGLE_THREADED
        Core in use  :  Sandybridge
   Copyright (c) 2011-2014, The OpenBLAS Project


================================================================================

----- Orbital basis set information -----
Your calculation utilizes the basis: cc-pVDZ 
       H, B-Ne : Obtained from the ccRepo (grant-hill.group.shef.ac.uk/ccrepo) Feb. 2017
                 T. H. Dunning, Jr., J. Chem. Phys. 90, 1007 (1989)
            He : Obtained from the ccRepo (grant-hill.group.shef.ac.uk/ccrepo) Feb. 2017
                 D. E. Woon, T. H. Dunning, Jr., J. Chem. Phys. 100, 2975 (1994)
  Li-Be, Na-Mg : Obtained from the ccRepo (grant-hill.group.shef.ac.uk/ccrepo) Feb. 2017
                 B. P. Prascher, D. E. Woon, K. A. Peterson, T. H. Dunning, Jr., A. K. Wilson, Theor. Chem. Acc. 128, 69 (2011)
         Al-Ar : Obtained from the ccRepo (grant-hill.group.shef.ac.uk/ccrepo) Feb. 2017
                 D. E. Woon, T. H. Dunning, Jr., J. Chem. Phys. 98, 1358 (1993)
            Ca : Obtained from the Peterson Research Group Website (tyr0.chem.wsu.edu/~kipeters) Feb. 2017
                 J. Koput, K. A. Peterson, J. Phys. Chem. 106, 9595 (2002)
         Sc-Zn : Obtained from the ccRepo (grant-hill.group.shef.ac.uk/ccrepo) Feb. 2017
                 N. B. Balabanov, K. A. Peterson, J. Chem. Phys. 123, 064107 (2005)
                 N. B. Balabanov, K. A. Peterson, J. Chem. Phys. 125, 074110 (2006)
         Ga-Kr : Obtained from the ccRepo (grant-hill.group.shef.ac.uk/ccrepo) Feb. 2017
                 A. K. Wilson, D. E. Woon, K. A. Peterson, T. H. Dunning, Jr., J. Chem. Phys. 110, 7667 (1999)

================================================================================
                                        WARNINGS
                       Please study these warnings very carefully!
================================================================================


WARNING: No MP2 level density has been requested!
         To caclulate MP2 level properties use
         %mp2 Density relaxed end
         or
         %mp2 Density unrelaxed end

WARNING: Post HF methods need fully converged wavefunctions
  ===> : Setting SCFConvForced true
         You can overwrite this default with %scf ConvForced false 


INFO   : the flag for use of the SHARK integral package has been found!

================================================================================
                                       INPUT FILE
================================================================================
NAME = /scratch/allen/tmpyp4_amber_gaff2/2.Mdgx/conf11/conf11/Conf312.orca
|  1> ! PAL2
|  2> ! mp2 cc-pvdz TightSCF  NoKeepInts
|  3> 
|  4> %scf
|  5>   MaxCore 2000
|  6> end
|  7> %mp2
|  8>   MaxCore 2000
|  9> end
| 10> * xyz 0 1
| 11>    C       -3.37800         6.24100         0.98600
| 12>    C        1.47400         4.04100         0.05700
| 13>    C       -2.80200         4.09300         0.04900
| 14>    C       -3.85700         4.26400        -0.86100
| 15>    C       -4.62900         5.40800        -0.82000
| 16>    C       -5.20900         7.60500         0.08800
| 17>    C        0.13200         4.30700         0.06100
| 18>    C       -0.56900         3.05600         0.04700
| 19>    C        1.64900         2.61800         0.02300
| 20>    C       -2.57500         5.11800         0.98100
| 21>    N       -4.38800         6.37500         0.09600
| 22>    N        0.38800         2.06700         0.02500
| 23>    N       -2.01000         0.39500        -0.07500
| 24>    N       -0.38800        -2.07400        -0.02700
| 25>    N        2.01000        -0.40100         0.06500
| 26>    C       -1.96000         2.86100         0.02400
| 27>    C       -2.62300         1.61500        -0.01800
| 28>    C       -5.57300        -4.32900         1.06600
| 29>    C       -4.07300         1.47100         0.05600
| 30>    C       -4.10600        -2.75600        -0.02600
| 31>    C       -4.99500        -2.75700        -1.11100
| 32>    C       -6.13200        -3.54200        -1.07600
| 33>    C       -7.65100        -5.11300         0.04000
| 34>    C       -4.32400         0.14100         0.03700
| 35>    C       -3.02500        -0.52000        -0.04800
| 36>    C       -4.42200        -3.56600         1.07500
| 37>    N       -6.40700        -4.31300         0.00100
| 38>    C       -2.86700        -1.92200        -0.04000
| 39>    C       -1.65000        -2.62400        -0.02700
| 40>    C        3.56800        -6.14200        -1.04000
| 41>    C       -1.47600        -4.04900        -0.03400
| 42>    C        2.80300        -4.09900        -0.00800
| 43>    C        3.65700        -4.38400         1.06900
| 44>    C        4.42700        -5.53000         1.05900
| 45>    C        5.24500        -7.58800         0.01400
| 46>    C       -0.13400        -4.31500        -0.02200
| 47>    C        0.56800        -3.06400        -0.02700
| 48>    C        2.77500        -5.01200        -1.07400
| 49>    N        4.37600        -6.39100         0.01700
| 50>    C        1.95900        -2.86900        -0.00900
| 51>    C        2.62100        -1.62200         0.00900
| 52>    C        5.54300         4.33900        -1.13000
| 53>    C        4.07000        -1.47900        -0.09400
| 54>    C        4.10400         2.75100        -0.02100
| 55>    C        5.02700         2.72900         1.03600
| 56>    C        6.16600         3.50900         0.97800
| 57>    C        7.61900         5.15300        -0.11500
| 58>    C        4.32100        -0.14800        -0.09200
| 59>    C        3.02500         0.51400         0.01500
| 60>    C        4.38700         3.58200        -1.11500
| 61>    C        2.86600         1.91600         0.01300
| 62>    N        6.41300         4.29600        -0.09500
| 63>    H       -3.24700         7.05000         1.69400
| 64>    H        2.27400         4.76600         0.08100
| 65>    H       -4.07600         3.51300        -1.61000
| 66>    H       -5.44700         5.58800        -1.50600
| 67>    H       -4.77900         8.31600        -0.62100
| 68>    H       -6.22500         7.34700        -0.20800
| 69>    H       -5.21000         8.03200         1.09100
| 70>    H       -0.33200         5.28200         0.06900
| 71>    H       -1.78400         5.03800         1.71800
| 72>    H        0.18200         1.07200         0.00500
| 73>    H       -0.18300        -1.08000        -0.02100
| 74>    H       -5.86400        -4.96200         1.89500
| 75>    H       -4.79400         2.27200         0.13900
| 76>    H       -4.80000        -2.16000        -1.99400
| 77>    H       -6.84100        -3.58200        -1.89300
| 78>    H       -8.42800        -4.53600         0.54600
| 79>    H       -7.95600        -5.33700        -0.98100
| 80>    H       -7.45600        -6.03700         0.58400
| 81>    H       -5.28700        -0.34400         0.10000
| 82>    H       -3.78000        -3.60100         1.94700
| 83>    H        3.58700        -6.86800        -1.84300
| 84>    H       -2.27600        -4.77400        -0.05000
| 85>    H        3.71400        -3.72400         1.92600
| 86>    H        5.09200        -5.79500         1.87100
| 87>    H        6.20500        -7.32900        -0.43900
| 88>    H        5.39300        -7.91700         1.04200
| 89>    H        4.75900        -8.37300        -0.56400
| 90>    H        0.32900        -5.29000        -0.00800
| 91>    H        2.14600        -4.84200        -1.94000
| 92>    H        5.80800         4.98600        -1.95600
| 93>    H        4.78800        -2.28100        -0.18500
| 94>    H        4.86000         2.11400         1.91200
| 95>    H        6.90100         3.53100         1.77200
| 96>    H        7.38300         6.10900         0.35600
| 97>    H        8.41400         4.65200         0.43500
| 98>    H        7.92100         5.31000        -1.15000
| 99>    H        5.28300         0.33600        -0.17900
|100>    H        3.72000         3.63200        -1.96700
|101> *
|102> 
|103>                          ****END OF INPUT****
================================================================================

                       ****************************
                       * Single Point Calculation *
                       ****************************

---------------------------------
CARTESIAN COORDINATES (ANGSTROEM)
---------------------------------
  C     -3.378000    6.241000    0.986000
  C      1.474000    4.041000    0.057000
  C     -2.802000    4.093000    0.049000
  C     -3.857000    4.264000   -0.861000
  C     -4.629000    5.408000   -0.820000
  C     -5.209000    7.605000    0.088000
  C      0.132000    4.307000    0.061000
  C     -0.569000    3.056000    0.047000
  C      1.649000    2.618000    0.023000
  C     -2.575000    5.118000    0.981000
  N     -4.388000    6.375000    0.096000
  N      0.388000    2.067000    0.025000
  N     -2.010000    0.395000   -0.075000
  N     -0.388000   -2.074000   -0.027000
  N      2.010000   -0.401000    0.065000
  C     -1.960000    2.861000    0.024000
  C     -2.623000    1.615000   -0.018000
  C     -5.573000   -4.329000    1.066000
  C     -4.073000    1.471000    0.056000
  C     -4.106000   -2.756000   -0.026000
  C     -4.995000   -2.757000   -1.111000
  C     -6.132000   -3.542000   -1.076000
  C     -7.651000   -5.113000    0.040000
  C     -4.324000    0.141000    0.037000
  C     -3.025000   -0.520000   -0.048000
  C     -4.422000   -3.566000    1.075000
  N     -6.407000   -4.313000    0.001000
  C     -2.867000   -1.922000   -0.040000
  C     -1.650000   -2.624000   -0.027000
  C      3.568000   -6.142000   -1.040000
  C     -1.476000   -4.049000   -0.034000
  C      2.803000   -4.099000   -0.008000
  C      3.657000   -4.384000    1.069000
  C      4.427000   -5.530000    1.059000
  C      5.245000   -7.588000    0.014000
  C     -0.134000   -4.315000   -0.022000
  C      0.568000   -3.064000   -0.027000
  C      2.775000   -5.012000   -1.074000
  N      4.376000   -6.391000    0.017000
  C      1.959000   -2.869000   -0.009000
  C      2.621000   -1.622000    0.009000
  C      5.543000    4.339000   -1.130000
  C      4.070000   -1.479000   -0.094000
  C      4.104000    2.751000   -0.021000
  C      5.027000    2.729000    1.036000
  C      6.166000    3.509000    0.978000
  C      7.619000    5.153000   -0.115000
  C      4.321000   -0.148000   -0.092000
  C      3.025000    0.514000    0.015000
  C      4.387000    3.582000   -1.115000
  C      2.866000    1.916000    0.013000
  N      6.413000    4.296000   -0.095000
  H     -3.247000    7.050000    1.694000
  H      2.274000    4.766000    0.081000
  H     -4.076000    3.513000   -1.610000
  H     -5.447000    5.588000   -1.506000
  H     -4.779000    8.316000   -0.621000
  H     -6.225000    7.347000   -0.208000
  H     -5.210000    8.032000    1.091000
  H     -0.332000    5.282000    0.069000
  H     -1.784000    5.038000    1.718000
  H      0.182000    1.072000    0.005000
  H     -0.183000   -1.080000   -0.021000
  H     -5.864000   -4.962000    1.895000
  H     -4.794000    2.272000    0.139000
  H     -4.800000   -2.160000   -1.994000
  H     -6.841000   -3.582000   -1.893000
  H     -8.428000   -4.536000    0.546000
  H     -7.956000   -5.337000   -0.981000
  H     -7.456000   -6.037000    0.584000
  H     -5.287000   -0.344000    0.100000
  H     -3.780000   -3.601000    1.947000
  H      3.587000   -6.868000   -1.843000
  H     -2.276000   -4.774000   -0.050000
  H      3.714000   -3.724000    1.926000
  H      5.092000   -5.795000    1.871000
  H      6.205000   -7.329000   -0.439000
  H      5.393000   -7.917000    1.042000
  H      4.759000   -8.373000   -0.564000
  H      0.329000   -5.290000   -0.008000
  H      2.146000   -4.842000   -1.940000
  H      5.808000    4.986000   -1.956000
  H      4.788000   -2.281000   -0.185000
  H      4.860000    2.114000    1.912000
  H      6.901000    3.531000    1.772000
  H      7.383000    6.109000    0.356000
  H      8.414000    4.652000    0.435000
  H      7.921000    5.310000   -1.150000
  H      5.283000    0.336000   -0.179000
  H      3.720000    3.632000   -1.967000

----------------------------
CARTESIAN COORDINATES (A.U.)
----------------------------
  NO LB      ZA    FRAG     MASS         X           Y           Z
   0 C     6.0000    0    12.011   -6.383495   11.793781    1.863270
   1 C     6.0000    0    12.011    2.785456    7.636383    0.107714
   2 C     6.0000    0    12.011   -5.295013    7.734649    0.092597
   3 C     6.0000    0    12.011   -7.288674    8.057792   -1.627054
   4 C     6.0000    0    12.011   -8.747542   10.219639   -1.549575
   5 C     6.0000    0    12.011   -9.843583   14.371367    0.166296
   6 C     6.0000    0    12.011    0.249444    8.139050    0.115273
   7 C     6.0000    0    12.011   -1.075254    5.775003    0.088817
   8 C     6.0000    0    12.011    3.116158    4.947303    0.043464
   9 C     6.0000    0    12.011   -4.866045    9.671618    1.853821
  10 N     7.0000    0    14.007   -8.292118   12.047004    0.181414
  11 N     7.0000    0    14.007    0.733214    3.906064    0.047243
  12 N     7.0000    0    14.007   -3.798350    0.746442   -0.141729
  13 N     7.0000    0    14.007   -0.733214   -3.919292   -0.051023
  14 N     7.0000    0    14.007    3.798350   -0.757780    0.122832
  15 C     6.0000    0    12.011   -3.703863    5.406506    0.045353
  16 C     6.0000    0    12.011   -4.956752    3.051908   -0.034015
  17 C     6.0000    0    12.011  -10.531444   -8.180624    2.014448
  18 C     6.0000    0    12.011   -7.696855    2.779787    0.105825
  19 C     6.0000    0    12.011   -7.759216   -5.208085   -0.049133
  20 C     6.0000    0    12.011   -9.439182   -5.209975   -2.099486
  21 C     6.0000    0    12.011  -11.587801   -6.693410   -2.033345
  22 C     6.0000    0    12.011  -14.458295   -9.662170    0.075589
  23 C     6.0000    0    12.011   -8.171176    0.266451    0.069920
  24 C     6.0000    0    12.011   -5.716422   -0.982658   -0.090707
  25 C     6.0000    0    12.011   -8.356369   -6.738763    2.031456
  26 N     7.0000    0    14.007  -12.107475   -8.150389    0.001890
  27 C     6.0000    0    12.011   -5.417845   -3.632054   -0.075589
  28 C     6.0000    0    12.011   -3.118048   -4.958641   -0.051023
  29 C     6.0000    0    12.011    6.742543  -11.606698   -1.965315
  30 C     6.0000    0    12.011   -2.789236   -7.651501   -0.064251
  31 C     6.0000    0    12.011    5.296902   -7.745987   -0.015118
  32 C     6.0000    0    12.011    6.910728   -8.284559    2.020117
  33 C     6.0000    0    12.011    8.365818  -10.450186    2.001220
  34 C     6.0000    0    12.011    9.911614  -14.339242    0.026456
  35 C     6.0000    0    12.011   -0.253223   -8.154168   -0.041574
  36 C     6.0000    0    12.011    1.073364   -5.790121   -0.051023
  37 C     6.0000    0    12.011    5.243990   -9.471307   -2.029566
  38 N     7.0000    0    14.007    8.269442  -12.077240    0.032125
  39 C     6.0000    0    12.011    3.701973   -5.421624   -0.017008
  40 C     6.0000    0    12.011    4.952972   -3.065136    0.017008
  41 C     6.0000    0    12.011   10.474752    8.199522   -2.135391
  42 C     6.0000    0    12.011    7.691185   -2.794905   -0.177634
  43 C     6.0000    0    12.011    7.755436    5.198637   -0.039684
  44 C     6.0000    0    12.011    9.499653    5.157063    1.957756
  45 C     6.0000    0    12.011   11.652051    6.631049    1.848152
  46 C     6.0000    0    12.011   14.397823    9.737759   -0.217319
  47 C     6.0000    0    12.011    8.165507   -0.279679   -0.173855
  48 C     6.0000    0    12.011    5.716422    0.971319    0.028346
  49 C     6.0000    0    12.011    8.290229    6.768999   -2.107045
  50 C     6.0000    0    12.011    5.415955    3.620715    0.024566
  51 N     7.0000    0    14.007   12.118814    8.118263   -0.179524
  52 H     1.0000    0     1.008   -6.135941   13.322569    3.201196
  53 H     1.0000    0     1.008    4.297237    9.006435    0.153068
  54 H     1.0000    0     1.008   -7.702524    6.638608   -3.042459
  55 H     1.0000    0     1.008  -10.293338   10.559790   -2.845928
  56 H     1.0000    0     1.008   -9.031001   15.714963   -1.173520
  57 H     1.0000    0     1.008  -11.763545   13.883818   -0.393063
  58 H     1.0000    0     1.008   -9.845473   15.178280    2.061691
  59 H     1.0000    0     1.008   -0.627389    9.981533    0.130391
  60 H     1.0000    0     1.008   -3.371271    9.520440    3.246549
  61 H     1.0000    0     1.008    0.343930    2.025786    0.009449
  62 H     1.0000    0     1.008   -0.345820   -2.040904   -0.039684
  63 H     1.0000    0     1.008  -11.081354   -9.376821    3.581031
  64 H     1.0000    0     1.008   -9.059347    4.293458    0.262672
  65 H     1.0000    0     1.008   -9.070685   -4.081808   -3.768114
  66 H     1.0000    0     1.008  -12.927616   -6.768999   -3.577252
  67 H     1.0000    0     1.008  -15.926612   -8.571798    1.031790
  68 H     1.0000    0     1.008  -15.034661  -10.085468   -1.853821
  69 H     1.0000    0     1.008  -14.089798  -11.408277    1.103600
  70 H     1.0000    0     1.008   -9.990982   -0.650066    0.188973
  71 H     1.0000    0     1.008   -7.143165   -6.804904    3.679297
  72 H     1.0000    0     1.008    6.778448  -12.978639   -3.482765
  73 H     1.0000    0     1.008   -4.301017   -9.021553   -0.094486
  74 H     1.0000    0     1.008    7.018443   -7.037340    3.639613
  75 H     1.0000    0     1.008    9.622485  -10.950963    3.535678
  76 H     1.0000    0     1.008   11.725751  -13.849803   -0.829590
  77 H     1.0000    0     1.008   10.191293  -14.960962    1.969095
  78 H     1.0000    0     1.008    8.993207  -15.822677   -1.065806
  79 H     1.0000    0     1.008    0.621720   -9.996651   -0.015118
  80 H     1.0000    0     1.008    4.055352   -9.150054   -3.666069
  81 H     1.0000    0     1.008   10.975529    9.422175   -3.696304
  82 H     1.0000    0     1.008    9.048009   -4.310465   -0.349599
  83 H     1.0000    0     1.008    9.184069    3.994881    3.613156
  84 H     1.0000    0     1.008   13.041000    6.672623    3.348595
  85 H     1.0000    0     1.008   13.951848   11.544337    0.672743
  86 H     1.0000    0     1.008   15.900156    8.791006    0.822031
  87 H     1.0000    0     1.008   14.968521   10.034446   -2.173185
  88 H     1.0000    0     1.008    9.983423    0.634948   -0.338261
  89 H     1.0000    0     1.008    7.029781    6.863485   -3.717091

--------------------------------
INTERNAL COORDINATES (ANGSTROEM)
--------------------------------
 C      0   0   0     0.000000000000     0.00000000     0.00000000
 C      1   0   0     5.407859558088     0.00000000     0.00000000
 C      1   2   0     2.413223777440    49.98735881     0.00000000
 C      3   1   2     1.403697260808    87.93063843   219.65231678
 C      4   3   1     1.380724809656   120.12686821     0.12672525
 C      5   4   3     2.446972210713   152.55534037     1.65442476
 C      2   1   3     1.368114030335    16.32440763    14.18531319
 C      7   2   1     1.434084376876   108.05010202   216.31279554
 C      2   1   3     1.434123425651   121.14567032   333.96304841
 C      1   2   3     1.380566188200    31.41665201    37.77278361
 N      1   2   3     1.352832583877   126.66413176   307.38217204
 N      9   2   1     1.376127174356   106.58526707    10.25378771
 N     12   9   2     2.925062050624   168.53581413   171.12065651
 N     13  12   9     2.954513327098    91.55032014    11.12112580
 N     14  13  12     2.925371258490    88.43092389   359.84326247
 C      8   7   2     1.404790019896   127.24786865   181.11170171
 C     13  12   9     1.366535034311    81.72106996   188.00453233
 C     14  13  12     5.758810554272    80.56209567   166.76250791
 C     17  13  12     1.459010623676   111.08861209   183.82872609
 C     18  14  13     2.412235892279    27.27532823    36.33507194
 C     20  18  14     1.402692767501    87.95206320   148.94598259
 C     21  20  18     1.382106725257   120.14573887   359.70382047
 C     18  14  13     2.446510985056   144.15733107    82.80075377
 C     19  17  13     1.353610726908   106.29293361   359.75308708
 C     13  12   9     1.366813447402   172.21332906    33.46711076
 C     18  14  13     1.380960173213    15.08449437   309.23336894
 N     22  21  20     1.352773077792   120.73759875     0.27865223
 C     25  13  17     1.410897586645   125.60330303   182.37774668
 C     14  13  12     1.376642291955    80.24689249   177.85461986
 C     14  13  12     5.764089607215   164.51507311   312.20821879
 C     29  14  13     1.435600919476   106.58649366   178.76395472
 C     30  14  13     2.413316804732    27.10625047    82.12560436
 C     32  30  14     1.403734305344    87.90059683   149.76154742
 C     33  32  30     1.380694028378   120.14881443   359.74174632
 C     34  33  32     2.448777858443   152.49203239     2.45173620
 C     31  29  14     1.368160809262   108.16950133     0.70383075
 C     14  13  12     1.376239804685   169.26375223   353.09862627
 C     30  14  13     1.380907310430    14.68948582   353.70041132
 N     34  33  32     1.352658863128   120.85575621     0.19603406
 C     37  14  29     1.404717053360   126.01551127   180.90772073
 C     15  14  13     1.366491126938    81.61824056   183.09049352
 C      2   1   3     4.249062720177   151.47992672   142.55089357
 C     41  15  14     1.459677704153   111.05201287   175.08990246
 C     42   2   1     2.412953791518    41.78584867   166.11971986
 C     44  42   2     1.403446472082    87.95153797   233.97558675
 C     45  44  42     1.381696421071   120.11137308     0.19721020
 C     42   2   1     2.450019795838   135.97209175    76.43456897
 C     43  41  15     1.354461516618   106.26758155     0.30894352
 C     15  14  13     1.367461151185   171.87382904   332.35056460
 C     42   2   1     1.381886391857    32.59078432   214.97499906
 C      9   2   1     1.404988612053   126.98745415   191.25812524
 N     42   2   1     1.352765315936   113.57249190   104.17115816
 H      1   2   3     1.083007848540   107.91858597   161.73600942
 H      2   1   3     1.079907866440   112.81295064   164.00812181
 H      4   3   1     1.083034163819   121.05393339   179.55549616
 H      5   4   3     1.082644909469   122.77837845   179.46225793
 H      6   5   4     1.092292085479   104.49285334   100.04680374
 H      6   5   4     1.089236429798    84.69750033   209.55048929
 H      6   5   4     1.090109627515   133.89391423   322.33558759
 H      7   2   1     1.079807853278   126.66122480    36.55120933
 H     10   1   2     1.084089479702   118.81344993    69.95080056
 H     12   9   2     1.016297692608   125.29023241   180.00180175
 H     14  13  12     1.014936943854    44.97226959   359.42596618
 H     18  14  13     1.082871645210   128.03556573   234.20482432
 H     19  17  13     1.080893611786   126.41830519   178.11313280
 H     21  20  18     1.083569563987   121.05669627   180.67006309
 H     22  21  20     1.082483256222   122.73097286   180.59748951
 H     23  18  14     1.092105306278   103.92715769   234.93429879
 H     23  18  14     1.088871893291   134.19244188    12.25587044
 H     23  18  14     1.089833473518    84.85857450   125.45241208
 H     24  19  17     1.080075460327   127.28078426   178.44613241
 H     26  18  14     1.083408048706   118.76995697   244.94906660
 H     30  14  13     1.082703098730   127.99711412   279.66882698
 H     31  29  14     1.079759695488   125.22293469   180.92530585
 H     33  32  30     1.083188810873   121.01964473   180.74284758
 H     34  33  32     1.082494341787   122.70821597   180.59516895
 H     35  34  33     1.092652735319   105.73575241    97.19771933
 H     35  34  33     1.089462711615    84.05943581   206.43036958
 H     35  34  33     1.089268102902   133.08365142   318.50306270
 H     36  31  29     1.079439669458   126.61599965   178.98859863
 H     38  30  73     1.083742127999   118.77264435   359.90091293
 H     42   2   1     1.082178358682   119.31790784   320.80268861
 H     43  41  15     1.080281907652   126.36969097   182.06329380
 H     45  44  42     1.083277434455   121.10105945   179.58025624
 H     46  45  44     1.082194529648   122.72144639   179.46906377
 H     47  42   2     1.091546151109   106.65128841   315.16475048
 H     47  42   2     1.088818625851   132.46019523    94.52397119
 H     47  42   2     1.089531091801    83.63838232   206.04504406
 H     48  43  41     1.080402239909   127.23657387   181.62955349
 H     50  42   2     1.083186502870   118.77001737    94.71359229

---------------------------
INTERNAL COORDINATES (A.U.)
---------------------------
 C      0   0   0     0.000000000000     0.00000000     0.00000000
 C      1   0   0    10.219373535494     0.00000000     0.00000000
 C      1   2   0     4.560332039228    49.98735881     0.00000000
 C      3   1   2     2.652603397863    87.93063843   219.65231678
 C      4   3   1     2.609191756561   120.12686821     0.12672525
 C      5   4   3     4.624107335563   152.55534037     1.65442476
 C      2   1   3     2.585360837309    16.32440763    14.18531319
 C      7   2   1     2.710026725231   108.05010202   216.31279554
 C      2   1   3     2.710100516721   121.14567032   333.96304841
 C      1   2   3     2.608892005449    31.41665201    37.77278361
 N      1   2   3     2.556483088573   126.66413176   307.38217204
 N      9   2   1     2.600503484979   106.58526707    10.25378771
 N     12   9   2     5.527566200405   168.53581413   171.12065651
 N     13  12   9     5.583221047236    91.55032014    11.12112580
 N     14  13  12     5.528150518591    88.43092389   359.84326247
 C      8   7   2     2.654668413270   127.24786865   181.11170171
 C     13  12   9     2.582376967257    81.72106996   188.00453233
 C     14  13  12    10.882574804710    80.56209567   166.76250791
 C     17  13  12     2.757130505230   111.08861209   183.82872609
 C     18  14  13     4.558465206823    27.27532823    36.33507194
 C     20  18  14     2.650705180609    87.95206320   148.94598259
 C     21  20  18     2.611803198586   120.14573887   359.70382047
 C     18  14  13     4.623235745386   144.15733107    82.80075377
 C     19  17  13     2.557953565794   106.29293361   359.75308708
 C     13  12   9     2.582903091751   172.21332906    33.46711076
 C     18  14  13     2.609636529225    15.08449437   309.23336894
 N     22  21  20     2.556370638369   120.73759875     0.27865223
 C     25  13  17     2.666210041769   125.60330303   182.37774668
 C     14  13  12     2.601476916169    80.24689249   177.85461986
 C     14  13  12    10.892550769017   164.51507311   312.20821879
 C     29  14  13     2.712892575415   106.58649366   178.76395472
 C     30  14  13     4.560507835333    27.10625047    82.12560436
 C     32  30  14     2.652673401891    87.90059683   149.76154742
 C     33  32  30     2.609133588376   120.14881443   359.74174632
 C     34  33  32     4.627519515267   152.49203239     2.45173620
 C     31  29  14     2.585449236669   108.16950133     0.70383075
 C     14  13  12     2.600716325456   169.26375223   353.09862627
 C     30  14  13     2.609536633043    14.68948582   353.70041132
 N     34  33  32     2.556154803934   120.85575621     0.19603406
 C     37  14  29     2.654530526499   126.01551127   180.90772073
 C     15  14  13     2.582293994346    81.61824056   183.09049352
 C      2   1   3     8.029564866989   151.47992672   142.55089357
 C     41  15  14     2.758391104639   111.05201287   175.08990246
 C     42   2   1     4.559821839776    41.78584867   166.11971986
 C     44  42   2     2.652129475853    87.95153797   233.97558675
 C     45  44  42     2.611027836043   120.11137308     0.19721020
 C     42   2   1     4.629866436820   135.97209175    76.43456897
 C     43  41  15     2.559561325344   106.26758155     0.30894352
 C     15  14  13     2.584127074516   171.87382904   332.35056460
 C     42   2   1     2.611386828803    32.59078432   214.97499906
 C      9   2   1     2.655043698059   126.98745415   191.25812524
 N     42   2   1     2.556355970587   113.57249190   104.17115816
 H      1   2   3     2.046588234629   107.91858597   161.73600942
 H      2   1   3     2.040730117440   112.81295064   164.00812181
 H      4   3   1     2.046637963299   121.05393339   179.55549616
 H      5   4   3     2.045902379181   122.77837845   179.46225793
 H      6   5   4     2.064132899805   104.49285334   100.04680374
 H      6   5   4     2.058358547409    84.69750033   209.55048929
 H      6   5   4     2.060008651953   133.89391423   322.33558759
 H      7   2   1     2.040541119952   126.66122480    36.55120933
 H     10   1   2     2.048632221301   118.81344993    69.95080056
 H     12   9   2     1.920524309565   125.29023241   180.00180175
 H     14  13  12     1.917952867083    44.97226959   359.42596618
 H     18  14  13     2.046330847636   128.03556573   234.20482432
 H     19  17  13     2.042592906181   126.41830519   178.11313280
 H     21  20  18     2.047649722989   121.05669627   180.67006309
 H     22  21  20     2.045596898814   122.73097286   180.59748951
 H     23  18  14     2.063779938267   103.92715769   234.93429879
 H     23  18  14     2.057669673245   134.19244188    12.25587044
 H     23  18  14     2.059486796529    84.85857450   125.45241208
 H     24  19  17     2.041046823986   127.28078426   178.44613241
 H     26  18  14     2.047344503340   118.76995697   244.94906660
 H     30  14  13     2.046012340948   127.99711412   279.66882698
 H     31  29  14     2.040450114918   125.22293469   180.92530585
 H     33  32  30     2.046930203877   121.01964473   180.74284758
 H     34  33  32     2.045617847496   122.70821597   180.59516895
 H     35  34  33     2.064814429233   105.73575241    97.19771933
 H     35  34  33     2.058786158072    84.05943581   206.43036958
 H     35  34  33     2.058418400901   133.08365142   318.50306270
 H     36  31  29     2.039845353366   126.61599965   178.98859863
 H     38  30  73     2.047975821711   118.77264435   359.90091293
 H     42   2   1     2.045020725966   119.31790784   320.80268861
 H     43  41  15     2.041436952892   126.36969097   182.06329380
 H     45  44  42     2.047097678177   121.10105945   179.58025624
 H     46  45  44     2.045051284662   122.72144639   179.46906377
 H     47  42   2     2.062723288131   106.65128841   315.16475048
 H     47  42   2     2.057569012371   132.46019523    94.52397119
 H     47  42   2     2.058915377895    83.63838232   206.04504406
 H     48  43  41     2.041664347903   127.23657387   181.62955349
 H     50  42   2     2.046925842384   118.77001737    94.71359229

---------------------
BASIS SET INFORMATION
---------------------
There are 3 groups of distinct atoms

 Group   1 Type C   : 17s4p1d contracted to 3s2p1d pattern {881/31/1}
 Group   2 Type N   : 17s4p1d contracted to 3s2p1d pattern {881/31/1}
 Group   3 Type H   : 4s1p contracted to 2s1p pattern {31/1}

Atom   0C    basis set group =>   1
Atom   1N    basis set group =>   2
Atom   2C    basis set group =>   1
Atom   3N    basis set group =>   2
Atom   4C    basis set group =>   1
Atom   5N    basis set group =>   2
Atom   6C    basis set group =>   1
Atom   7N    basis set group =>   2
Atom   8C    basis set group =>   1
Atom   9N    basis set group =>   2
Atom  10C    basis set group =>   1
Atom  11N    basis set group =>   2
Atom  12C    basis set group =>   1
Atom  13N    basis set group =>   2
Atom  14C    basis set group =>   1
Atom  15N    basis set group =>   2
Atom  16C    basis set group =>   1
Atom  17C    basis set group =>   1
Atom  18C    basis set group =>   1
Atom  19C    basis set group =>   1
Atom  20C    basis set group =>   1
Atom  21C    basis set group =>   1
Atom  22C    basis set group =>   1
Atom  23C    basis set group =>   1
Atom  24C    basis set group =>   1
Atom  25C    basis set group =>   1
Atom  26C    basis set group =>   1
Atom  27C    basis set group =>   1
Atom  28C    basis set group =>   1
Atom  29C    basis set group =>   1
Atom  30C    basis set group =>   1
Atom  31C    basis set group =>   1
Atom  32C    basis set group =>   1
Atom  33C    basis set group =>   1
Atom  34C    basis set group =>   1
Atom  35C    basis set group =>   1
Atom  36C    basis set group =>   1
Atom  37C    basis set group =>   1
Atom  38C    basis set group =>   1
Atom  39C    basis set group =>   1
Atom  40C    basis set group =>   1
Atom  41C    basis set group =>   1
Atom  42C    basis set group =>   1
Atom  43C    basis set group =>   1
Atom  44C    basis set group =>   1
Atom  45C    basis set group =>   1
Atom  46C    basis set group =>   1
Atom  47C    basis set group =>   1
Atom  48C    basis set group =>   1
Atom  49C    basis set group =>   1
Atom  50C    basis set group =>   1
Atom  51C    basis set group =>   1
Atom  52H    basis set group =>   3
Atom  53H    basis set group =>   3
Atom  54H    basis set group =>   3
Atom  55H    basis set group =>   3
Atom  56H    basis set group =>   3
Atom  57H    basis set group =>   3
Atom  58H    basis set group =>   3
Atom  59H    basis set group =>   3
Atom  60H    basis set group =>   3
Atom  61H    basis set group =>   3
Atom  62H    basis set group =>   3
Atom  63H    basis set group =>   3
Atom  64H    basis set group =>   3
Atom  65H    basis set group =>   3
Atom  66H    basis set group =>   3
Atom  67H    basis set group =>   3
Atom  68H    basis set group =>   3
Atom  69H    basis set group =>   3
Atom  70H    basis set group =>   3
Atom  71H    basis set group =>   3
Atom  72H    basis set group =>   3
Atom  73H    basis set group =>   3
Atom  74H    basis set group =>   3
Atom  75H    basis set group =>   3
Atom  76H    basis set group =>   3
Atom  77H    basis set group =>   3
Atom  78H    basis set group =>   3
Atom  79H    basis set group =>   3
Atom  80H    basis set group =>   3
Atom  81H    basis set group =>   3
Atom  82H    basis set group =>   3
Atom  83H    basis set group =>   3
Atom  84H    basis set group =>   3
Atom  85H    basis set group =>   3
Atom  86H    basis set group =>   3
Atom  87H    basis set group =>   3
Atom  88H    basis set group =>   3
Atom  89H    basis set group =>   3


           ************************************************************
           *        Program running with 8 parallel MPI-processes     *
           *              working on a common directory               *
           ************************************************************
------------------------------------------------------------------------------
                           ORCA GTO INTEGRAL CALCULATION
------------------------------------------------------------------------------
------------------------------------------------------------------------------
                   ___                                                        
                  /   \      - P O W E R E D   B Y -                         
                 /     \                                                     
                 |  |  |   _    _      __       _____    __    __             
                 |  |  |  | |  | |    /  \     |  _  \  |  |  /  |          
                  \  \/   | |  | |   /    \    | | | |  |  | /  /          
                 / \  \   | |__| |  /  /\  \   | |_| |  |  |/  /          
                |  |  |   |  __  | /  /__\  \  |    /   |      \           
                |  |  |   | |  | | |   __   |  |    \   |  |\   \          
                \     /   | |  | | |  |  |  |  | |\  \  |  | \   \       
                 \___/    |_|  |_| |__|  |__|  |_| \__\ |__|  \__/        
                                                                              
                      - O R C A' S   B I G   F R I E N D -                    
                                      &                                       
                       - I N T E G R A L  F E E D E R -                       
                                                                              
 v1 FN, 2020, v2 2021                                                         
------------------------------------------------------------------------------


Reading SHARK input file /scratch/chu_02/allen/tmpyp4_amber_gaff2/conf1/conf1/Conf312.orca.SHARKINP.tmp ... ok
----------------------
SHARK INTEGRAL PACKAGE
----------------------

Number of atoms                             ...     90
Number of basis functions                   ...   1230
Number of shells                            ...    738
Maximum angular momentum                    ...      2
Integral batch strategy                     ... SHARK/LIBINT Hybrid
RI-J (if used) integral strategy            ... SPLIT-RIJ (Revised 2003 algorithm where possible)
Printlevel                                  ...      1
Contraction scheme used                     ... PARTIAL GENERAL contraction
Coulomb Range Separation                    ... NOT USED
Exchange Range Separation                   ... NOT USED
Finite Nucleus Model                        ... NOT USED
Auxiliary Coulomb fitting basis             ... NOT available
Auxiliary J/K fitting basis                 ... NOT available
Auxiliary Correlation fitting basis         ... NOT available
Auxiliary 'external' fitting basis          ... NOT available
Integral threshold                          ...     2.500000e-11
Primitive cut-off                           ...     2.500000e-12
Primitive pair pre-selection threshold      ...     2.500000e-12

Calculating pre-screening integrals         ... done (  0.1 sec) Dimension = 738
Calculating pre-screening integrals (ORCA)  ... done (  0.3 sec) Dimension = 426
Organizing shell pair data                  ... done (  0.5 sec)
Shell pair information
Total number of shell pairs                 ...    272691
Shell pairs after pre-screening             ...     71608
Total number of primitive shell pairs       ...    422091
Primitive shell pairs kept                  ...     92393
          la=0 lb=0:  29417 shell pairs
          la=1 lb=0:  25968 shell pairs
          la=1 lb=1:   4702 shell pairs
          la=2 lb=0:   7867 shell pairs
          la=2 lb=1:   3124 shell pairs
          la=2 lb=2:    530 shell pairs

Calculating one electron integrals          ... done (  0.2 sec)
Calculating Nuclear repulsion               ... done (  0.0 sec) ENN=   6226.750988137816 Eh

SHARK setup successfully completed in   1.5 seconds

Maximum memory used throughout the entire GTOINT-calculation: 99.0 MB


           ************************************************************
           *        Program running with 8 parallel MPI-processes     *
           *              working on a common directory               *
           ************************************************************
-------------------------------------------------------------------------------
                                 ORCA SCF
-------------------------------------------------------------------------------

------------
SCF SETTINGS
------------
Hamiltonian:
 Ab initio Hamiltonian  Method          .... Hartree-Fock(GTOs)


General Settings:
 Integral files         IntName         .... /scratch/chu_02/allen/tmpyp4_amber_gaff2/conf1/conf1/Conf312.orca
 Hartree-Fock type      HFTyp           .... RHF
 Total Charge           Charge          ....    0
 Multiplicity           Mult            ....    1
 Number of Electrons    NEL             ....  358
 Basis Dimension        Dim             ....  918
 Nuclear Repulsion      ENuc            ....   6226.7509881378 Eh

Convergence Acceleration:
 DIIS                   CNVDIIS         .... on
   Start iteration      DIISMaxIt       ....    12
   Startup error        DIISStart       ....  0.200000
   # of expansion vecs  DIISMaxEq       ....     5
   Bias factor          DIISBfac        ....   1.050
   Max. coefficient     DIISMaxC        ....  10.000
 Trust-Rad. Augm. Hess. CNVTRAH         .... auto
   Auto Start mean grad. ratio tolernc. ....  1.125000
   Auto Start start iteration           ....    20
   Auto Start num. interpolation iter.  ....    10
   Max. Number of Micro iterations      ....    16
   Max. Number of Macro iterations      .... Maxiter - #DIIS iter
   Number of Davidson start vectors     ....     2
   Converg. threshold I  (grad. norm)   ....   1.000e-05
   Converg. threshold II (energy diff.) ....   1.000e-08
   Grad. Scal. Fac. for Micro threshold ....   0.100
   Minimum threshold for Micro iter.    ....   0.010
   NR start threshold (gradient norm)   ....   0.001
   Initial trust radius                 ....   0.400
   Minimum AH scaling param. (alpha)    ....   1.000
   Maximum AH scaling param. (alpha)    .... 1000.000
   Orbital update algorithm             .... Taylor
   White noise on init. David. guess    .... on
   Maximum white noise                  ....   0.010
   Quad. conv. algorithm                .... NR
 SOSCF                  CNVSOSCF        .... on
   Start iteration      SOSCFMaxIt      ....   150
   Startup grad/error   SOSCFStart      ....  0.003300
 Level Shifting         CNVShift        .... on
   Level shift para.    LevelShift      ....    0.2500
   Turn off err/grad.   ShiftErr        ....    0.0010
 Zerner damping         CNVZerner       .... off
 Static damping         CNVDamp         .... on
   Fraction old density DampFac         ....    0.7000
   Max. Damping (<1)    DampMax         ....    0.9800
   Min. Damping (>=0)   DampMin         ....    0.0000
   Turn off err/grad.   DampErr         ....    0.1000
 Fernandez-Rico         CNVRico         .... off

SCF Procedure:
 Maximum # iterations   MaxIter         ....   125
 SCF integral mode      SCFMode         .... Direct
   Integral package                     .... SHARK and LIBINT hybrid scheme
 Reset frequency        DirectResetFreq ....    20
 Integral Threshold     Thresh          ....  2.500e-11 Eh
 Primitive CutOff       TCut            ....  2.500e-12 Eh

Convergence Tolerance:
 Convergence Check Mode ConvCheckMode   .... Total+1el-Energy
 Convergence forced     ConvForced      .... 1
 Energy Change          TolE            ....  1.000e-08 Eh
 1-El. energy change                    ....  1.000e-05 Eh
 Orbital Gradient       TolG            ....  1.000e-05
 Orbital Rotation angle TolX            ....  1.000e-05
 DIIS Error             TolErr          ....  5.000e-07


Diagonalization of the overlap matrix:
Smallest eigenvalue                        ... 2.246e-04
Time for diagonalization                   ...    0.198 sec
Threshold for overlap eigenvalues          ... 1.000e-08
Number of eigenvalues below threshold      ... 0
Time for construction of square roots      ...    0.116 sec
Total time needed                          ...    0.318 sec

Time for model grid setup =    1.156 sec

------------------------------
INITIAL GUESS: MODEL POTENTIAL
------------------------------
Loading Hartree-Fock densities                     ... done
Calculating cut-offs                               ... done
Initializing the effective Hamiltonian             ... done
Setting up the integral package (SHARK)            ... done
Starting the Coulomb interaction                   ... done (   1.6 sec)
Reading the grid                                   ... done
Mapping shells                                     ... done
Starting the XC term evaluation                    ... done (   0.3 sec)
Transforming the Hamiltonian                       ... done (   0.1 sec)
Diagonalizing the Hamiltonian                      ... done (   0.2 sec)
Back transforming the eigenvectors                 ... done (   0.0 sec)
Now organizing SCF variables                       ... done
                      ------------------
                      INITIAL GUESS DONE (   3.5 sec)
                      ------------------
--------------
SCF ITERATIONS
--------------
ITER       Energy         Delta-E        Max-DP      RMS-DP      [F,P]     Damp
               ***  Starting incremental Fock matrix formation  ***
  0  -2121.6883731530   0.000000000000 0.06881889  0.00120710  0.2326803 0.7000
  1  -2122.3499262443  -0.661553091322 0.05218294  0.00097985  0.1440254 0.7000
                               ***Turning on DIIS***
  2  -2122.7608036788  -0.410877434470 0.11681066  0.00222197  0.0802407 0.0000
  3  -2117.8115180770   4.949285601782 0.03018515  0.00067483  0.0441482 0.0000
  4  -2123.4275128724  -5.615994795380 0.00884245  0.00022664  0.0072246 0.0000
  5  -2123.5993214036  -0.171808531240 0.00512385  0.00013362  0.0049819 0.0000
  6  -2123.5819785682   0.017342835416 0.00343707  0.00008631  0.0019397 0.0000
  7  -2123.6843321937  -0.102353625471 0.00290933  0.00006786  0.0015231 0.0000
  8  -2123.6993056287  -0.014973434954 0.00301357  0.00006353  0.0014151 0.0000
  9  -2123.6656412275   0.033664401164 0.00242207  0.00004357  0.0011197 0.0000
 10  -2123.6775009911  -0.011859763586 0.00496184  0.00008684  0.0008566 0.0000
                      *** Initiating the SOSCF procedure ***
                           *** Shutting down DIIS ***
                      *** Re-Reading the Fockian *** 
                      *** Removing any level shift *** 
ITER      Energy       Delta-E        Grad      Rot      Max-DP    RMS-DP
 11  -2123.56503538   0.1124656122  0.000256  0.000256  0.000270  0.000006
               *** Restarting incremental Fock matrix formation ***
 12  -2123.62943029  -0.0643949150  0.000860  0.005791  0.001166  0.000029
 13  -2123.62950416  -0.0000738711  0.000965  0.026046  0.005484  0.000106
 14  -2123.62961516  -0.0001109911  0.000435  0.001990  0.000526  0.000011
 15  -2123.62962942  -0.0000142599  0.000182  0.003573  0.000901  0.000016
 16  -2123.62963815  -0.0000087335  0.000146  0.004408  0.000751  0.000015
 17  -2123.62964249  -0.0000043405  0.000132  0.003166  0.000411  0.000010
 18  -2123.62964470  -0.0000022096  0.000072  0.001484  0.000265  0.000005
 19  -2123.62964577  -0.0000010723  0.000059  0.000471  0.000169  0.000003
 20  -2123.62964610  -0.0000003237  0.000026  0.000493  0.000125  0.000002
 21  -2123.62964626  -0.0000001599  0.000022  0.000204  0.000070  0.000001
 22  -2123.62964634  -0.0000000851  0.000016  0.000369  0.000104  0.000002
 23  -2123.62964640  -0.0000000622  0.000010  0.000133  0.000045  0.000001
 24  -2123.62964642  -0.0000000204  0.000005  0.000091  0.000026  0.000000
 25  -2123.62964643  -0.0000000102  0.000004  0.000055  0.000017  0.000000
                  ***Gradient check signals convergence***
              ***Rediagonalizing the Fockian in SOSCF/NRSCF***

               *****************************************************
               *                     SUCCESS                       *
               *           SCF CONVERGED AFTER  26 CYCLES          *
               *****************************************************


----------------
TOTAL SCF ENERGY
----------------

Total Energy       :        -2123.62964644 Eh          -57786.90051 eV

Components:
Nuclear Repulsion  :         6226.75098814 Eh          169438.50847 eV
Electronic Energy  :        -8350.38063458 Eh         -227225.40898 eV
One Electron Energy:       -15294.52245895 Eh         -416185.11455 eV
Two Electron Energy:         6944.14182437 Eh          188959.70557 eV

Virial components:
Potential Energy   :        -4245.65078974 Eh         -115530.03142 eV
Kinetic Energy     :         2122.02114330 Eh           57743.13091 eV
Virial Ratio       :            2.00075801


---------------
SCF CONVERGENCE
---------------

  Last Energy change         ...   -6.9685e-09  Tolerance :   1.0000e-08
  Last MAX-Density change    ...    1.2530e-05  Tolerance :   1.0000e-07
  Last RMS-Density change    ...    2.3118e-07  Tolerance :   5.0000e-09
  Last Orbital Gradient      ...    2.0766e-06  Tolerance :   1.0000e-05
  Last Orbital Rotation      ...    5.7541e-05  Tolerance :   1.0000e-05

             **** THE GBW FILE WAS UPDATED (/scratch/chu_02/allen/tmpyp4_amber_gaff2/conf1/conf1/Conf312.orca.gbw) ****
             **** DENSITY /scratch/chu_02/allen/tmpyp4_amber_gaff2/conf1/conf1/Conf312.orca.scfp WAS UPDATED ****
             **** ENERGY FILE WAS UPDATED (/scratch/chu_02/allen/tmpyp4_amber_gaff2/conf1/conf1/Conf312.orca.en.tmp) ****
             **** THE GBW FILE WAS UPDATED (/scratch/chu_02/allen/tmpyp4_amber_gaff2/conf1/conf1/Conf312.orca.gbw) ****
             **** DENSITY /scratch/chu_02/allen/tmpyp4_amber_gaff2/conf1/conf1/Conf312.orca.scfp WAS UPDATED ****
----------------
ORBITAL ENERGIES
----------------

  NO   OCC          E(Eh)            E(eV) 
   0   2.0000     -15.655690      -426.0130 
   1   2.0000     -15.639065      -425.5606 
   2   2.0000     -15.628648      -425.2771 
   3   2.0000     -15.605729      -424.6535 
   4   2.0000     -15.522216      -422.3810 
   5   2.0000     -15.515639      -422.2020 
   6   2.0000     -15.447831      -420.3568 
   7   2.0000     -15.443752      -420.2458 
   8   2.0000     -11.313000      -307.8424 
   9   2.0000     -11.309851      -307.7567 
  10   2.0000     -11.307382      -307.6895 
  11   2.0000     -11.302437      -307.5549 
  12   2.0000     -11.296111      -307.3828 
  13   2.0000     -11.295766      -307.3734 
  14   2.0000     -11.292537      -307.2855 
  15   2.0000     -11.286972      -307.1341 
  16   2.0000     -11.284706      -307.0725 
  17   2.0000     -11.282607      -307.0154 
  18   2.0000     -11.269098      -306.6478 
  19   2.0000     -11.267422      -306.6021 
  20   2.0000     -11.259302      -306.3812 
  21   2.0000     -11.246306      -306.0275 
  22   2.0000     -11.245403      -306.0030 
  23   2.0000     -11.242540      -305.9251 
  24   2.0000     -11.234665      -305.7108 
  25   2.0000     -11.234083      -305.6949 
  26   2.0000     -11.233208      -305.6711 
  27   2.0000     -11.226929      -305.5003 
  28   2.0000     -11.226734      -305.4950 
  29   2.0000     -11.214935      -305.1739 
  30   2.0000     -11.209843      -305.0353 
  31   2.0000     -11.209558      -305.0276 
  32   2.0000     -11.205719      -304.9231 
  33   2.0000     -11.204779      -304.8975 
  34   2.0000     -11.191488      -304.5359 
  35   2.0000     -11.191156      -304.5268 
  36   2.0000     -11.180272      -304.2307 
  37   2.0000     -11.177601      -304.1580 
  38   2.0000     -11.177205      -304.1472 
  39   2.0000     -11.173690      -304.0516 
  40   2.0000     -11.167507      -303.8833 
  41   2.0000     -11.166420      -303.8537 
  42   2.0000     -11.166222      -303.8483 
  43   2.0000     -11.165411      -303.8263 
  44   2.0000     -11.164116      -303.7910 
  45   2.0000     -11.162725      -303.7532 
  46   2.0000     -11.150177      -303.4117 
  47   2.0000     -11.150123      -303.4103 
  48   2.0000     -11.146786      -303.3195 
  49   2.0000     -11.146721      -303.3177 
  50   2.0000     -11.138312      -303.0889 
  51   2.0000     -11.133813      -302.9665 
  52   2.0000      -1.339832       -36.4587 
  53   2.0000      -1.325570       -36.0706 
  54   2.0000      -1.316670       -35.8284 
  55   2.0000      -1.297982       -35.3199 
  56   2.0000      -1.221885       -33.2492 
  57   2.0000      -1.211252       -32.9598 
  58   2.0000      -1.165171       -31.7059 
  59   2.0000      -1.155860       -31.4525 
  60   2.0000      -1.126218       -30.6460 
  61   2.0000      -1.113694       -30.3052 
  62   2.0000      -1.106086       -30.0981 
  63   2.0000      -1.091185       -29.6927 
  64   2.0000      -1.062955       -28.9245 
  65   2.0000      -1.049481       -28.5578 
  66   2.0000      -1.041343       -28.3364 
  67   2.0000      -1.030728       -28.0475 
  68   2.0000      -1.024673       -27.8828 
  69   2.0000      -1.012790       -27.5594 
  70   2.0000      -1.009376       -27.4665 
  71   2.0000      -0.994173       -27.0528 
  72   2.0000      -0.986229       -26.8367 
  73   2.0000      -0.974480       -26.5169 
  74   2.0000      -0.973095       -26.4792 
  75   2.0000      -0.958773       -26.0896 
  76   2.0000      -0.951154       -25.8822 
  77   2.0000      -0.946589       -25.7580 
  78   2.0000      -0.937843       -25.5200 
  79   2.0000      -0.922359       -25.0987 
  80   2.0000      -0.896405       -24.3924 
  81   2.0000      -0.887048       -24.1378 
  82   2.0000      -0.876332       -23.8462 
  83   2.0000      -0.869181       -23.6516 
  84   2.0000      -0.863041       -23.4845 
  85   2.0000      -0.854774       -23.2596 
  86   2.0000      -0.847557       -23.0632 
  87   2.0000      -0.840216       -22.8634 
  88   2.0000      -0.821887       -22.3647 
  89   2.0000      -0.798785       -21.7360 
  90   2.0000      -0.796150       -21.6644 
  91   2.0000      -0.741779       -20.1848 
  92   2.0000      -0.735000       -20.0004 
  93   2.0000      -0.730905       -19.8889 
  94   2.0000      -0.722544       -19.6614 
  95   2.0000      -0.719475       -19.5779 
  96   2.0000      -0.712946       -19.4002 
  97   2.0000      -0.705370       -19.1941 
  98   2.0000      -0.700676       -19.0664 
  99   2.0000      -0.695377       -18.9222 
 100   2.0000      -0.690906       -18.8005 
 101   2.0000      -0.681422       -18.5424 
 102   2.0000      -0.678767       -18.4702 
 103   2.0000      -0.673873       -18.3370 
 104   2.0000      -0.670472       -18.2445 
 105   2.0000      -0.668490       -18.1905 
 106   2.0000      -0.664163       -18.0728 
 107   2.0000      -0.660999       -17.9867 
 108   2.0000      -0.657237       -17.8843 
 109   2.0000      -0.655795       -17.8451 
 110   2.0000      -0.651118       -17.7178 
 111   2.0000      -0.648453       -17.6453 
 112   2.0000      -0.644261       -17.5312 
 113   2.0000      -0.636626       -17.3235 
 114   2.0000      -0.634167       -17.2566 
 115   2.0000      -0.628543       -17.1035 
 116   2.0000      -0.622859       -16.9489 
 117   2.0000      -0.616253       -16.7691 
 118   2.0000      -0.612857       -16.6767 
 119   2.0000      -0.611065       -16.6279 
 120   2.0000      -0.608598       -16.5608 
 121   2.0000      -0.602269       -16.3886 
 122   2.0000      -0.595920       -16.2158 
 123   2.0000      -0.592639       -16.1265 
 124   2.0000      -0.590422       -16.0662 
 125   2.0000      -0.584832       -15.9141 
 126   2.0000      -0.578384       -15.7386 
 127   2.0000      -0.575625       -15.6635 
 128   2.0000      -0.564633       -15.3644 
 129   2.0000      -0.558846       -15.2070 
 130   2.0000      -0.554004       -15.0752 
 131   2.0000      -0.549292       -14.9470 
 132   2.0000      -0.541996       -14.7485 
 133   2.0000      -0.537537       -14.6271 
 134   2.0000      -0.534204       -14.5364 
 135   2.0000      -0.530447       -14.4342 
 136   2.0000      -0.525575       -14.3016 
 137   2.0000      -0.523074       -14.2336 
 138   2.0000      -0.517920       -14.0933 
 139   2.0000      -0.517427       -14.0799 
 140   2.0000      -0.509746       -13.8709 
 141   2.0000      -0.507955       -13.8222 
 142   2.0000      -0.507430       -13.8079 
 143   2.0000      -0.501574       -13.6485 
 144   2.0000      -0.500139       -13.6095 
 145   2.0000      -0.497817       -13.5463 
 146   2.0000      -0.493992       -13.4422 
 147   2.0000      -0.489376       -13.3166 
 148   2.0000      -0.488193       -13.2844 
 149   2.0000      -0.469228       -12.7684 
 150   2.0000      -0.462383       -12.5821 
 151   2.0000      -0.454184       -12.3590 
 152   2.0000      -0.448245       -12.1974 
 153   2.0000      -0.446798       -12.1580 
 154   2.0000      -0.446177       -12.1411 
 155   2.0000      -0.439610       -11.9624 
 156   2.0000      -0.434656       -11.8276 
 157   2.0000      -0.430014       -11.7013 
 158   2.0000      -0.396432       -10.7875 
 159   2.0000      -0.384332       -10.4582 
 160   2.0000      -0.379266       -10.3204 
 161   2.0000      -0.371693       -10.1143 
 162   2.0000      -0.370820       -10.0905 
 163   2.0000      -0.359918        -9.7939 
 164   2.0000      -0.353142        -9.6095 
 165   2.0000      -0.338033        -9.1983 
 166   2.0000      -0.337252        -9.1771 
 167   2.0000      -0.335285        -9.1236 
 168   2.0000      -0.328901        -8.9498 
 169   2.0000      -0.300333        -8.1725 
 170   2.0000      -0.299724        -8.1559 
 171   2.0000      -0.287748        -7.8300 
 172   2.0000      -0.285806        -7.7772 
 173   2.0000      -0.257580        -7.0091 
 174   2.0000      -0.246855        -6.7173 
 175   2.0000      -0.188952        -5.1416 
 176   2.0000      -0.179023        -4.8715 
 177   2.0000      -0.069659        -1.8955 
 178   2.0000      -0.056228        -1.5300 
 179   0.0000       0.029721         0.8087 
 180   0.0000       0.069160         1.8819 
 181   0.0000       0.092673         2.5217 
 182   0.0000       0.101752         2.7688 
 183   0.0000       0.122504         3.3335 
 184   0.0000       0.133941         3.6447 
 185   0.0000       0.141634         3.8541 
 186   0.0000       0.153535         4.1779 
 187   0.0000       0.157874         4.2960 
 188   0.0000       0.162073         4.4102 
 189   0.0000       0.162666         4.4264 
 190   0.0000       0.167706         4.5635 
 191   0.0000       0.178836         4.8664 
 192   0.0000       0.193171         5.2565 
 193   0.0000       0.196579         5.3492 
 194   0.0000       0.202108         5.4996 
 195   0.0000       0.205664         5.5964 
 196   0.0000       0.207807         5.6547 
 197   0.0000       0.210829         5.7369 
 198   0.0000       0.218445         5.9442 
 199   0.0000       0.223503         6.0818 
 200   0.0000       0.228300         6.2123 
 201   0.0000       0.237069         6.4510 
 202   0.0000       0.241765         6.5788 
 203   0.0000       0.245936         6.6922 
 204   0.0000       0.252927         6.8825 
 205   0.0000       0.253706         6.9037 
 206   0.0000       0.255151         6.9430 
 207   0.0000       0.259223         7.0538 
 208   0.0000       0.262692         7.1482 
 209   0.0000       0.263737         7.1766 
 210   0.0000       0.266161         7.2426 
 211   0.0000       0.269795         7.3415 
 212   0.0000       0.271445         7.3864 
 213   0.0000       0.274748         7.4763 
 214   0.0000       0.277093         7.5401 
 215   0.0000       0.279052         7.5934 
 216   0.0000       0.281696         7.6653 
 217   0.0000       0.282400         7.6845 
 218   0.0000       0.283006         7.7010 
 219   0.0000       0.287710         7.8290 
 220   0.0000       0.290350         7.9008 
 221   0.0000       0.293038         7.9740 
 222   0.0000       0.293627         7.9900 
 223   0.0000       0.295517         8.0414 
 224   0.0000       0.298391         8.1196 
 225   0.0000       0.300261         8.1705 
 226   0.0000       0.306213         8.3325 
 227   0.0000       0.307425         8.3655 
 228   0.0000       0.310131         8.4391 
 229   0.0000       0.314405         8.5554 
 230   0.0000       0.315778         8.5928 
 231   0.0000       0.321937         8.7604 
 232   0.0000       0.324433         8.8283 
 233   0.0000       0.330358         8.9895 
 234   0.0000       0.333789         9.0829 
 235   0.0000       0.340839         9.2747 
 236   0.0000       0.355235         9.6664 
 237   0.0000       0.383794        10.4436 
 238   0.0000       0.395286        10.7563 
 239   0.0000       0.398884        10.8542 
 240   0.0000       0.404107        10.9963 
 241   0.0000       0.414776        11.2866 
 242   0.0000       0.418498        11.3879 
 243   0.0000       0.425033        11.5657 
 244   0.0000       0.426831        11.6147 
 245   0.0000       0.432099        11.7580 
 246   0.0000       0.434056        11.8113 
 247   0.0000       0.438334        11.9277 
 248   0.0000       0.440663        11.9910 
 249   0.0000       0.443891        12.0789 
 250   0.0000       0.450149        12.2492 
 251   0.0000       0.456757        12.4290 
 252   0.0000       0.459292        12.4980 
 253   0.0000       0.462365        12.5816 
 254   0.0000       0.470040        12.7905 
 255   0.0000       0.474570        12.9137 
 256   0.0000       0.482989        13.1428 
 257   0.0000       0.484503        13.1840 
 258   0.0000       0.491656        13.3786 
 259   0.0000       0.497897        13.5485 
 260   0.0000       0.500761        13.6264 
 261   0.0000       0.502906        13.6848 
 262   0.0000       0.507345        13.8056 
 263   0.0000       0.509521        13.8648 
 264   0.0000       0.511836        13.9278 
 265   0.0000       0.515224        14.0200 
 266   0.0000       0.518762        14.1162 
 267   0.0000       0.523345        14.2409 
 268   0.0000       0.535631        14.5753 
 269   0.0000       0.538150        14.6438 
 270   0.0000       0.541526        14.7357 
 271   0.0000       0.544782        14.8243 
 272   0.0000       0.545540        14.8449 
 273   0.0000       0.554103        15.0779 
 274   0.0000       0.560133        15.2420 
 275   0.0000       0.564965        15.3735 
 276   0.0000       0.572090        15.5674 
 277   0.0000       0.577403        15.7119 
 278   0.0000       0.580889        15.8068 
 279   0.0000       0.584037        15.8924 
 280   0.0000       0.586453        15.9582 
 281   0.0000       0.590886        16.0788 
 282   0.0000       0.593015        16.1368 
 283   0.0000       0.597471        16.2580 
 284   0.0000       0.598976        16.2990 
 285   0.0000       0.599880        16.3236 
 286   0.0000       0.606902        16.5146 
 287   0.0000       0.610964        16.6252 
 288   0.0000       0.612033        16.6543 
 289   0.0000       0.617969        16.8158 
 290   0.0000       0.623759        16.9734 
 291   0.0000       0.627731        17.0814 
 292   0.0000       0.635925        17.3044 
 293   0.0000       0.637130        17.3372 
 294   0.0000       0.645236        17.5578 
 295   0.0000       0.650832        17.7100 
 296   0.0000       0.655162        17.8279 
 297   0.0000       0.658504        17.9188 
 298   0.0000       0.662709        18.0332 
 299   0.0000       0.665555        18.1107 
 300   0.0000       0.669685        18.2231 
 301   0.0000       0.671206        18.2644 
 302   0.0000       0.679632        18.4937 
 303   0.0000       0.682267        18.5654 
 304   0.0000       0.685235        18.6462 
 305   0.0000       0.687677        18.7127 
 306   0.0000       0.688258        18.7284 
 307   0.0000       0.692353        18.8399 
 308   0.0000       0.697055        18.9678 
 309   0.0000       0.697431        18.9780 
 310   0.0000       0.701772        19.0962 
 311   0.0000       0.704660        19.1748 
 312   0.0000       0.706238        19.2177 
 313   0.0000       0.708164        19.2701 
 314   0.0000       0.711597        19.3636 
 315   0.0000       0.713642        19.4192 
 316   0.0000       0.717294        19.5186 
 317   0.0000       0.718619        19.5546 
 318   0.0000       0.721132        19.6230 
 319   0.0000       0.722745        19.6669 
 320   0.0000       0.727146        19.7867 
 321   0.0000       0.730160        19.8687 
 322   0.0000       0.732971        19.9452 
 323   0.0000       0.734911        19.9979 
 324   0.0000       0.739351        20.1188 
 325   0.0000       0.741778        20.1848 
 326   0.0000       0.742933        20.2162 
 327   0.0000       0.744103        20.2481 
 328   0.0000       0.747139        20.3307 
 329   0.0000       0.748898        20.3785 
 330   0.0000       0.752814        20.4851 
 331   0.0000       0.754895        20.5417 
 332   0.0000       0.759120        20.6567 
 333   0.0000       0.762898        20.7595 
 334   0.0000       0.766941        20.8695 
 335   0.0000       0.772877        21.0311 
 336   0.0000       0.778226        21.1766 
 337   0.0000       0.780384        21.2353 
 338   0.0000       0.785436        21.3728 
 339   0.0000       0.788161        21.4470 
 340   0.0000       0.790146        21.5010 
 341   0.0000       0.792596        21.5676 
 342   0.0000       0.796656        21.6781 
 343   0.0000       0.800950        21.7950 
 344   0.0000       0.805131        21.9087 
 345   0.0000       0.806558        21.9476 
 346   0.0000       0.809783        22.0353 
 347   0.0000       0.811186        22.0735 
 348   0.0000       0.814335        22.1592 
 349   0.0000       0.816024        22.2051 
 350   0.0000       0.820242        22.3199 
 351   0.0000       0.824273        22.4296 
 352   0.0000       0.825272        22.4568 
 353   0.0000       0.827799        22.5255 
 354   0.0000       0.829515        22.5722 
 355   0.0000       0.831559        22.6279 
 356   0.0000       0.831980        22.6393 
 357   0.0000       0.834592        22.7104 
 358   0.0000       0.837755        22.7965 
 359   0.0000       0.839023        22.8310 
 360   0.0000       0.840090        22.8600 
 361   0.0000       0.842046        22.9132 
 362   0.0000       0.842689        22.9307 
 363   0.0000       0.846061        23.0225 
 364   0.0000       0.847259        23.0551 
 365   0.0000       0.848453        23.0876 
 366   0.0000       0.852366        23.1941 
 367   0.0000       0.856554        23.3080 
 368   0.0000       0.859508        23.3884 
 369   0.0000       0.863548        23.4983 
 370   0.0000       0.864800        23.5324 
 371   0.0000       0.871176        23.7059 
 372   0.0000       0.873998        23.7827 
 373   0.0000       0.878916        23.9165 
 374   0.0000       0.880895        23.9704 
 375   0.0000       0.882397        24.0112 
 376   0.0000       0.884572        24.0704 
 377   0.0000       0.889061        24.1926 
 378   0.0000       0.891210        24.2511 
 379   0.0000       0.892896        24.2969 
 380   0.0000       0.897886        24.4327 
 381   0.0000       0.899341        24.4723 
 382   0.0000       0.903145        24.5758 
 383   0.0000       0.903950        24.5977 
 384   0.0000       0.904104        24.6019 
 385   0.0000       0.905789        24.6478 
 386   0.0000       0.908634        24.7252 
 387   0.0000       0.909767        24.7560 
 388   0.0000       0.911490        24.8029 
 389   0.0000       0.915010        24.8987 
 390   0.0000       0.918575        24.9957 
 391   0.0000       0.919595        25.0235 
 392   0.0000       0.923496        25.1296 
 393   0.0000       0.926656        25.2156 
 394   0.0000       0.927635        25.2422 
 395   0.0000       0.930891        25.3308 
 396   0.0000       0.933846        25.4113 
 397   0.0000       0.935086        25.4450 
 398   0.0000       0.937690        25.5158 
 399   0.0000       0.941868        25.6295 
 400   0.0000       0.942795        25.6548 
 401   0.0000       0.948043        25.7976 
 402   0.0000       0.949365        25.8335 
 403   0.0000       0.955331        25.9959 
 404   0.0000       0.956343        26.0234 
 405   0.0000       0.957396        26.0521 
 406   0.0000       0.959828        26.1182 
 407   0.0000       0.963703        26.2237 
 408   0.0000       0.965945        26.2847 
 409   0.0000       0.972260        26.4565 
 410   0.0000       0.975099        26.5338 
 411   0.0000       0.979870        26.6636 
 412   0.0000       0.981535        26.7089 
 413   0.0000       0.985865        26.8268 
 414   0.0000       0.988184        26.8899 
 415   0.0000       0.992291        27.0016 
 416   0.0000       0.999692        27.2030 
 417   0.0000       1.002911        27.2906 
 418   0.0000       1.006359        27.3844 
 419   0.0000       1.015103        27.6224 
 420   0.0000       1.022254        27.8169 
 421   0.0000       1.027160        27.9505 
 422   0.0000       1.031696        28.0739 
 423   0.0000       1.040333        28.3089 
 424   0.0000       1.044637        28.4260 
 425   0.0000       1.049160        28.5491 
 426   0.0000       1.054309        28.6892 
 427   0.0000       1.062668        28.9167 
 428   0.0000       1.064563        28.9682 
 429   0.0000       1.070114        29.1193 
 430   0.0000       1.077113        29.3097 
 431   0.0000       1.081445        29.4276 
 432   0.0000       1.084729        29.5170 
 433   0.0000       1.088877        29.6299 
 434   0.0000       1.099078        29.9074 
 435   0.0000       1.104929        30.0666 
 436   0.0000       1.107791        30.1445 
 437   0.0000       1.110120        30.2079 
 438   0.0000       1.115722        30.3603 
 439   0.0000       1.116633        30.3851 
 440   0.0000       1.121166        30.5085 
 441   0.0000       1.124190        30.5908 
 442   0.0000       1.128121        30.6977 
 443   0.0000       1.129422        30.7331 
 444   0.0000       1.133283        30.8382 
 445   0.0000       1.133858        30.8538 
 446   0.0000       1.136361        30.9219 
 447   0.0000       1.141877        31.0721 
 448   0.0000       1.143695        31.1215 
 449   0.0000       1.147421        31.2229 
 450   0.0000       1.151098        31.3230 
 451   0.0000       1.152924        31.3726 
 452   0.0000       1.154769        31.4229 
 453   0.0000       1.157388        31.4941 
 454   0.0000       1.160462        31.5778 
 455   0.0000       1.168978        31.8095 
 456   0.0000       1.172314        31.9003 
 457   0.0000       1.177178        32.0326 
 458   0.0000       1.180474        32.1223 
 459   0.0000       1.185053        32.2469 
 460   0.0000       1.187634        32.3172 
 461   0.0000       1.192625        32.4530 
 462   0.0000       1.201785        32.7022 
 463   0.0000       1.202833        32.7308 
 464   0.0000       1.206641        32.8344 
 465   0.0000       1.207525        32.8584 
 466   0.0000       1.213583        33.0233 
 467   0.0000       1.215572        33.0774 
 468   0.0000       1.221415        33.2364 
 469   0.0000       1.229697        33.4618 
 470   0.0000       1.230456        33.4824 
 471   0.0000       1.233427        33.5633 
 472   0.0000       1.235153        33.6102 
 473   0.0000       1.237036        33.6614 
 474   0.0000       1.242203        33.8021 
 475   0.0000       1.247166        33.9371 
 476   0.0000       1.251908        34.0661 
 477   0.0000       1.252457        34.0811 
 478   0.0000       1.253307        34.1042 
 479   0.0000       1.256080        34.1797 
 480   0.0000       1.259796        34.2808 
 481   0.0000       1.264079        34.3973 
 482   0.0000       1.269819        34.5535 
 483   0.0000       1.272077        34.6150 
 484   0.0000       1.273776        34.6612 
 485   0.0000       1.275720        34.7141 
 486   0.0000       1.280001        34.8306 
 487   0.0000       1.283513        34.9262 
 488   0.0000       1.288637        35.0656 
 489   0.0000       1.291078        35.1320 
 490   0.0000       1.293618        35.2011 
 491   0.0000       1.300322        35.3836 
 492   0.0000       1.301063        35.4037 
 493   0.0000       1.308111        35.5955 
 494   0.0000       1.310989        35.6738 
 495   0.0000       1.314469        35.7685 
 496   0.0000       1.316201        35.8157 
 497   0.0000       1.322740        35.9936 
 498   0.0000       1.324657        36.0457 
 499   0.0000       1.329310        36.1724 
 500   0.0000       1.333243        36.2794 
 501   0.0000       1.337135        36.3853 
 502   0.0000       1.342038        36.5187 
 503   0.0000       1.348033        36.6818 
 504   0.0000       1.350366        36.7453 
 505   0.0000       1.352316        36.7984 
 506   0.0000       1.353826        36.8395 
 507   0.0000       1.356878        36.9225 
 508   0.0000       1.361393        37.0454 
 509   0.0000       1.362167        37.0664 
 510   0.0000       1.365540        37.1582 
 511   0.0000       1.367974        37.2245 
[...]
 76 H s       :     0.889142  s :     0.889142
      pz      :     0.022029  p :     0.079658
      px      :     0.043432
      py      :     0.014197
 77 H s       :     0.887265  s :     0.887265
      pz      :     0.047772  p :     0.079051
      px      :     0.015016
      py      :     0.016263
 78 H s       :     0.887686  s :     0.887686
      pz      :     0.025774  p :     0.078995
      px      :     0.020515
      py      :     0.032705
 79 H s       :     0.909517  s :     0.909517
      pz      :     0.021980  p :     0.086565
      px      :     0.021725
      py      :     0.042860
 80 H s       :     0.868310  s :     0.868310
      pz      :     0.039078  p :     0.084406
      px      :     0.030074
      py      :     0.015254
 81 H s       :     0.887158  s :     0.887158
      pz      :     0.037778  p :     0.083982
      px      :     0.016169
      py      :     0.030036
 82 H s       :     0.915684  s :     0.915684
      pz      :     0.022067  p :     0.086796
      px      :     0.031468
      py      :     0.033261
 83 H s       :     0.873257  s :     0.873257
      pz      :     0.039236  p :     0.084012
      px      :     0.015269
      py      :     0.029506
 84 H s       :     0.887175  s :     0.887175
      pz      :     0.035764  p :     0.083597
      px      :     0.031703
      py      :     0.016129
 85 H s       :     0.893538  s :     0.893538
      pz      :     0.022490  p :     0.079747
      px      :     0.014088
      py      :     0.043169
 86 H s       :     0.891008  s :     0.891008
      pz      :     0.024722  p :     0.078834
      px      :     0.032978
      py      :     0.021134
 87 H s       :     0.890128  s :     0.890128
      pz      :     0.047981  p :     0.078711
      px      :     0.015598
      py      :     0.015132
 88 H s       :     0.912512  s :     0.912512
      pz      :     0.021911  p :     0.086997
      px      :     0.042679
      py      :     0.022407
 89 H s       :     0.871766  s :     0.871766
      pz      :     0.037931  p :     0.083866
      px      :     0.030482
      py      :     0.015453


                      *****************************
                      * MAYER POPULATION ANALYSIS *
                      *****************************

  NA   - Mulliken gross atomic population
  ZA   - Total nuclear charge
  QA   - Mulliken gross atomic charge
  VA   - Mayer's total valence
  BVA  - Mayer's bonded valence
  FA   - Mayer's free valence

  ATOM       NA         ZA         QA         VA         BVA        FA
  0 C      5.7944     6.0000     0.2056     3.8376     3.8376     0.0000
  1 N      7.4498     7.0000    -0.4498     3.3422     3.3422    -0.0000
  2 C      6.0643     6.0000    -0.0643     3.9198     3.9198     0.0000
  3 N      7.3364     7.0000    -0.3364     3.4530     3.4530    -0.0000
  4 C      6.0615     6.0000    -0.0615     3.9854     3.9854    -0.0000
  5 N      7.5608     7.0000    -0.5608     3.0912     3.0912    -0.0000
  6 C      6.0856     6.0000    -0.0856     4.0058     4.0058    -0.0000
  7 N      7.3392     7.0000    -0.3392     3.4375     3.4375    -0.0000
  8 C      5.7984     6.0000     0.2016     3.8346     3.8346    -0.0000
  9 N      7.5628     7.0000    -0.5628     3.0814     3.0814     0.0000
 10 C      5.8825     6.0000     0.1175     3.9033     3.9033     0.0000
 11 N      7.4374     7.0000    -0.4374     3.3840     3.3840    -0.0000
 12 C      6.0753     6.0000    -0.0753     3.9174     3.9174     0.0000
 13 N      7.4351     7.0000    -0.4351     3.4018     3.4018     0.0000
 14 C      5.7657     6.0000     0.2343     3.7844     3.7844     0.0000
 15 N      7.4411     7.0000    -0.4411     3.3705     3.3705     0.0000
 16 C      5.7688     6.0000     0.2312     3.7842     3.7842     0.0000
 17 C      6.0927     6.0000    -0.0927     4.0054     4.0054     0.0000
 18 C      6.1900     6.0000    -0.1900     3.7662     3.7662    -0.0000
 19 C      5.7785     6.0000     0.2215     3.8673     3.8673    -0.0000
 20 C      5.7881     6.0000     0.2119     3.8267     3.8267     0.0000
 21 C      6.0848     6.0000    -0.0848     3.9092     3.9092     0.0000
 22 C      6.0872     6.0000    -0.0872     3.9825     3.9825     0.0000
 23 C      6.0445     6.0000    -0.0445     3.9912     3.9912    -0.0000
 24 C      5.7989     6.0000     0.2011     3.8223     3.8223     0.0000
 25 C      5.8861     6.0000     0.1139     3.8897     3.8897    -0.0000
 26 C      6.0735     6.0000    -0.0735     3.9051     3.9051     0.0000
 27 C      5.7839     6.0000     0.2161     3.8735     3.8735    -0.0000
 28 C      6.0564     6.0000    -0.0564     3.9883     3.9883    -0.0000
 29 C      6.1822     6.0000    -0.1822     3.7400     3.7400     0.0000
 30 C      5.7597     6.0000     0.2403     3.7954     3.7954    -0.0000
 31 C      5.7794     6.0000     0.2206     3.8231     3.8231    -0.0000
 32 C      6.0632     6.0000    -0.0632     3.9207     3.9207    -0.0000
 33 C      6.0719     6.0000    -0.0719     3.9795     3.9795    -0.0000
 34 C      6.0496     6.0000    -0.0496     3.9884     3.9884     0.0000
 35 C      5.7856     6.0000     0.2144     3.8212     3.8212     0.0000
 36 C      5.8886     6.0000     0.1114     3.8838     3.8838     0.0000
 37 C      6.0655     6.0000    -0.0655     3.9176     3.9176     0.0000
 38 C      5.7649     6.0000     0.2351     3.8008     3.8008     0.0000
 39 C      6.0604     6.0000    -0.0604     3.9874     3.9874     0.0000
 40 C      6.1848     6.0000    -0.1848     3.7346     3.7346    -0.0000
 41 C      5.7779     6.0000     0.2221     3.8833     3.8833     0.0000
 42 C      5.8002     6.0000     0.1998     3.8269     3.8269    -0.0000
 43 C      6.0733     6.0000    -0.0733     3.9015     3.9015    -0.0000
 44 C      6.0901     6.0000    -0.0901     3.9856     3.9856     0.0000
 45 C      6.0571     6.0000    -0.0571     3.9924     3.9924     0.0000
 46 C      5.7934     6.0000     0.2066     3.8274     3.8274     0.0000
 47 C      5.8843     6.0000     0.1157     3.8938     3.8938     0.0000
 48 C      6.0715     6.0000    -0.0715     3.9065     3.9065    -0.0000
 49 C      5.7683     6.0000     0.2317     3.8893     3.8893    -0.0000
 50 C      6.0497     6.0000    -0.0497     3.9905     3.9905     0.0000
 51 C      6.1915     6.0000    -0.1915     3.7368     3.7368    -0.0000
 52 H      0.9535     1.0000     0.0465     0.9856     0.9856     0.0000
 53 H      1.0153     1.0000    -0.0153     0.9986     0.9986    -0.0000
 54 H      0.9540     1.0000     0.0460     1.0117     1.0117     0.0000
 55 H      0.9551     1.0000     0.0449     0.9863     0.9863    -0.0000
 56 H      0.9473     1.0000     0.0527     0.9705     0.9705    -0.0000
 57 H      0.9483     1.0000     0.0517     0.9826     0.9826    -0.0000
 58 H      0.9491     1.0000     0.0509     0.9857     0.9857     0.0000
 59 H      1.0058     1.0000    -0.0058     1.0021     1.0021    -0.0000
 60 H      0.9533     1.0000     0.0467     1.0086     1.0086    -0.0000
 61 H      0.8283     1.0000     0.1717     1.0421     1.0421     0.0000
 62 H      0.8257     1.0000     0.1743     1.0435     1.0435    -0.0000
 63 H      0.9430     1.0000     0.0570     0.9853     0.9853     0.0000
 64 H      1.0118     1.0000    -0.0118     0.9959     0.9959     0.0000
 65 H      0.9531     1.0000     0.0469     1.0095     1.0095    -0.0000
 66 H      0.9426     1.0000     0.0574     0.9852     0.9852     0.0000
 67 H      0.9365     1.0000     0.0635     0.9720     0.9720    -0.0000
 68 H      0.9419     1.0000     0.0581     0.9868     0.9868    -0.0000
 69 H      0.9417     1.0000     0.0583     0.9829     0.9829    -0.0000
 70 H      1.0265     1.0000    -0.0265     0.9932     0.9932     0.0000
 71 H      0.9525     1.0000     0.0475     1.0063     1.0063    -0.0000
 72 H      0.9366     1.0000     0.0634     0.9843     0.9843     0.0000
 73 H      1.0112     1.0000    -0.0112     0.9996     0.9996     0.0000
 74 H      0.9469     1.0000     0.0531     1.0101     1.0101     0.0000
 75 H      0.9375     1.0000     0.0625     0.9848     0.9848     0.0000
 76 H      0.9320     1.0000     0.0680     0.9719     0.9719     0.0000
 77 H      0.9373     1.0000     0.0627     0.9853     0.9853    -0.0000
 78 H      0.9382     1.0000     0.0618     0.9850     0.9850    -0.0000
 79 H      1.0147     1.0000    -0.0147     0.9987     0.9987     0.0000
 80 H      0.9465     1.0000     0.0535     1.0071     1.0071    -0.0000
 81 H      0.9464     1.0000     0.0536     0.9856     0.9856    -0.0000
 82 H      1.0246     1.0000    -0.0246     0.9937     0.9937     0.0000
 83 H      0.9581     1.0000     0.0419     1.0088     1.0088     0.0000
 84 H      0.9469     1.0000     0.0531     0.9854     0.9854     0.0000
 85 H      0.9405     1.0000     0.0595     0.9716     0.9716    -0.0000
 86 H      0.9444     1.0000     0.0556     0.9839     0.9839     0.0000
 87 H      0.9433     1.0000     0.0567     0.9856     0.9856    -0.0000
 88 H      1.0185     1.0000    -0.0185     0.9956     0.9956    -0.0000
 89 H      0.9542     1.0000     0.0458     1.0069     1.0069     0.0000

  Mayer bond orders larger than 0.100000
B(  0-C ,  1-N ) :   1.0999 B(  0-C , 17-C ) :   1.6760 B(  0-C , 52-H ) :   0.9686 
B(  1-N ,  8-C ) :   1.0939 B(  1-N , 10-C ) :   0.9720 B(  2-C , 12-C ) :   1.5248 
B(  2-C , 16-C ) :   1.3376 B(  2-C , 53-H ) :   0.9772 B(  3-N , 14-C ) :   1.2115 
B(  3-N , 16-C ) :   1.1936 B(  3-N , 61-H ) :   0.8991 B(  4-C ,  6-C ) :   1.2327 
B(  4-C , 17-C ) :   1.2305 B(  4-C , 18-C ) :   1.3574 B(  5-N , 19-C ) :   1.4380 
B(  5-N , 27-C ) :   1.3914 B(  6-C ,  8-C ) :   1.6768 B(  6-C , 54-H ) :   0.9684 
B(  7-N , 30-C ) :   1.1934 B(  7-N , 38-C ) :   1.1970 B(  7-N , 62-H ) :   0.8975 
B(  8-C , 55-H ) :   0.9701 B(  9-N , 41-C ) :   1.3992 B(  9-N , 49-C ) :   1.4233 
B( 10-C , 56-H ) :   0.9764 B( 10-C , 57-H ) :   0.9828 B( 10-C , 58-H ) :   0.9833 
B( 11-N , 20-C ) :   1.1296 B( 11-N , 24-C ) :   1.1173 B( 11-N , 25-C ) :   0.9581 
B( 12-C , 14-C ) :   1.3407 B( 12-C , 59-H ) :   0.9754 B( 13-N , 31-C ) :   1.1419 
B( 13-N , 35-C ) :   1.1352 B( 13-N , 36-C ) :   0.9513 B( 14-C , 18-C ) :   1.1647 
B( 15-N , 42-C ) :   1.1106 B( 15-N , 46-C ) :   1.1181 B( 15-N , 47-C ) :   0.9624 
B( 16-C , 51-C ) :   1.1866 B( 17-C , 60-H ) :   0.9687 B( 18-C , 19-C ) :   1.1728 
B( 19-C , 21-C ) :   1.2278 B( 20-C , 28-C ) :   1.6234 B( 20-C , 63-H ) :   0.9702 
B( 21-C , 26-C ) :   1.6302 B( 21-C , 64-H ) :   0.9720 B( 22-C , 23-C ) :   1.2886 
B( 22-C , 28-C ) :   1.2717 B( 22-C , 29-C ) :   1.2222 B( 23-C , 24-C ) :   1.6164 
B( 23-C , 65-H ) :   0.9707 B( 24-C , 66-H ) :   0.9693 B( 25-C , 67-H ) :   0.9761 
B( 25-C , 68-H ) :   0.9828 B( 25-C , 69-H ) :   0.9822 B( 26-C , 27-C ) :   1.2228 
B( 26-C , 70-H ) :   0.9722 B( 27-C , 29-C ) :   1.2224 B( 28-C , 71-H ) :   0.9716 
B( 29-C , 30-C ) :   1.2281 B( 30-C , 32-C ) :   1.2956 B( 31-C , 39-C ) :   1.6111 
B( 31-C , 72-H ) :   0.9689 B( 32-C , 37-C ) :   1.5632 B( 32-C , 73-H ) :   0.9781 
B( 33-C , 34-C ) :   1.2910 B( 33-C , 39-C ) :   1.2838 B( 33-C , 40-C ) :   1.2137 
B( 34-C , 35-C ) :   1.6077 B( 34-C , 74-H ) :   0.9700 B( 35-C , 75-H ) :   0.9690 
B( 36-C , 76-H ) :   0.9765 B( 36-C , 77-H ) :   0.9818 B( 36-C , 78-H ) :   0.9828 
B( 37-C , 38-C ) :   1.2984 B( 37-C , 79-H ) :   0.9773 B( 38-C , 40-C ) :   1.2212 
B( 39-C , 80-H ) :   0.9711 B( 40-C , 41-C ) :   1.2332 B( 41-C , 43-C ) :   1.2022 
B( 42-C , 50-C ) :   1.6348 B( 42-C , 81-H ) :   0.9696 B( 43-C , 48-C ) :   1.6493 
B( 43-C , 82-H ) :   0.9729 B( 44-C , 45-C ) :   1.2658 B( 44-C , 50-C ) :   1.2684 
B( 44-C , 51-C ) :   1.2610 B( 45-C , 46-C ) :   1.6351 B( 45-C , 83-H ) :   0.9715 
B( 46-C , 84-H ) :   0.9702 B( 47-C , 85-H ) :   0.9762 B( 47-C , 86-H ) :   0.9829 
B( 47-C , 87-H ) :   0.9825 B( 48-C , 49-C ) :   1.2041 B( 48-C , 88-H ) :   0.9744 
B( 49-C , 51-C ) :   1.2262 B( 50-C , 89-H ) :   0.9711 

-------
TIMINGS
-------

Total SCF time: 0 days 0 hours 38 min 8 sec 

Total time                  ....    2288.899 sec
Sum of individual times     ....    2284.441 sec  ( 99.8%)

Fock matrix formation       ....    2264.916 sec  ( 99.0%)
Diagonalization             ....       4.642 sec  (  0.2%)
Density matrix formation    ....       0.438 sec  (  0.0%)
Population analysis         ....       1.871 sec  (  0.1%)
Initial guess               ....       2.314 sec  (  0.1%)
Orbital Transformation      ....       0.000 sec  (  0.0%)
Orbital Orthonormalization  ....       0.000 sec  (  0.0%)
DIIS solution               ....       4.027 sec  (  0.2%)
SOSCF solution              ....       5.078 sec  (  0.2%)

Maximum memory used throughout the entire SCF-calculation: 304.2 MB


           ************************************************************
           *        Program running with 8 parallel MPI-processes     *
           *              working on a common directory               *
           ************************************************************

------------------------------------------------------------------------------
                                ORCA  MP2 
------------------------------------------------------------------------------

Freezing NCore=104 chemical core electrons

----------
MP2 ENERGY (disk based algorithm)
----------

Dimension of the basis                    ...  918
Memory devoted to MP2                     ... 7000 MB   
Data format for buffers                   ... DOUBLE
Compression type for matrix containers    ... UNCOMPRESSED

-------------------------------
PARTIAL EXCHANGE TRANSFORMATION
-------------------------------

Transformation type                        ... one-operator
Generation of integrals (i,mue|j,nue)      ... ON
Generation of integrals (mue,kappa|nue,tau)... OFF
Generation of integrals (i,mue|a,nue)      ... OFF
Dimension of the basis                     ...  918
Number of internal MOs                     ...  127 (  52- 178)
Pair cutoff                                ... 2.500e-12 Eh
Number of AO pairs in the trafo            ... 421821
Total Number of distinct AO pairs          ... 421821
Memory devoted for trafo                   ... 7000.0 MB 
Max. Number of MO pairs treated together   ... 1088      
Number Format for Storage                  ... Double (8 Byte)
Integral package used                      ... LIBINT

Starting integral evaluation:
    ... done with AO integral generation
Closing buffer AOK     (38.23 GB; CompressionRatio= 1.33)
Collecting buffer AOK 
Number of MO pairs included in the trafo   ... 8128
------------------------
SORTING OF (i,mue|j,nue)
------------------------

IBATCH = 1 of  1
Closing buffer KAO     (51.03 GB; CompressionRatio= 1.00)
Collecting buffer KAO 
N(AO-Batches) Done                         ... 173923148 
N(AO-Batches) Skipped                      ... 167296077 
N(IJ)-pairs Skipped                        ...         0 
TOTAL TIME for half transformation         ...  1052.484 sec
AO-integral generation                     ...   251.093 sec
Half transformation                        ...   467.817 sec
K-integral sorting                         ...   103.619 sec

Finished integral transformation - now doing MP2 part

OPERATOR COMBINATION   0   0: ij=( 52..178, 52..178)
Process 5:   Internal MO 132
Process 2:   Internal MO  84
Process 0:   Internal MO  54
Process 0:   Internal MO  57
Process 1:   Internal MO  69
Process 0:   Internal MO  60
Process 4:   Internal MO 117
Process 0:   Internal MO  63
Process 1:   Internal MO  72
Process 3:   Internal MO 102
Process 2:   Internal MO  87
Process 0:   Internal MO  66
Process 7:   Internal MO 165
Process 1:   Internal MO  75
Process 6:   Internal MO 150
Process 1:   Internal MO  78
Process 2:   Internal MO  90
Process 5:   Internal MO 135
Process 3:   Internal MO 105
Process 4:   Internal MO 120
Process 1:   Internal MO  81
Process 2:   Internal MO  93
Process 3:   Internal MO 108
Process 7:   Internal MO 168
Process 2:   Internal MO  96
Process 4:   Internal MO 123
Process 5:   Internal MO 138
Process 6:   Internal MO 153
Process 3:   Internal MO 111
Process 2:   Internal MO  99
Process 4:   Internal MO 126
Process 5:   Internal MO 141
Process 3:   Internal MO 114
Process 7:   Internal MO 171
Process 6:   Internal MO 156
Process 4:   Internal MO 129
Process 5:   Internal MO 144
Process 6:   Internal MO 159
Process 7:   Internal MO 174
Process 5:   Internal MO 147
Process 6:   Internal MO 162
Process 7:   Internal MO 177
-----------------------------------------------
 MP2 CORRELATION ENERGY   :     -7.285955468 Eh
-----------------------------------------------


-------
TIMINGS
-------
Total time                : 1229.776 sec
Integral trafo            : 1062.851 sec ( 86.4%)
K(i,j)                    :    9.894 sec (  0.8%)
T(i,j)                    :    0.183 sec (  0.0%)

---------------------------------------
MP2 TOTAL ENERGY:    -2130.915601908 Eh
---------------------------------------

Maximum memory used throughout the entire MP2-calculation: 6735.7 MB

-------------------------   --------------------
FINAL SINGLE POINT ENERGY     -2130.915601908354
-------------------------   --------------------


                            ***************************************
                            *     ORCA property calculations      *
                            ***************************************


  WARNING: The energy has been calculated at the MP2 level but the densities
           used in the property calculations are still SCF densities
           MP2 response densities have not been calculated 
           use %mp2 Density relaxed end
           or  %mp2 Density unrelaxed end

                                    ---------------------
                                    Active property flags
                                    ---------------------
   (+) Dipole Moment


------------------------------------------------------------------------------
                       ORCA ELECTRIC PROPERTIES CALCULATION
------------------------------------------------------------------------------

Dipole Moment Calculation                       ... on
Quadrupole Moment Calculation                   ... off
Polarizability Calculation                      ... off
GBWName                                         ... /scratch/chu_02/allen/tmpyp4_amber_gaff2/conf1/conf1/Conf312.orca.gbw
Electron density                                ... /scratch/chu_02/allen/tmpyp4_amber_gaff2/conf1/conf1/Conf312.orca.scfp
The origin for moment calculation is the CENTER OF MASS  = (-0.001053, -0.004750 -0.000372)

-------------
DIPOLE MOMENT
-------------
                                X             Y             Z
Electronic contribution:      1.00713      -2.60675      -0.05972
Nuclear contribution   :      0.01423       0.19643       0.07086
                        -----------------------------------------
Total Dipole Moment    :      1.02136      -2.41032       0.01114
                        -----------------------------------------
Magnitude (a.u.)       :      2.61781
Magnitude (Debye)      :      6.65395



--------------------
Rotational spectrum 
--------------------
 
Rotational constants in cm-1:     0.001500     0.001474     0.000762 
Rotational constants in MHz :    44.981491    44.195483    22.831914 

 Dipole components along the rotational axes: 
x,y,z [a.u.] :     1.688486    -2.000444     0.012984 
x,y,z [Debye]:     4.291791    -5.084725     0.033003 

 

Timings for individual modules:

Sum of individual times         ...     3524.706 sec (=  58.745 min)
GTO integral calculation        ...        2.906 sec (=   0.048 min)   0.1 %
SCF iterations                  ...     2290.705 sec (=  38.178 min)  65.0 %
MP2 module                      ...     1231.095 sec (=  20.518 min)  34.9 %
                             ****ORCA TERMINATED NORMALLY****
TOTAL RUN TIME: 0 days 0 hours 58 minutes 47 seconds 26 msec
# of primitive gaussian functions

