
                                 *****************
                                 * O   R   C   A *
                                 *****************

                                            #,                                       
                                            ###                                      
                                            ####                                     
                                            #####                                    
                                            ######                                   
                                           ########,                                 
                                     ,,################,,,,,                         
                               ,,#################################,,                 
                          ,,##########################################,,             
                       ,#########################################, ''#####,          
                    ,#############################################,,   '####,        
                  ,##################################################,,,,####,       
                ,###########''''           ''''###############################       
              ,#####''   ,,,,##########,,,,          '''####'''          '####       
            ,##' ,,,,###########################,,,                        '##       
           ' ,,###''''                  '''############,,,                           
         ,,##''                                '''############,,,,        ,,,,,,###''
      ,#''                                            '''#######################'''  
     '                                                          ''''####''''         
             ,#######,   #######,   ,#######,      ##                                
            ,#'     '#,  ##    ##  ,#'     '#,    #''#        ######   ,####,        
            ##       ##  ##   ,#'  ##            #'  '#       #        #'  '#        
            ##       ##  #######   ##           ,######,      #####,   #    #        
            '#,     ,#'  ##    ##  '#,     ,#' ,#      #,         ##   #,  ,#        
             '#######'   ##     ##  '#######'  #'      '#     #####' # '####'        



                  #######################################################
                  #                        -***-                        #
                  #          Department of theory and spectroscopy      #
                  #    Directorship and core code : Frank Neese         #
                  #        Max Planck Institute fuer Kohlenforschung    #
                  #                Kaiser Wilhelm Platz 1               #
                  #                 D-45470 Muelheim/Ruhr               #
                  #                      Germany                        #
                  #                                                     #
                  #                  All rights reserved                #
                  #                        -***-                        #
                  #######################################################


                         Program Version 5.0.4 -  RELEASE  -


 With contributions from (in alphabetic order):
   Daniel Aravena         : Magnetic Suceptibility
   Michael Atanasov       : Ab Initio Ligand Field Theory (pilot matlab implementation)
   Alexander A. Auer      : GIAO ZORA, VPT2 properties, NMR spectrum
   Ute Becker             : Parallelization
   Giovanni Bistoni       : ED, misc. LED, open-shell LED, HFLD
   Martin Brehm           : Molecular dynamics
   Dmytro Bykov           : SCF Hessian
   Vijay G. Chilkuri      : MRCI spin determinant printing, contributions to CSF-ICE
   Dipayan Datta          : RHF DLPNO-CCSD density
   Achintya Kumar Dutta   : EOM-CC, STEOM-CC
   Dmitry Ganyushin       : Spin-Orbit,Spin-Spin,Magnetic field MRCI
   Miquel Garcia          : C-PCM and meta-GGA Hessian, CC/C-PCM, Gaussian charge scheme
   Yang Guo               : DLPNO-NEVPT2, F12-NEVPT2, CIM, IAO-localization
   Andreas Hansen         : Spin unrestricted coupled pair/coupled cluster methods
   Benjamin Helmich-Paris : MC-RPA, TRAH-SCF, COSX integrals
   Lee Huntington         : MR-EOM, pCC
   Robert Izsak           : Overlap fitted RIJCOSX, COSX-SCS-MP3, EOM
   Marcus Kettner         : VPT2
   Christian Kollmar      : KDIIS, OOCD, Brueckner-CCSD(T), CCSD density, CASPT2, CASPT2-K
   Simone Kossmann        : Meta GGA functionals, TD-DFT gradient, OOMP2, MP2 Hessian
   Martin Krupicka        : Initial AUTO-CI
   Lucas Lang             : DCDCAS
   Marvin Lechner         : AUTO-CI (C++ implementation), FIC-MRCC
   Dagmar Lenk            : GEPOL surface, SMD
   Dimitrios Liakos       : Extrapolation schemes; Compound Job, initial MDCI parallelization
   Dimitrios Manganas     : Further ROCIS development; embedding schemes
   Dimitrios Pantazis     : SARC Basis sets
   Anastasios Papadopoulos: AUTO-CI, single reference methods and gradients
   Taras Petrenko         : DFT Hessian,TD-DFT gradient, ASA, ECA, R-Raman, ABS, FL, XAS/XES, NRVS
   Peter Pinski           : DLPNO-MP2, DLPNO-MP2 Gradient
   Christoph Reimann      : Effective Core Potentials
   Marius Retegan         : Local ZFS, SOC
   Christoph Riplinger    : Optimizer, TS searches, QM/MM, DLPNO-CCSD(T), (RO)-DLPNO pert. Triples
   Tobias Risthaus        : Range-separated hybrids, TD-DFT gradient, RPA, STAB
   Michael Roemelt        : Original ROCIS implementation
   Masaaki Saitow         : Open-shell DLPNO-CCSD energy and density
   Barbara Sandhoefer     : DKH picture change effects
   Avijit Sen             : IP-ROCIS
   Kantharuban Sivalingam : CASSCF convergence, NEVPT2, FIC-MRCI
   Bernardo de Souza      : ESD, SOC TD-DFT
   Georgi Stoychev        : AutoAux, RI-MP2 NMR, DLPNO-MP2 response
   Willem Van den Heuvel  : Paramagnetic NMR
   Boris Wezisla          : Elementary symmetry handling
   Frank Wennmohs         : Technical directorship


 We gratefully acknowledge several colleagues who have allowed us to
 interface, adapt or use parts of their codes:
   Stefan Grimme, W. Hujo, H. Kruse, P. Pracht,  : VdW corrections, initial TS optimization,
                  C. Bannwarth, S. Ehlert          DFT functionals, gCP, sTDA/sTD-DF
   Ed Valeev, F. Pavosevic, A. Kumar             : LibInt (2-el integral package), F12 methods
   Garnet Chan, S. Sharma, J. Yang, R. Olivares  : DMRG
   Ulf Ekstrom                                   : XCFun DFT Library
   Mihaly Kallay                                 : mrcc  (arbitrary order and MRCC methods)
   Jiri Pittner, Ondrej Demel                    : Mk-CCSD
   Frank Weinhold                                : gennbo (NPA and NBO analysis)
   Christopher J. Cramer and Donald G. Truhlar   : smd solvation model
   Lars Goerigk                                  : TD-DFT with DH, B97 family of functionals
   V. Asgeirsson, H. Jonsson                     : NEB implementation
   FAccTs GmbH                                   : IRC, NEB, NEB-TS, DLPNO-Multilevel, CI-OPT
                                                   MM, QMMM, 2- and 3-layer-ONIOM, Crystal-QMMM,
                                                   LR-CPCM, SF, NACMEs, symmetry and pop. for TD-DFT,
                                                   nearIR, NL-DFT gradient (VV10), updates on ESD,
                                                   ML-optimized integration grids
   S Lehtola, MJT Oliveira, MAL Marques          : LibXC Library
   Liviu Ungur et al                             : ANISO software


 Your calculation uses the libint2 library for the computation of 2-el integrals
 For citations please refer to: http://libint.valeyev.net

 Your ORCA version has been built with support for libXC version: 5.1.0
 For citations please refer to: https://tddft.org/programs/libxc/

 This ORCA versions uses:
   CBLAS   interface :  Fast vector & matrix operations
   LAPACKE interface :  Fast linear algebra routines
   SCALAPACK package :  Parallel linear algebra routines
   Shared memory     :  Shared parallel matrices
   BLAS/LAPACK       :  OpenBLAS 0.3.15  USE64BITINT DYNAMIC_ARCH NO_AFFINITY Sandybridge SINGLE_THREADED
        Core in use  :  Sandybridge
   Copyright (c) 2011-2014, The OpenBLAS Project


================================================================================

----- Orbital basis set information -----
Your calculation utilizes the basis: cc-pVDZ 
       H, B-Ne : Obtained from the ccRepo (grant-hill.group.shef.ac.uk/ccrepo) Feb. 2017
                 T. H. Dunning, Jr., J. Chem. Phys. 90, 1007 (1989)
            He : Obtained from the ccRepo (grant-hill.group.shef.ac.uk/ccrepo) Feb. 2017
                 D. E. Woon, T. H. Dunning, Jr., J. Chem. Phys. 100, 2975 (1994)
  Li-Be, Na-Mg : Obtained from the ccRepo (grant-hill.group.shef.ac.uk/ccrepo) Feb. 2017
                 B. P. Prascher, D. E. Woon, K. A. Peterson, T. H. Dunning, Jr., A. K. Wilson, Theor. Chem. Acc. 128, 69 (2011)
         Al-Ar : Obtained from the ccRepo (grant-hill.group.shef.ac.uk/ccrepo) Feb. 2017
                 D. E. Woon, T. H. Dunning, Jr., J. Chem. Phys. 98, 1358 (1993)
            Ca : Obtained from the Peterson Research Group Website (tyr0.chem.wsu.edu/~kipeters) Feb. 2017
                 J. Koput, K. A. Peterson, J. Phys. Chem. 106, 9595 (2002)
         Sc-Zn : Obtained from the ccRepo (grant-hill.group.shef.ac.uk/ccrepo) Feb. 2017
                 N. B. Balabanov, K. A. Peterson, J. Chem. Phys. 123, 064107 (2005)
                 N. B. Balabanov, K. A. Peterson, J. Chem. Phys. 125, 074110 (2006)
         Ga-Kr : Obtained from the ccRepo (grant-hill.group.shef.ac.uk/ccrepo) Feb. 2017
                 A. K. Wilson, D. E. Woon, K. A. Peterson, T. H. Dunning, Jr., J. Chem. Phys. 110, 7667 (1999)

================================================================================
                                        WARNINGS
                       Please study these warnings very carefully!
================================================================================


WARNING: No MP2 level density has been requested!
         To caclulate MP2 level properties use
         %mp2 Density relaxed end
         or
         %mp2 Density unrelaxed end

WARNING: Post HF methods need fully converged wavefunctions
  ===> : Setting SCFConvForced true
         You can overwrite this default with %scf ConvForced false 


INFO   : the flag for use of the SHARK integral package has been found!

================================================================================
                                       INPUT FILE
================================================================================
NAME = /scratch/allen/tmpyp4_amber_gaff2/2.Mdgx/conf11/conf11/Conf134.orca
|  1> ! PAL2
|  2> ! mp2 cc-pvdz TightSCF  NoKeepInts
|  3> 
|  4> %scf
|  5>   MaxCore 2000
|  6> end
|  7> %mp2
|  8>   MaxCore 2000
|  9> end
| 10> * xyz 0 1
| 11>    C       -4.63800         5.41600        -0.78900
| 12>    C        1.47400         4.04100         0.05700
| 13>    C       -2.80200         4.09300         0.04900
| 14>    C       -2.53400         5.13200         0.95400
| 15>    C       -3.31900         6.26700         0.96000
| 16>    C       -5.19800         7.61100         0.15200
| 17>    C        0.13200         4.30700         0.06100
| 18>    C       -0.56900         3.05600         0.04700
| 19>    C        1.64900         2.61800         0.02300
| 20>    C       -3.88400         4.26000        -0.83000
| 21>    N       -4.35200         6.39900         0.09500
| 22>    N        0.38800         2.06700         0.02500
| 23>    N       -2.01000         0.39500        -0.07500
| 24>    N       -0.38800        -2.07400        -0.02700
| 25>    N        2.01000        -0.40100         0.06500
| 26>    C       -1.96000         2.86100         0.02400
| 27>    C       -2.62300         1.61500        -0.01800
| 28>    C       -5.57300        -4.32900         1.06600
| 29>    C       -4.07300         1.47100         0.05600
| 30>    C       -4.10600        -2.75600        -0.02600
| 31>    C       -4.99500        -2.75700        -1.11100
| 32>    C       -6.13200        -3.54200        -1.07600
| 33>    C       -7.65100        -5.11300         0.04000
| 34>    C       -4.32400         0.14100         0.03700
| 35>    C       -3.02500        -0.52000        -0.04800
| 36>    C       -4.42200        -3.56600         1.07500
| 37>    N       -6.40700        -4.31300         0.00100
| 38>    C       -2.86700        -1.92200        -0.04000
| 39>    C       -1.65000        -2.62400        -0.02700
| 40>    C        3.56800        -6.14200        -1.04000
| 41>    C       -1.47600        -4.04900        -0.03400
| 42>    C        2.80300        -4.09900        -0.00800
| 43>    C        3.65700        -4.38400         1.06900
| 44>    C        4.42700        -5.53000         1.05900
| 45>    C        5.24500        -7.58800         0.01400
| 46>    C       -0.13400        -4.31500        -0.02200
| 47>    C        0.56800        -3.06400        -0.02700
| 48>    C        2.77500        -5.01200        -1.07400
| 49>    N        4.37600        -6.39100         0.01700
| 50>    C        1.95900        -2.86900        -0.00900
| 51>    C        2.62100        -1.62200         0.00900
| 52>    C        5.54300         4.33900        -1.13000
| 53>    C        4.07000        -1.47900        -0.09400
| 54>    C        4.10400         2.75100        -0.02100
| 55>    C        5.02700         2.72900         1.03600
| 56>    C        6.16600         3.50900         0.97800
| 57>    C        7.61900         5.15300        -0.11500
| 58>    C        4.32100        -0.14800        -0.09200
| 59>    C        3.02500         0.51400         0.01500
| 60>    C        4.38700         3.58200        -1.11500
| 61>    C        2.86600         1.91600         0.01300
| 62>    N        6.41300         4.29600        -0.09500
| 63>    H       -5.47300         5.59300        -1.45600
| 64>    H        2.27400         4.76600         0.08100
| 65>    H       -1.71800         5.05800         1.66300
| 66>    H       -3.15700         7.08900         1.64400
| 67>    H       -5.98100         7.46400         0.90000
| 68>    H       -4.57500         8.46200         0.42400
| 69>    H       -5.64500         7.77400        -0.82900
| 70>    H       -0.33200         5.28200         0.06900
| 71>    H       -4.13300         3.50000        -1.56100
| 72>    H        0.18200         1.07200         0.00500
| 73>    H       -0.18300        -1.08000        -0.02100
| 74>    H       -5.86400        -4.96200         1.89500
| 75>    H       -4.79400         2.27200         0.13900
| 76>    H       -4.80000        -2.16000        -1.99400
| 77>    H       -6.84100        -3.58200        -1.89300
| 78>    H       -8.42800        -4.53600         0.54600
| 79>    H       -7.95600        -5.33700        -0.98100
| 80>    H       -7.45600        -6.03700         0.58400
| 81>    H       -5.28700        -0.34400         0.10000
| 82>    H       -3.78000        -3.60100         1.94700
| 83>    H        3.58700        -6.86800        -1.84300
| 84>    H       -2.27600        -4.77400        -0.05000
| 85>    H        3.71400        -3.72400         1.92600
| 86>    H        5.09200        -5.79500         1.87100
| 87>    H        6.20500        -7.32900        -0.43900
| 88>    H        5.39300        -7.91700         1.04200
| 89>    H        4.75900        -8.37300        -0.56400
| 90>    H        0.32900        -5.29000        -0.00800
| 91>    H        2.14600        -4.84200        -1.94000
| 92>    H        5.80800         4.98600        -1.95600
| 93>    H        4.78800        -2.28100        -0.18500
| 94>    H        4.86000         2.11400         1.91200
| 95>    H        6.90100         3.53100         1.77200
| 96>    H        7.38300         6.10900         0.35600
| 97>    H        8.41400         4.65200         0.43500
| 98>    H        7.92100         5.31000        -1.15000
| 99>    H        5.28300         0.33600        -0.17900
|100>    H        3.72000         3.63200        -1.96700
|101> *
|102> 
|103>                          ****END OF INPUT****
================================================================================

                       ****************************
                       * Single Point Calculation *
                       ****************************

---------------------------------
CARTESIAN COORDINATES (ANGSTROEM)
---------------------------------
  C     -4.638000    5.416000   -0.789000
  C      1.474000    4.041000    0.057000
  C     -2.802000    4.093000    0.049000
  C     -2.534000    5.132000    0.954000
  C     -3.319000    6.267000    0.960000
  C     -5.198000    7.611000    0.152000
  C      0.132000    4.307000    0.061000
  C     -0.569000    3.056000    0.047000
  C      1.649000    2.618000    0.023000
  C     -3.884000    4.260000   -0.830000
  N     -4.352000    6.399000    0.095000
  N      0.388000    2.067000    0.025000
  N     -2.010000    0.395000   -0.075000
  N     -0.388000   -2.074000   -0.027000
  N      2.010000   -0.401000    0.065000
  C     -1.960000    2.861000    0.024000
  C     -2.623000    1.615000   -0.018000
  C     -5.573000   -4.329000    1.066000
  C     -4.073000    1.471000    0.056000
  C     -4.106000   -2.756000   -0.026000
  C     -4.995000   -2.757000   -1.111000
  C     -6.132000   -3.542000   -1.076000
  C     -7.651000   -5.113000    0.040000
  C     -4.324000    0.141000    0.037000
  C     -3.025000   -0.520000   -0.048000
  C     -4.422000   -3.566000    1.075000
  N     -6.407000   -4.313000    0.001000
  C     -2.867000   -1.922000   -0.040000
  C     -1.650000   -2.624000   -0.027000
  C      3.568000   -6.142000   -1.040000
  C     -1.476000   -4.049000   -0.034000
  C      2.803000   -4.099000   -0.008000
  C      3.657000   -4.384000    1.069000
  C      4.427000   -5.530000    1.059000
  C      5.245000   -7.588000    0.014000
  C     -0.134000   -4.315000   -0.022000
  C      0.568000   -3.064000   -0.027000
  C      2.775000   -5.012000   -1.074000
  N      4.376000   -6.391000    0.017000
  C      1.959000   -2.869000   -0.009000
  C      2.621000   -1.622000    0.009000
  C      5.543000    4.339000   -1.130000
  C      4.070000   -1.479000   -0.094000
  C      4.104000    2.751000   -0.021000
  C      5.027000    2.729000    1.036000
  C      6.166000    3.509000    0.978000
  C      7.619000    5.153000   -0.115000
  C      4.321000   -0.148000   -0.092000
  C      3.025000    0.514000    0.015000
  C      4.387000    3.582000   -1.115000
  C      2.866000    1.916000    0.013000
  N      6.413000    4.296000   -0.095000
  H     -5.473000    5.593000   -1.456000
  H      2.274000    4.766000    0.081000
  H     -1.718000    5.058000    1.663000
  H     -3.157000    7.089000    1.644000
  H     -5.981000    7.464000    0.900000
  H     -4.575000    8.462000    0.424000
  H     -5.645000    7.774000   -0.829000
  H     -0.332000    5.282000    0.069000
  H     -4.133000    3.500000   -1.561000
  H      0.182000    1.072000    0.005000
  H     -0.183000   -1.080000   -0.021000
  H     -5.864000   -4.962000    1.895000
  H     -4.794000    2.272000    0.139000
  H     -4.800000   -2.160000   -1.994000
  H     -6.841000   -3.582000   -1.893000
  H     -8.428000   -4.536000    0.546000
  H     -7.956000   -5.337000   -0.981000
  H     -7.456000   -6.037000    0.584000
  H     -5.287000   -0.344000    0.100000
  H     -3.780000   -3.601000    1.947000
  H      3.587000   -6.868000   -1.843000
  H     -2.276000   -4.774000   -0.050000
  H      3.714000   -3.724000    1.926000
  H      5.092000   -5.795000    1.871000
  H      6.205000   -7.329000   -0.439000
  H      5.393000   -7.917000    1.042000
  H      4.759000   -8.373000   -0.564000
  H      0.329000   -5.290000   -0.008000
  H      2.146000   -4.842000   -1.940000
  H      5.808000    4.986000   -1.956000
  H      4.788000   -2.281000   -0.185000
  H      4.860000    2.114000    1.912000
  H      6.901000    3.531000    1.772000
  H      7.383000    6.109000    0.356000
  H      8.414000    4.652000    0.435000
  H      7.921000    5.310000   -1.150000
  H      5.283000    0.336000   -0.179000
  H      3.720000    3.632000   -1.967000

----------------------------
CARTESIAN COORDINATES (A.U.)
----------------------------
  NO LB      ZA    FRAG     MASS         X           Y           Z
   0 C     6.0000    0    12.011   -8.764550   10.234757   -1.490994
   1 C     6.0000    0    12.011    2.785456    7.636383    0.107714
   2 C     6.0000    0    12.011   -5.295013    7.734649    0.092597
   3 C     6.0000    0    12.011   -4.788566    9.698075    1.802799
   4 C     6.0000    0    12.011   -6.272001   11.842914    1.814137
   5 C     6.0000    0    12.011   -9.822796   14.382706    0.287238
   6 C     6.0000    0    12.011    0.249444    8.139050    0.115273
   7 C     6.0000    0    12.011   -1.075254    5.775003    0.088817
   8 C     6.0000    0    12.011    3.116158    4.947303    0.043464
   9 C     6.0000    0    12.011   -7.339696    8.050233   -1.568473
  10 N     7.0000    0    14.007   -8.224088   12.092358    0.179524
  11 N     7.0000    0    14.007    0.733214    3.906064    0.047243
  12 N     7.0000    0    14.007   -3.798350    0.746442   -0.141729
  13 N     7.0000    0    14.007   -0.733214   -3.919292   -0.051023
  14 N     7.0000    0    14.007    3.798350   -0.757780    0.122832
  15 C     6.0000    0    12.011   -3.703863    5.406506    0.045353
  16 C     6.0000    0    12.011   -4.956752    3.051908   -0.034015
  17 C     6.0000    0    12.011  -10.531444   -8.180624    2.014448
  18 C     6.0000    0    12.011   -7.696855    2.779787    0.105825
  19 C     6.0000    0    12.011   -7.759216   -5.208085   -0.049133
  20 C     6.0000    0    12.011   -9.439182   -5.209975   -2.099486
  21 C     6.0000    0    12.011  -11.587801   -6.693410   -2.033345
  22 C     6.0000    0    12.011  -14.458295   -9.662170    0.075589
  23 C     6.0000    0    12.011   -8.171176    0.266451    0.069920
  24 C     6.0000    0    12.011   -5.716422   -0.982658   -0.090707
  25 C     6.0000    0    12.011   -8.356369   -6.738763    2.031456
  26 N     7.0000    0    14.007  -12.107475   -8.150389    0.001890
  27 C     6.0000    0    12.011   -5.417845   -3.632054   -0.075589
  28 C     6.0000    0    12.011   -3.118048   -4.958641   -0.051023
  29 C     6.0000    0    12.011    6.742543  -11.606698   -1.965315
  30 C     6.0000    0    12.011   -2.789236   -7.651501   -0.064251
  31 C     6.0000    0    12.011    5.296902   -7.745987   -0.015118
  32 C     6.0000    0    12.011    6.910728   -8.284559    2.020117
  33 C     6.0000    0    12.011    8.365818  -10.450186    2.001220
  34 C     6.0000    0    12.011    9.911614  -14.339242    0.026456
  35 C     6.0000    0    12.011   -0.253223   -8.154168   -0.041574
  36 C     6.0000    0    12.011    1.073364   -5.790121   -0.051023
  37 C     6.0000    0    12.011    5.243990   -9.471307   -2.029566
  38 N     7.0000    0    14.007    8.269442  -12.077240    0.032125
  39 C     6.0000    0    12.011    3.701973   -5.421624   -0.017008
  40 C     6.0000    0    12.011    4.952972   -3.065136    0.017008
  41 C     6.0000    0    12.011   10.474752    8.199522   -2.135391
  42 C     6.0000    0    12.011    7.691185   -2.794905   -0.177634
  43 C     6.0000    0    12.011    7.755436    5.198637   -0.039684
  44 C     6.0000    0    12.011    9.499653    5.157063    1.957756
  45 C     6.0000    0    12.011   11.652051    6.631049    1.848152
  46 C     6.0000    0    12.011   14.397823    9.737759   -0.217319
  47 C     6.0000    0    12.011    8.165507   -0.279679   -0.173855
  48 C     6.0000    0    12.011    5.716422    0.971319    0.028346
  49 C     6.0000    0    12.011    8.290229    6.768999   -2.107045
  50 C     6.0000    0    12.011    5.415955    3.620715    0.024566
  51 N     7.0000    0    14.007   12.118814    8.118263   -0.179524
  52 H     1.0000    0     1.008  -10.342471   10.569238   -2.751441
  53 H     1.0000    0     1.008    4.297237    9.006435    0.153068
  54 H     1.0000    0     1.008   -3.246549    9.558235    3.142615
  55 H     1.0000    0     1.008   -5.965865   13.396269    3.106710
  56 H     1.0000    0     1.008  -11.302452   14.104916    1.700754
  57 H     1.0000    0     1.008   -8.645497   15.990863    0.801244
  58 H     1.0000    0     1.008  -10.667504   14.690731   -1.566583
  59 H     1.0000    0     1.008   -0.627389    9.981533    0.130391
  60 H     1.0000    0     1.008   -7.810238    6.614041   -2.949862
  61 H     1.0000    0     1.008    0.343930    2.025786    0.009449
  62 H     1.0000    0     1.008   -0.345820   -2.040904   -0.039684
  63 H     1.0000    0     1.008  -11.081354   -9.376821    3.581031
  64 H     1.0000    0     1.008   -9.059347    4.293458    0.262672
  65 H     1.0000    0     1.008   -9.070685   -4.081808   -3.768114
  66 H     1.0000    0     1.008  -12.927616   -6.768999   -3.577252
  67 H     1.0000    0     1.008  -15.926612   -8.571798    1.031790
  68 H     1.0000    0     1.008  -15.034661  -10.085468   -1.853821
  69 H     1.0000    0     1.008  -14.089798  -11.408277    1.103600
  70 H     1.0000    0     1.008   -9.990982   -0.650066    0.188973
  71 H     1.0000    0     1.008   -7.143165   -6.804904    3.679297
  72 H     1.0000    0     1.008    6.778448  -12.978639   -3.482765
  73 H     1.0000    0     1.008   -4.301017   -9.021553   -0.094486
  74 H     1.0000    0     1.008    7.018443   -7.037340    3.639613
  75 H     1.0000    0     1.008    9.622485  -10.950963    3.535678
  76 H     1.0000    0     1.008   11.725751  -13.849803   -0.829590
  77 H     1.0000    0     1.008   10.191293  -14.960962    1.969095
  78 H     1.0000    0     1.008    8.993207  -15.822677   -1.065806
  79 H     1.0000    0     1.008    0.621720   -9.996651   -0.015118
  80 H     1.0000    0     1.008    4.055352   -9.150054   -3.666069
  81 H     1.0000    0     1.008   10.975529    9.422175   -3.696304
  82 H     1.0000    0     1.008    9.048009   -4.310465   -0.349599
  83 H     1.0000    0     1.008    9.184069    3.994881    3.613156
  84 H     1.0000    0     1.008   13.041000    6.672623    3.348595
  85 H     1.0000    0     1.008   13.951848   11.544337    0.672743
  86 H     1.0000    0     1.008   15.900156    8.791006    0.822031
  87 H     1.0000    0     1.008   14.968521   10.034446   -2.173185
  88 H     1.0000    0     1.008    9.983423    0.634948   -0.338261
  89 H     1.0000    0     1.008    7.029781    6.863485   -3.717091

--------------------------------
INTERNAL COORDINATES (ANGSTROEM)
--------------------------------
 C      0   0   0     0.000000000000     0.00000000     0.00000000
 C      1   0   0     6.321620440995     0.00000000     0.00000000
 C      1   2   0     2.413186482641    25.66923137     0.00000000
 C      3   1   2     1.403698685616    87.89944841    70.72246141
 C      4   3   1     1.380031159069   120.19626830     0.08457715
 C      5   4   3     2.447415167069   152.48970618     1.71303815
 C      2   1   3     1.368114030335     7.99328969   312.47794834
 C      7   2   4     1.434084376876   108.05010202   251.15861197
 C      2   1   3     1.434123425651   109.30684911    36.03399692
 C      1   2   7     1.380772609809    45.08233054   270.41744370
 N      1   2   7     1.352605263926    82.30945903    60.27706599
 N      9   2   1     1.376127174356   106.58526707   350.87284988
 N     12   9   2     2.925062050624   168.53581413   171.12065651
 N     13  12   9     2.954513327098    91.55032014    11.12112580
 N     14  13  12     2.925371258490    88.43092389   359.84326247
 C      8   7   2     1.404790019896   127.24786865   181.11170171
 C     13  12   9     1.366535034311    81.72106996   188.00453233
 C     14  13  12     5.758810554272    80.56209567   166.76250791
 C     17  13  12     1.459010623676   111.08861209   183.82872609
 C     18  14  13     2.412235892279    27.27532823    36.33507194
 C     20  18  14     1.402692767501    87.95206320   148.94598259
 C     21  20  18     1.382106725257   120.14573887   359.70382047
 C     18  14  13     2.446510985056   144.15733107    82.80075377
 C     19  17  13     1.353610726908   106.29293361   359.75308708
 C     13  12   9     1.366813447402   172.21332906    33.46711076
 C     18  14  13     1.380960173213    15.08449437   309.23336894
 N     22  21  20     1.352773077792   120.73759875     0.27865223
 C     25  13  17     1.410897586645   125.60330303   182.37774668
 C     14  13  12     1.376642291955    80.24689249   177.85461986
 C     14  13  12     5.764089607215   164.51507311   312.20821879
 C     29  14  13     1.435600919476   106.58649366   178.76395472
 C     30  14  13     2.413316804732    27.10625047    82.12560436
 C     32  30  14     1.403734305344    87.90059683   149.76154742
 C     33  32  30     1.380694028378   120.14881443   359.74174632
 C     34  33  32     2.448777858443   152.49203239     2.45173620
 C     31  29  14     1.368160809262   108.16950133     0.70383075
 C     14  13  12     1.376239804685   169.26375223   353.09862627
 C     30  14  13     1.380907310430    14.68948582   353.70041132
 N     34  33  32     1.352658863128   120.85575621     0.19603406
 C     37  14  29     1.404717053360   126.01551127   180.90772073
 C     15  14  13     1.366491126938    81.61824056   183.09049352
 C      2   1   3     4.249062720177   150.83608920   156.73748671
 C     41  15  14     1.459677704153   111.05201287   175.08990246
 C     42   2   1     2.412953791518    41.78584867   210.71106275
 C     44  42   2     1.403446472082    87.95153797   233.97558675
 C     45  44  42     1.381696421071   120.11137308     0.19721020
 C     42   2   1     2.450019795838   135.97209175   121.02591185
 C     43  41  15     1.354461516618   106.26758155     0.30894352
 C     15  14  13     1.367461151185   171.87382904   332.35056460
 C     42   2   1     1.381886391857    32.59078432   259.56634194
 C      9   2   1     1.404988612053   126.98745415   171.87718741
 N     42   2   1     1.352765315936   113.57249190   148.76250104
 H      1   2   7     1.083255740811   149.67850291   191.71943604
 H      2   1   3     1.079907866440   124.97291419   208.02027059
 H      4   3   1     1.083518804636   121.00475189   179.58575380
 H      5   4   3     1.081565531995   122.86183281   179.42532412
 H      6   5   4     1.092795497795   104.49242366   100.03920907
 H      6   5   4     1.089180425825    84.69095796   209.47924354
 H      6   5   4     1.090293079864   133.94053157   322.30949131
 H      7   2  54     1.079807853278   126.66122480     1.30600390
 H     10   1   2     1.083495269948   118.80228631   216.29914368
 H     12   9   2     1.016297692608   125.29023241   180.00180175
 H     14  13  12     1.014936943854    44.97226959   359.42596618
 H     18  14  13     1.082871645210   128.03556573   234.20482432
 H     19  17  13     1.080893611786   126.41830519   178.11313280
 H     21  20  18     1.083569563987   121.05669627   180.67006309
 H     22  21  20     1.082483256222   122.73097286   180.59748951
 H     23  18  14     1.092105306278   103.92715769   234.93429879
 H     23  18  14     1.088871893291   134.19244188    12.25587044
 H     23  18  14     1.089833473518    84.85857450   125.45241208
 H     24  19  17     1.080075460327   127.28078426   178.44613241
 H     26  18  14     1.083408048706   118.76995697   244.94906660
 H     30  14  13     1.082703098730   127.99711412   279.66882698
 H     31  29  14     1.079759695488   125.22293469   180.92530585
 H     33  32  30     1.083188810873   121.01964473   180.74284758
 H     34  33  32     1.082494341787   122.70821597   180.59516895
 H     35  34  33     1.092652735319   105.73575241    97.19771933
 H     35  34  33     1.089462711615    84.05943581   206.43036958
 H     35  34  33     1.089268102902   133.08365142   318.50306270
 H     36  31  29     1.079439669458   126.61599965   178.98859863
 H     38  30  73     1.083742127999   118.77264435   359.90091293
 H     42   2   1     1.082178358682   119.31790784     5.39403149
 H     43  41  15     1.080281907652   126.36969097   182.06329380
 H     45  44  42     1.083277434455   121.10105945   179.58025624
 H     46  45  44     1.082194529648   122.72144639   179.46906377
 H     47  42   2     1.091546151109   106.65128841   315.16475048
 H     47  42   2     1.088818625851   132.46019523    94.52397119
 H     47  42   2     1.089531091801    83.63838232   206.04504406
 H     48  43  41     1.080402239909   127.23657387   181.62955349
 H     50  42   2     1.083186502870   118.77001737    94.71359229

---------------------------
INTERNAL COORDINATES (A.U.)
---------------------------
 C      0   0   0     0.000000000000     0.00000000     0.00000000
 C      1   0   0    11.946131356078     0.00000000     0.00000000
 C      1   2   0     4.560261562272    25.66923137     0.00000000
 C      3   1   2     2.652606090359    87.89944841    70.72246141
 C      4   3   1     2.607880946917   120.19626830     0.08457715
 C      5   4   3     4.624944401766   152.48970618     1.71303815
 C      2   1   3     2.585360837309     7.99328969   312.47794834
 C      7   2   4     2.710026725231   108.05010202   251.15861197
 C      2   1   3     2.710100516721   109.30684911    36.03399692
 C      1   2   7     2.609282085760    45.08233054   270.41744370
 N      1   2   7     2.556053516120    82.30945903    60.27706599
 N      9   2   1     2.600503484979   106.58526707   350.87284988
 N     12   9   2     5.527566200405   168.53581413   171.12065651
 N     13  12   9     5.583221047236    91.55032014    11.12112580
 N     14  13  12     5.528150518591    88.43092389   359.84326247
 C      8   7   2     2.654668413270   127.24786865   181.11170171
 C     13  12   9     2.582376967257    81.72106996   188.00453233
 C     14  13  12    10.882574804710    80.56209567   166.76250791
 C     17  13  12     2.757130505230   111.08861209   183.82872609
 C     18  14  13     4.558465206823    27.27532823    36.33507194
 C     20  18  14     2.650705180609    87.95206320   148.94598259
 C     21  20  18     2.611803198586   120.14573887   359.70382047
 C     18  14  13     4.623235745386   144.15733107    82.80075377
 C     19  17  13     2.557953565794   106.29293361   359.75308708
 C     13  12   9     2.582903091751   172.21332906    33.46711076
 C     18  14  13     2.609636529225    15.08449437   309.23336894
 N     22  21  20     2.556370638369   120.73759875     0.27865223
 C     25  13  17     2.666210041769   125.60330303   182.37774668
 C     14  13  12     2.601476916169    80.24689249   177.85461986
 C     14  13  12    10.892550769017   164.51507311   312.20821879
 C     29  14  13     2.712892575415   106.58649366   178.76395472
 C     30  14  13     4.560507835333    27.10625047    82.12560436
 C     32  30  14     2.652673401891    87.90059683   149.76154742
 C     33  32  30     2.609133588376   120.14881443   359.74174632
 C     34  33  32     4.627519515267   152.49203239     2.45173620
 C     31  29  14     2.585449236669   108.16950133     0.70383075
 C     14  13  12     2.600716325456   169.26375223   353.09862627
 C     30  14  13     2.609536633043    14.68948582   353.70041132
 N     34  33  32     2.556154803934   120.85575621     0.19603406
 C     37  14  29     2.654530526499   126.01551127   180.90772073
 C     15  14  13     2.582293994346    81.61824056   183.09049352
 C      2   1   3     8.029564866989   150.83608920   156.73748671
 C     41  15  14     2.758391104639   111.05201287   175.08990246
 C     42   2   1     4.559821839776    41.78584867   210.71106275
 C     44  42   2     2.652129475853    87.95153797   233.97558675
 C     45  44  42     2.611027836043   120.11137308     0.19721020
 C     42   2   1     4.629866436820   135.97209175   121.02591185
 C     43  41  15     2.559561325344   106.26758155     0.30894352
 C     15  14  13     2.584127074516   171.87382904   332.35056460
 C     42   2   1     2.611386828803    32.59078432   259.56634194
 C      9   2   1     2.655043698059   126.98745415   171.87718741
 N     42   2   1     2.556355970587   113.57249190   148.76250104
 H      1   2   7     2.047056683131   149.67850291   191.71943604
 H      2   1   3     2.040730117440   124.97291419   208.02027059
 H      4   3   1     2.047553801716   121.00475189   179.58575380
 H      5   4   3     2.043862651360   122.86183281   179.42532412
 H      6   5   4     2.065084211214   104.49242366   100.03920907
 H      6   5   4     2.058252715237    84.69095796   209.47924354
 H      6   5   4     2.060355326653   133.94053157   322.30949131
 H      7   2  54     2.040541119952   126.66122480     1.30600390
 H     10   1   2     2.047509327601   118.80228631   216.29914368
 H     12   9   2     1.920524309565   125.29023241   180.00180175
 H     14  13  12     1.917952867083    44.97226959   359.42596618
 H     18  14  13     2.046330847636   128.03556573   234.20482432
 H     19  17  13     2.042592906181   126.41830519   178.11313280
 H     21  20  18     2.047649722989   121.05669627   180.67006309
 H     22  21  20     2.045596898814   122.73097286   180.59748951
 H     23  18  14     2.063779938267   103.92715769   234.93429879
 H     23  18  14     2.057669673245   134.19244188    12.25587044
 H     23  18  14     2.059486796529    84.85857450   125.45241208
 H     24  19  17     2.041046823986   127.28078426   178.44613241
 H     26  18  14     2.047344503340   118.76995697   244.94906660
 H     30  14  13     2.046012340948   127.99711412   279.66882698
 H     31  29  14     2.040450114918   125.22293469   180.92530585
 H     33  32  30     2.046930203877   121.01964473   180.74284758
 H     34  33  32     2.045617847496   122.70821597   180.59516895
 H     35  34  33     2.064814429233   105.73575241    97.19771933
 H     35  34  33     2.058786158072    84.05943581   206.43036958
 H     35  34  33     2.058418400901   133.08365142   318.50306270
 H     36  31  29     2.039845353366   126.61599965   178.98859863
 H     38  30  73     2.047975821711   118.77264435   359.90091293
 H     42   2   1     2.045020725966   119.31790784     5.39403149
 H     43  41  15     2.041436952892   126.36969097   182.06329380
 H     45  44  42     2.047097678177   121.10105945   179.58025624
 H     46  45  44     2.045051284662   122.72144639   179.46906377
 H     47  42   2     2.062723288131   106.65128841   315.16475048
 H     47  42   2     2.057569012371   132.46019523    94.52397119
 H     47  42   2     2.058915377895    83.63838232   206.04504406
 H     48  43  41     2.041664347903   127.23657387   181.62955349
 H     50  42   2     2.046925842384   118.77001737    94.71359229

---------------------
BASIS SET INFORMATION
---------------------
There are 3 groups of distinct atoms

 Group   1 Type C   : 17s4p1d contracted to 3s2p1d pattern {881/31/1}
 Group   2 Type N   : 17s4p1d contracted to 3s2p1d pattern {881/31/1}
 Group   3 Type H   : 4s1p contracted to 2s1p pattern {31/1}

Atom   0C    basis set group =>   1
Atom   1N    basis set group =>   2
Atom   2C    basis set group =>   1
Atom   3N    basis set group =>   2
Atom   4C    basis set group =>   1
Atom   5N    basis set group =>   2
Atom   6C    basis set group =>   1
Atom   7N    basis set group =>   2
Atom   8C    basis set group =>   1
Atom   9N    basis set group =>   2
Atom  10C    basis set group =>   1
Atom  11N    basis set group =>   2
Atom  12C    basis set group =>   1
Atom  13N    basis set group =>   2
Atom  14C    basis set group =>   1
Atom  15N    basis set group =>   2
Atom  16C    basis set group =>   1
Atom  17C    basis set group =>   1
Atom  18C    basis set group =>   1
Atom  19C    basis set group =>   1
Atom  20C    basis set group =>   1
Atom  21C    basis set group =>   1
Atom  22C    basis set group =>   1
Atom  23C    basis set group =>   1
Atom  24C    basis set group =>   1
Atom  25C    basis set group =>   1
Atom  26C    basis set group =>   1
Atom  27C    basis set group =>   1
Atom  28C    basis set group =>   1
Atom  29C    basis set group =>   1
Atom  30C    basis set group =>   1
Atom  31C    basis set group =>   1
Atom  32C    basis set group =>   1
Atom  33C    basis set group =>   1
Atom  34C    basis set group =>   1
Atom  35C    basis set group =>   1
Atom  36C    basis set group =>   1
Atom  37C    basis set group =>   1
Atom  38C    basis set group =>   1
Atom  39C    basis set group =>   1
Atom  40C    basis set group =>   1
Atom  41C    basis set group =>   1
Atom  42C    basis set group =>   1
Atom  43C    basis set group =>   1
Atom  44C    basis set group =>   1
Atom  45C    basis set group =>   1
Atom  46C    basis set group =>   1
Atom  47C    basis set group =>   1
Atom  48C    basis set group =>   1
Atom  49C    basis set group =>   1
Atom  50C    basis set group =>   1
Atom  51C    basis set group =>   1
Atom  52H    basis set group =>   3
Atom  53H    basis set group =>   3
Atom  54H    basis set group =>   3
Atom  55H    basis set group =>   3
Atom  56H    basis set group =>   3
Atom  57H    basis set group =>   3
Atom  58H    basis set group =>   3
Atom  59H    basis set group =>   3
Atom  60H    basis set group =>   3
Atom  61H    basis set group =>   3
Atom  62H    basis set group =>   3
Atom  63H    basis set group =>   3
Atom  64H    basis set group =>   3
Atom  65H    basis set group =>   3
Atom  66H    basis set group =>   3
Atom  67H    basis set group =>   3
Atom  68H    basis set group =>   3
Atom  69H    basis set group =>   3
Atom  70H    basis set group =>   3
Atom  71H    basis set group =>   3
Atom  72H    basis set group =>   3
Atom  73H    basis set group =>   3
Atom  74H    basis set group =>   3
Atom  75H    basis set group =>   3
Atom  76H    basis set group =>   3
Atom  77H    basis set group =>   3
Atom  78H    basis set group =>   3
Atom  79H    basis set group =>   3
Atom  80H    basis set group =>   3
Atom  81H    basis set group =>   3
Atom  82H    basis set group =>   3
Atom  83H    basis set group =>   3
Atom  84H    basis set group =>   3
Atom  85H    basis set group =>   3
Atom  86H    basis set group =>   3
Atom  87H    basis set group =>   3
Atom  88H    basis set group =>   3
Atom  89H    basis set group =>   3


           ************************************************************
           *        Program running with 16 parallel MPI-processes    *
           *              working on a common directory               *
           ************************************************************
------------------------------------------------------------------------------
                           ORCA GTO INTEGRAL CALCULATION
------------------------------------------------------------------------------
------------------------------------------------------------------------------
                   ___                                                        
                  /   \      - P O W E R E D   B Y -                         
                 /     \                                                     
                 |  |  |   _    _      __       _____    __    __             
                 |  |  |  | |  | |    /  \     |  _  \  |  |  /  |          
                  \  \/   | |  | |   /    \    | | | |  |  | /  /          
                 / \  \   | |__| |  /  /\  \   | |_| |  |  |/  /          
                |  |  |   |  __  | /  /__\  \  |    /   |      \           
                |  |  |   | |  | | |   __   |  |    \   |  |\   \          
                \     /   | |  | | |  |  |  |  | |\  \  |  | \   \       
                 \___/    |_|  |_| |__|  |__|  |_| \__\ |__|  \__/        
                                                                              
                      - O R C A' S   B I G   F R I E N D -                    
                                      &                                       
                       - I N T E G R A L  F E E D E R -                       
                                                                              
 v1 FN, 2020, v2 2021                                                         
------------------------------------------------------------------------------


Reading SHARK input file /scratch/allen/tmpyp4_amber_gaff2/conf1/conf1/Conf134.orca.SHARKINP.tmp ... ok
----------------------
SHARK INTEGRAL PACKAGE
----------------------

Number of atoms                             ...     90
Number of basis functions                   ...   1230
Number of shells                            ...    738
Maximum angular momentum                    ...      2
Integral batch strategy                     ... SHARK/LIBINT Hybrid
RI-J (if used) integral strategy            ... SPLIT-RIJ (Revised 2003 algorithm where possible)
Printlevel                                  ...      1
Contraction scheme used                     ... PARTIAL GENERAL contraction
Coulomb Range Separation                    ... NOT USED
Exchange Range Separation                   ... NOT USED
Finite Nucleus Model                        ... NOT USED
Auxiliary Coulomb fitting basis             ... NOT available
Auxiliary J/K fitting basis                 ... NOT available
Auxiliary Correlation fitting basis         ... NOT available
Auxiliary 'external' fitting basis          ... NOT available
Integral threshold                          ...     2.500000e-11
Primitive cut-off                           ...     2.500000e-12
Primitive pair pre-selection threshold      ...     2.500000e-12

Calculating pre-screening integrals         ... done (  0.1 sec) Dimension = 738
Calculating pre-screening integrals (ORCA)  ... done (  0.3 sec) Dimension = 426
Organizing shell pair data                  ... done (  0.8 sec)
Shell pair information
Total number of shell pairs                 ...    272691
Shell pairs after pre-screening             ...     71609
Total number of primitive shell pairs       ...    422091
Primitive shell pairs kept                  ...     92398
          la=0 lb=0:  29415 shell pairs
          la=1 lb=0:  25968 shell pairs
          la=1 lb=1:   4703 shell pairs
          la=2 lb=0:   7871 shell pairs
          la=2 lb=1:   3122 shell pairs
          la=2 lb=2:    530 shell pairs

Calculating one electron integrals          ... done (  0.3 sec)
Calculating Nuclear repulsion               ... done (  0.0 sec) ENN=   6227.221428495466 Eh

SHARK setup successfully completed in   2.2 seconds

Maximum memory used throughout the entire GTOINT-calculation: 99.0 MB


           ************************************************************
           *        Program running with 16 parallel MPI-processes    *
           *              working on a common directory               *
           ************************************************************
-------------------------------------------------------------------------------
                                 ORCA SCF
-------------------------------------------------------------------------------

------------
SCF SETTINGS
------------
Hamiltonian:
 Ab initio Hamiltonian  Method          .... Hartree-Fock(GTOs)


General Settings:
 Integral files         IntName         .... /scratch/allen/tmpyp4_amber_gaff2/conf1/conf1/Conf134.orca
 Hartree-Fock type      HFTyp           .... RHF
 Total Charge           Charge          ....    0
 Multiplicity           Mult            ....    1
 Number of Electrons    NEL             ....  358
 Basis Dimension        Dim             ....  918
 Nuclear Repulsion      ENuc            ....   6227.2214284955 Eh

Convergence Acceleration:
 DIIS                   CNVDIIS         .... on
   Start iteration      DIISMaxIt       ....    12
   Startup error        DIISStart       ....  0.200000
   # of expansion vecs  DIISMaxEq       ....     5
   Bias factor          DIISBfac        ....   1.050
   Max. coefficient     DIISMaxC        ....  10.000
 Trust-Rad. Augm. Hess. CNVTRAH         .... auto
   Auto Start mean grad. ratio tolernc. ....  1.125000
   Auto Start start iteration           ....    20
   Auto Start num. interpolation iter.  ....    10
   Max. Number of Micro iterations      ....    16
   Max. Number of Macro iterations      .... Maxiter - #DIIS iter
   Number of Davidson start vectors     ....     2
   Converg. threshold I  (grad. norm)   ....   1.000e-05
   Converg. threshold II (energy diff.) ....   1.000e-08
   Grad. Scal. Fac. for Micro threshold ....   0.100
   Minimum threshold for Micro iter.    ....   0.010
   NR start threshold (gradient norm)   ....   0.001
   Initial trust radius                 ....   0.400
   Minimum AH scaling param. (alpha)    ....   1.000
   Maximum AH scaling param. (alpha)    .... 1000.000
   Orbital update algorithm             .... Taylor
   White noise on init. David. guess    .... on
   Maximum white noise                  ....   0.010
   Quad. conv. algorithm                .... NR
 SOSCF                  CNVSOSCF        .... on
   Start iteration      SOSCFMaxIt      ....   150
   Startup grad/error   SOSCFStart      ....  0.003300
 Level Shifting         CNVShift        .... on
   Level shift para.    LevelShift      ....    0.2500
   Turn off err/grad.   ShiftErr        ....    0.0010
 Zerner damping         CNVZerner       .... off
 Static damping         CNVDamp         .... on
   Fraction old density DampFac         ....    0.7000
   Max. Damping (<1)    DampMax         ....    0.9800
   Min. Damping (>=0)   DampMin         ....    0.0000
   Turn off err/grad.   DampErr         ....    0.1000
 Fernandez-Rico         CNVRico         .... off

SCF Procedure:
 Maximum # iterations   MaxIter         ....   125
 SCF integral mode      SCFMode         .... Direct
   Integral package                     .... SHARK and LIBINT hybrid scheme
 Reset frequency        DirectResetFreq ....    20
 Integral Threshold     Thresh          ....  2.500e-11 Eh
 Primitive CutOff       TCut            ....  2.500e-12 Eh

Convergence Tolerance:
 Convergence Check Mode ConvCheckMode   .... Total+1el-Energy
 Convergence forced     ConvForced      .... 1
 Energy Change          TolE            ....  1.000e-08 Eh
 1-El. energy change                    ....  1.000e-05 Eh
 Orbital Gradient       TolG            ....  1.000e-05
 Orbital Rotation angle TolX            ....  1.000e-05
 DIIS Error             TolErr          ....  5.000e-07


Diagonalization of the overlap matrix:
Smallest eigenvalue                        ... 2.244e-04
Time for diagonalization                   ...    0.402 sec
Threshold for overlap eigenvalues          ... 1.000e-08
Number of eigenvalues below threshold      ... 0
Time for construction of square roots      ...    0.249 sec
Total time needed                          ...    0.657 sec

Time for model grid setup =    1.050 sec

------------------------------
INITIAL GUESS: MODEL POTENTIAL
------------------------------
Loading Hartree-Fock densities                     ... done
Calculating cut-offs                               ... done
Initializing the effective Hamiltonian             ... done
Setting up the integral package (SHARK)            ... done
Starting the Coulomb interaction                   ... done (   1.1 sec)
Reading the grid                                   ... done
Mapping shells                                     ... done
Starting the XC term evaluation                    ... done (   0.2 sec)
Transforming the Hamiltonian                       ... done (   0.2 sec)
Diagonalizing the Hamiltonian                      ... done (   0.3 sec)
Back transforming the eigenvectors                 ... done (   0.1 sec)
Now organizing SCF variables                       ... done
                      ------------------
                      INITIAL GUESS DONE (   3.1 sec)
                      ------------------
--------------
SCF ITERATIONS
--------------
ITER       Energy         Delta-E        Max-DP      RMS-DP      [F,P]     Damp
               ***  Starting incremental Fock matrix formation  ***
  0  -2121.6907454151   0.000000000000 0.06877065  0.00120709  0.2326109 0.7000
  1  -2122.3513952554  -0.660649840342 0.05214142  0.00098015  0.1439967 0.7000
                               ***Turning on DIIS***
  2  -2122.7617693316  -0.410374076182 0.11771498  0.00222331  0.0802393 0.0000
  3  -2117.8302055320   4.931563799655 0.03015278  0.00067352  0.0441184 0.0000
  4  -2123.4297228594  -5.599517327470 0.00887563  0.00022621  0.0072526 0.0000
  5  -2123.5996037654  -0.169880905971 0.00512845  0.00013333  0.0049907 0.0000
  6  -2123.5823970300   0.017206735381 0.00346509  0.00008605  0.0019456 0.0000
  7  -2123.6841973193  -0.101800289289 0.00293663  0.00006762  0.0015314 0.0000
  8  -2123.6984520308  -0.014254711457 0.00305417  0.00006329  0.0014226 0.0000
  9  -2123.6652802263   0.033171804418 0.00245264  0.00004349  0.0011271 0.0000
 10  -2123.6766857700  -0.011405543666 0.00501501  0.00008722  0.0008637 0.0000
                      *** Initiating the SOSCF procedure ***
                           *** Shutting down DIIS ***
                      *** Re-Reading the Fockian *** 
                      *** Removing any level shift *** 
ITER      Energy       Delta-E        Grad      Rot      Max-DP    RMS-DP
 11  -2123.56490299   0.1117827838  0.000243  0.000243  0.000263  0.000006
               *** Restarting incremental Fock matrix formation ***
 12  -2123.62950961  -0.0646066197  0.000853  0.005740  0.001205  0.000030
 13  -2123.62958743  -0.0000778234  0.000974  0.026501  0.005729  0.000111
 14  -2123.62970956  -0.0001221333  0.000422  0.001923  0.000530  0.000012
 15  -2123.62972444  -0.0000148731  0.000180  0.003864  0.000947  0.000018
 16  -2123.62973402  -0.0000095865  0.000156  0.004334  0.000720  0.000015
 17  -2123.62973824  -0.0000042228  0.000135  0.002995  0.000383  0.000009
 18  -2123.62974042  -0.0000021771  0.000075  0.001347  0.000296  0.000005
 19  -2123.62974145  -0.0000010252  0.000056  0.000496  0.000163  0.000003
 20  -2123.62974175  -0.0000002998  0.000026  0.000480  0.000116  0.000002
 21  -2123.62974190  -0.0000001563  0.000023  0.000228  0.000073  0.000001
 22  -2123.62974199  -0.0000000823  0.000015  0.000340  0.000097  0.000002
 23  -2123.62974204  -0.0000000557  0.000009  0.000121  0.000042  0.000001
 24  -2123.62974206  -0.0000000190  0.000004  0.000081  0.000025  0.000000
 25  -2123.62974207  -0.0000000106  0.000004  0.000049  0.000015  0.000000
                  ***Gradient check signals convergence***
              ***Rediagonalizing the Fockian in SOSCF/NRSCF***

               *****************************************************
               *                     SUCCESS                       *
               *           SCF CONVERGED AFTER  26 CYCLES          *
               *****************************************************


----------------
TOTAL SCF ENERGY
----------------

Total Energy       :        -2123.62974208 Eh          -57786.90311 eV

Components:
Nuclear Repulsion  :         6227.22142850 Eh          169451.30981 eV
Electronic Energy  :        -8350.85117057 Eh         -227238.21292 eV
One Electron Energy:       -15295.43219550 Eh         -416209.86974 eV
Two Electron Energy:         6944.58102493 Eh          188971.65682 eV

Virial components:
Potential Energy   :        -4245.66101472 Eh         -115530.30966 eV
Kinetic Energy     :         2122.03127265 Eh           57743.40655 eV
Virial Ratio       :            2.00075327


---------------
SCF CONVERGENCE
---------------

  Last Energy change         ...   -5.7480e-09  Tolerance :   1.0000e-08
  Last MAX-Density change    ...    1.1548e-05  Tolerance :   1.0000e-07
  Last RMS-Density change    ...    2.1999e-07  Tolerance :   5.0000e-09
  Last Orbital Gradient      ...    1.8480e-06  Tolerance :   1.0000e-05
  Last Orbital Rotation      ...    5.5195e-05  Tolerance :   1.0000e-05

             **** THE GBW FILE WAS UPDATED (/scratch/allen/tmpyp4_amber_gaff2/conf1/conf1/Conf134.orca.gbw) ****
             **** DENSITY /scratch/allen/tmpyp4_amber_gaff2/conf1/conf1/Conf134.orca.scfp WAS UPDATED ****
             **** ENERGY FILE WAS UPDATED (/scratch/allen/tmpyp4_amber_gaff2/conf1/conf1/Conf134.orca.en.tmp) ****
             **** THE GBW FILE WAS UPDATED (/scratch/allen/tmpyp4_amber_gaff2/conf1/conf1/Conf134.orca.gbw) ****
             **** DENSITY /scratch/allen/tmpyp4_amber_gaff2/conf1/conf1/Conf134.orca.scfp WAS UPDATED ****
----------------
ORBITAL ENERGIES
----------------

  NO   OCC          E(Eh)            E(eV) 
   0   2.0000     -15.658337      -426.0850 
   1   2.0000     -15.639029      -425.5596 
   2   2.0000     -15.628487      -425.2728 
   3   2.0000     -15.602920      -424.5770 
   4   2.0000     -15.522749      -422.3955 
   5   2.0000     -15.515751      -422.2051 
   6   2.0000     -15.448440      -420.3734 
   7   2.0000     -15.443653      -420.2432 
   8   2.0000     -11.314646      -307.8872 
   9   2.0000     -11.312074      -307.8172 
  10   2.0000     -11.309627      -307.7506 
  11   2.0000     -11.302414      -307.5543 
  12   2.0000     -11.296053      -307.3812 
  13   2.0000     -11.295917      -307.3775 
  14   2.0000     -11.292328      -307.2799 
  15   2.0000     -11.287023      -307.1355 
  16   2.0000     -11.284482      -307.0664 
  17   2.0000     -11.280984      -306.9712 
  18   2.0000     -11.266089      -306.5659 
  19   2.0000     -11.265921      -306.5613 
  20   2.0000     -11.261817      -306.4496 
  21   2.0000     -11.248203      -306.0792 
  22   2.0000     -11.247296      -306.0545 
  23   2.0000     -11.242522      -305.9246 
  24   2.0000     -11.234691      -305.7115 
  25   2.0000     -11.234106      -305.6956 
  26   2.0000     -11.233100      -305.6682 
  27   2.0000     -11.226894      -305.4993 
  28   2.0000     -11.226681      -305.4935 
  29   2.0000     -11.212588      -305.1100 
  30   2.0000     -11.207746      -304.9783 
  31   2.0000     -11.207048      -304.9593 
  32   2.0000     -11.206573      -304.9464 
  33   2.0000     -11.205542      -304.9183 
  34   2.0000     -11.191158      -304.5269 
  35   2.0000     -11.190773      -304.5164 
  36   2.0000     -11.181571      -304.2660 
  37   2.0000     -11.178628      -304.1859 
  38   2.0000     -11.178131      -304.1724 
  39   2.0000     -11.173959      -304.0589 
  40   2.0000     -11.167628      -303.8866 
  41   2.0000     -11.167512      -303.8834 
  42   2.0000     -11.165506      -303.8289 
  43   2.0000     -11.164921      -303.8129 
  44   2.0000     -11.164691      -303.8067 
  45   2.0000     -11.162179      -303.7383 
  46   2.0000     -11.151316      -303.4427 
  47   2.0000     -11.149730      -303.3996 
  48   2.0000     -11.147666      -303.3434 
  49   2.0000     -11.145894      -303.2952 
  50   2.0000     -11.137712      -303.0726 
  51   2.0000     -11.132827      -302.9396 
  52   2.0000      -1.342094       -36.5202 
  53   2.0000      -1.325544       -36.0699 
  54   2.0000      -1.316566       -35.8256 
  55   2.0000      -1.295623       -35.2557 
  56   2.0000      -1.222576       -33.2680 
  57   2.0000      -1.211112       -32.9560 
  58   2.0000      -1.165940       -31.7268 
  59   2.0000      -1.155491       -31.4425 
  60   2.0000      -1.128140       -30.6982 
  61   2.0000      -1.113702       -30.3054 
  62   2.0000      -1.106074       -30.0978 
  63   2.0000      -1.089405       -29.6442 
  64   2.0000      -1.065066       -28.9819 
  65   2.0000      -1.049469       -28.5575 
  66   2.0000      -1.041269       -28.3344 
  67   2.0000      -1.031701       -28.0740 
  68   2.0000      -1.022770       -27.8310 
  69   2.0000      -1.013281       -27.5728 
  70   2.0000      -1.009352       -27.4659 
  71   2.0000      -0.993535       -27.0355 
  72   2.0000      -0.986800       -26.8522 
  73   2.0000      -0.975145       -26.5351 
  74   2.0000      -0.973108       -26.4796 
  75   2.0000      -0.958782       -26.0898 
  76   2.0000      -0.950839       -25.8736 
  77   2.0000      -0.947100       -25.7719 
  78   2.0000      -0.937342       -25.5064 
  79   2.0000      -0.922010       -25.0892 
  80   2.0000      -0.897437       -24.4205 
  81   2.0000      -0.888363       -24.1736 
  82   2.0000      -0.876348       -23.8466 
  83   2.0000      -0.869328       -23.6556 
  84   2.0000      -0.863705       -23.5026 
  85   2.0000      -0.854677       -23.2569 
  86   2.0000      -0.846494       -23.0343 
  87   2.0000      -0.839589       -22.8464 
  88   2.0000      -0.821994       -22.3676 
  89   2.0000      -0.798787       -21.7361 
  90   2.0000      -0.795673       -21.6514 
  91   2.0000      -0.742667       -20.2090 
  92   2.0000      -0.735873       -20.0241 
  93   2.0000      -0.731306       -19.8998 
  94   2.0000      -0.722881       -19.6706 
  95   2.0000      -0.719489       -19.5783 
  96   2.0000      -0.713209       -19.4074 
  97   2.0000      -0.705237       -19.1905 
  98   2.0000      -0.701143       -19.0791 
  99   2.0000      -0.695823       -18.9343 
 100   2.0000      -0.692074       -18.8323 
 101   2.0000      -0.681549       -18.5459 
 102   2.0000      -0.678800       -18.4711 
 103   2.0000      -0.674076       -18.3425 
 104   2.0000      -0.670741       -18.2518 
 105   2.0000      -0.670108       -18.2346 
 106   2.0000      -0.664012       -18.0687 
 107   2.0000      -0.661956       -18.0127 
 108   2.0000      -0.657065       -17.8796 
 109   2.0000      -0.654794       -17.8179 
 110   2.0000      -0.650588       -17.7034 
 111   2.0000      -0.647843       -17.6287 
 112   2.0000      -0.643708       -17.5162 
 113   2.0000      -0.636720       -17.3260 
 114   2.0000      -0.632338       -17.2068 
 115   2.0000      -0.630478       -17.1562 
 116   2.0000      -0.623044       -16.9539 
 117   2.0000      -0.616241       -16.7688 
 118   2.0000      -0.613262       -16.6877 
 119   2.0000      -0.611516       -16.6402 
 120   2.0000      -0.608569       -16.5600 
 121   2.0000      -0.601967       -16.3803 
 122   2.0000      -0.597585       -16.2611 
 123   2.0000      -0.590915       -16.0796 
 124   2.0000      -0.589649       -16.0452 
 125   2.0000      -0.584727       -15.9112 
 126   2.0000      -0.578331       -15.7372 
 127   2.0000      -0.576307       -15.6821 
 128   2.0000      -0.563633       -15.3372 
 129   2.0000      -0.558599       -15.2003 
 130   2.0000      -0.554090       -15.0776 
 131   2.0000      -0.549620       -14.9559 
 132   2.0000      -0.542169       -14.7532 
 133   2.0000      -0.538081       -14.6419 
 134   2.0000      -0.534188       -14.5360 
 135   2.0000      -0.531804       -14.4711 
 136   2.0000      -0.525217       -14.2919 
 137   2.0000      -0.523472       -14.2444 
 138   2.0000      -0.517636       -14.0856 
 139   2.0000      -0.517019       -14.0688 
 140   2.0000      -0.509753       -13.8711 
 141   2.0000      -0.508695       -13.8423 
 142   2.0000      -0.508071       -13.8253 
 143   2.0000      -0.501786       -13.6543 
 144   2.0000      -0.500387       -13.6162 
 145   2.0000      -0.497545       -13.5389 
 146   2.0000      -0.493956       -13.4412 
 147   2.0000      -0.487822       -13.2743 
 148   2.0000      -0.487428       -13.2636 
 149   2.0000      -0.469266       -12.7694 
 150   2.0000      -0.462861       -12.5951 
 151   2.0000      -0.454819       -12.3762 
 152   2.0000      -0.448173       -12.1954 
 153   2.0000      -0.446959       -12.1624 
 154   2.0000      -0.446064       -12.1380 
 155   2.0000      -0.439914       -11.9707 
 156   2.0000      -0.433999       -11.8097 
 157   2.0000      -0.429447       -11.6858 
 158   2.0000      -0.397691       -10.8217 
 159   2.0000      -0.384719       -10.4687 
 160   2.0000      -0.379184       -10.3181 
 161   2.0000      -0.373254       -10.1568 
 162   2.0000      -0.370808       -10.0902 
 163   2.0000      -0.359923        -9.7940 
 164   2.0000      -0.353119        -9.6089 
 165   2.0000      -0.337453        -9.1826 
 166   2.0000      -0.336064        -9.1448 
 167   2.0000      -0.335799        -9.1376 
 168   2.0000      -0.328693        -8.9442 
 169   2.0000      -0.300987        -8.1903 
 170   2.0000      -0.299840        -8.1591 
 171   2.0000      -0.287523        -7.8239 
 172   2.0000      -0.285400        -7.7661 
 173   2.0000      -0.258202        -7.0260 
 174   2.0000      -0.246451        -6.7063 
 175   2.0000      -0.189123        -5.1463 
 176   2.0000      -0.179231        -4.8771 
 177   2.0000      -0.070408        -1.9159 
 178   2.0000      -0.056534        -1.5384 
 179   0.0000       0.029507         0.8029 
 180   0.0000       0.068760         1.8710 
 181   0.0000       0.092548         2.5184 
 182   0.0000       0.102783         2.7969 
 183   0.0000       0.120652         3.2831 
 184   0.0000       0.133933         3.6445 
 185   0.0000       0.141687         3.8555 
 186   0.0000       0.152144         4.1401 
 187   0.0000       0.159522         4.3408 
 188   0.0000       0.162347         4.4177 
 189   0.0000       0.163121         4.4388 
 190   0.0000       0.167735         4.5643 
 191   0.0000       0.180200         4.9035 
 192   0.0000       0.191748         5.2177 
 193   0.0000       0.195162         5.3106 
 194   0.0000       0.202136         5.5004 
 195   0.0000       0.205647         5.5959 
 196   0.0000       0.207830         5.6553 
 197   0.0000       0.210847         5.7374 
 198   0.0000       0.220009         5.9867 
 199   0.0000       0.224784         6.1167 
 200   0.0000       0.227007         6.1772 
 201   0.0000       0.237039         6.4502 
 202   0.0000       0.241739         6.5780 
 203   0.0000       0.244625         6.6566 
 204   0.0000       0.252724         6.8770 
 205   0.0000       0.253463         6.8971 
 206   0.0000       0.255070         6.9408 
 207   0.0000       0.259888         7.0719 
 208   0.0000       0.262430         7.1411 
 209   0.0000       0.263146         7.1606 
 210   0.0000       0.266505         7.2520 
 211   0.0000       0.270213         7.3529 
 212   0.0000       0.271232         7.3806 
 213   0.0000       0.274023         7.4566 
 214   0.0000       0.276179         7.5152 
 215   0.0000       0.278776         7.5859 
 216   0.0000       0.281325         7.6552 
 217   0.0000       0.281680         7.6649 
 218   0.0000       0.282947         7.6994 
 219   0.0000       0.288997         7.8640 
 220   0.0000       0.289832         7.8867 
 221   0.0000       0.292990         7.9727 
 222   0.0000       0.293738         7.9930 
 223   0.0000       0.296582         8.0704 
 224   0.0000       0.298041         8.1101 
 225   0.0000       0.300097         8.1661 
 226   0.0000       0.306334         8.3358 
 227   0.0000       0.307921         8.3789 
 228   0.0000       0.310074         8.4375 
 229   0.0000       0.315224         8.5777 
 230   0.0000       0.317436         8.6379 
 231   0.0000       0.323551         8.8043 
 232   0.0000       0.325134         8.8474 
 233   0.0000       0.330316         8.9883 
 234   0.0000       0.335041         9.1169 
 235   0.0000       0.342236         9.3127 
 236   0.0000       0.355146         9.6640 
 237   0.0000       0.382965        10.4210 
 238   0.0000       0.394982        10.7480 
 239   0.0000       0.398606        10.8466 
 240   0.0000       0.403442        10.9782 
 241   0.0000       0.415772        11.3137 
 242   0.0000       0.417832        11.3698 
 243   0.0000       0.424551        11.5526 
 244   0.0000       0.426257        11.5990 
 245   0.0000       0.431751        11.7485 
 246   0.0000       0.434314        11.8183 
 247   0.0000       0.438309        11.9270 
 248   0.0000       0.441364        12.0101 
 249   0.0000       0.443937        12.0801 
 250   0.0000       0.450960        12.2713 
 251   0.0000       0.457657        12.4535 
 252   0.0000       0.461078        12.5466 
 253   0.0000       0.461941        12.5701 
 254   0.0000       0.469778        12.7833 
 255   0.0000       0.474521        12.9124 
 256   0.0000       0.482854        13.1391 
 257   0.0000       0.484049        13.1716 
 258   0.0000       0.490905        13.3582 
 259   0.0000       0.497668        13.5422 
 260   0.0000       0.501358        13.6427 
 261   0.0000       0.503439        13.6993 
 262   0.0000       0.507525        13.8105 
 263   0.0000       0.509127        13.8541 
 264   0.0000       0.512391        13.9429 
 265   0.0000       0.515865        14.0374 
 266   0.0000       0.519286        14.1305 
 267   0.0000       0.523635        14.2488 
 268   0.0000       0.535506        14.5719 
 269   0.0000       0.537552        14.6275 
 270   0.0000       0.540990        14.7211 
 271   0.0000       0.545384        14.8406 
 272   0.0000       0.546916        14.8823 
 273   0.0000       0.554378        15.0854 
 274   0.0000       0.559590        15.2272 
 275   0.0000       0.564143        15.3511 
 276   0.0000       0.572325        15.5737 
 277   0.0000       0.576566        15.6892 
 278   0.0000       0.580265        15.7898 
 279   0.0000       0.583998        15.8914 
 280   0.0000       0.586526        15.9602 
 281   0.0000       0.590614        16.0714 
 282   0.0000       0.592720        16.1287 
 283   0.0000       0.596946        16.2437 
 284   0.0000       0.598678        16.2909 
 285   0.0000       0.599474        16.3125 
 286   0.0000       0.607930        16.5426 
 287   0.0000       0.611557        16.6413 
 288   0.0000       0.615695        16.7539 
 289   0.0000       0.615947        16.7608 
 290   0.0000       0.625758        17.0277 
 291   0.0000       0.627658        17.0794 
 292   0.0000       0.635027        17.2800 
 293   0.0000       0.636385        17.3169 
 294   0.0000       0.645848        17.5744 
 295   0.0000       0.650267        17.6947 
 296   0.0000       0.654754        17.8168 
 297   0.0000       0.658072        17.9070 
 298   0.0000       0.664095        18.0709 
 299   0.0000       0.666525        18.1371 
 300   0.0000       0.669049        18.2057 
 301   0.0000       0.671823        18.2812 
 302   0.0000       0.678991        18.4763 
 303   0.0000       0.682084        18.5605 
 304   0.0000       0.683711        18.6047 
 305   0.0000       0.686939        18.6926 
 306   0.0000       0.690678        18.7943 
 307   0.0000       0.692424        18.8418 
 308   0.0000       0.695811        18.9340 
 309   0.0000       0.697008        18.9666 
 310   0.0000       0.700967        19.0743 
 311   0.0000       0.704280        19.1644 
 312   0.0000       0.705910        19.2088 
 313   0.0000       0.709716        19.3124 
 314   0.0000       0.711483        19.3604 
 315   0.0000       0.713531        19.4162 
 316   0.0000       0.716774        19.5044 
 317   0.0000       0.717703        19.5297 
 318   0.0000       0.720736        19.6122 
 319   0.0000       0.725333        19.7373 
 320   0.0000       0.726825        19.7779 
 321   0.0000       0.729374        19.8473 
 322   0.0000       0.734552        19.9882 
 323   0.0000       0.736348        20.0371 
 324   0.0000       0.739333        20.1183 
 325   0.0000       0.740795        20.1580 
 326   0.0000       0.741067        20.1655 
 327   0.0000       0.743836        20.2408 
 328   0.0000       0.747059        20.3285 
 329   0.0000       0.750558        20.4237 
 330   0.0000       0.752522        20.4772 
 331   0.0000       0.754451        20.5297 
 332   0.0000       0.758315        20.6348 
 333   0.0000       0.762975        20.7616 
 334   0.0000       0.769116        20.9287 
 335   0.0000       0.774549        21.0766 
 336   0.0000       0.777856        21.1665 
 337   0.0000       0.779422        21.2092 
 338   0.0000       0.786388        21.3987 
 339   0.0000       0.789312        21.4783 
 340   0.0000       0.791392        21.5349 
 341   0.0000       0.791533        21.5387 
 342   0.0000       0.795266        21.6403 
 343   0.0000       0.800236        21.7755 
 344   0.0000       0.804758        21.8986 
 345   0.0000       0.806497        21.9459 
 346   0.0000       0.807569        21.9751 
 347   0.0000       0.809349        22.0235 
 348   0.0000       0.815314        22.1858 
 349   0.0000       0.816558        22.2197 
 350   0.0000       0.821254        22.3475 
 351   0.0000       0.823951        22.4208 
 352   0.0000       0.825668        22.4676 
 353   0.0000       0.827925        22.5290 
 354   0.0000       0.830001        22.5855 
 355   0.0000       0.831751        22.6331 
 356   0.0000       0.833939        22.6926 
 357   0.0000       0.834254        22.7012 
 358   0.0000       0.836741        22.7689 
 359   0.0000       0.838978        22.8298 
 360   0.0000       0.841517        22.8988 
 361   0.0000       0.842145        22.9159 
 362   0.0000       0.843600        22.9555 
 363   0.0000       0.844142        22.9703 
 364   0.0000       0.849043        23.1036 
 365   0.0000       0.850838        23.1525 
 366   0.0000       0.853527        23.2256 
 367   0.0000       0.855371        23.2758 
 368   0.0000       0.862027        23.4569 
 369   0.0000       0.862857        23.4795 
 370   0.0000       0.864787        23.5321 
 371   0.0000       0.871644        23.7186 
 372   0.0000       0.875071        23.8119 
 373   0.0000       0.876667        23.8553 
 374   0.0000       0.878863        23.9151 
 375   0.0000       0.883083        24.0299 
 376   0.0000       0.885169        24.0867 
 377   0.0000       0.890370        24.2282 
 378   0.0000       0.892073        24.2745 
 379   0.0000       0.892941        24.2982 
 380   0.0000       0.898138        24.4396 
 381   0.0000       0.898630        24.4530 
 382   0.0000       0.902138        24.5484 
 383   0.0000       0.903631        24.5890 
 384   0.0000       0.903853        24.5951 
 385   0.0000       0.905459        24.6388 
 386   0.0000       0.908346        24.7174 
 387   0.0000       0.910165        24.7669 
 388   0.0000       0.910938        24.7879 
 389   0.0000       0.913808        24.8660 
 390   0.0000       0.918290        24.9879 
 391   0.0000       0.922103        25.0917 
 392   0.0000       0.923372        25.1262 
 393   0.0000       0.924622        25.1602 
 394   0.0000       0.927022        25.2256 
 395   0.0000       0.930039        25.3077 
 396   0.0000       0.933028        25.3890 
 397   0.0000       0.934539        25.4301 
 398   0.0000       0.939241        25.5580 
 399   0.0000       0.941713        25.6253 
 400   0.0000       0.943192        25.6656 
 401   0.0000       0.949016        25.8240 
 402   0.0000       0.949230        25.8298 
 403   0.0000       0.956179        26.0190 
 404   0.0000       0.956768        26.0350 
 405   0.0000       0.958880        26.0924 
 406   0.0000       0.959477        26.1087 
 407   0.0000       0.963805        26.2265 
 408   0.0000       0.968120        26.3439 
 409   0.0000       0.972328        26.4584 
 410   0.0000       0.976672        26.5766 
 411   0.0000       0.980699        26.6862 
 412   0.0000       0.982294        26.7296 
 413   0.0000       0.985590        26.8193 
 414   0.0000       0.988114        26.8879 
 415   0.0000       0.993888        27.0451 
 416   0.0000       1.001505        27.2523 
 417   0.0000       1.002288        27.2736 
 418   0.0000       1.005670        27.3657 
 419   0.0000       1.015783        27.6409 
 420   0.0000       1.021924        27.8080 
 421   0.0000       1.027738        27.9662 
 422   0.0000       1.031703        28.0741 
 423   0.0000       1.040841        28.3227 
 424   0.0000       1.044720        28.4283 
 425   0.0000       1.050698        28.5909 
 426   0.0000       1.056627        28.7523 
 427   0.0000       1.062030        28.8993 
 428   0.0000       1.063928        28.9510 
 429   0.0000       1.070353        29.1258 
 430   0.0000       1.076881        29.3034 
 431   0.0000       1.082437        29.4546 
 432   0.0000       1.084314        29.5057 
 433   0.0000       1.088884        29.6300 
 434   0.0000       1.099847        29.9284 
 435   0.0000       1.103589        30.0302 
 436   0.0000       1.106867        30.1194 
 437   0.0000       1.109227        30.1836 
 438   0.0000       1.115202        30.3462 
 439   0.0000       1.116180        30.3728 
 440   0.0000       1.121903        30.5285 
 441   0.0000       1.123902        30.5829 
 442   0.0000       1.127433        30.6790 
 443   0.0000       1.129321        30.7304 
 444   0.0000       1.132590        30.8193 
 445   0.0000       1.133349        30.8400 
 446   0.0000       1.136156        30.9164 
 447   0.0000       1.141925        31.0734 
 448   0.0000       1.145050        31.1584 
 449   0.0000       1.147689        31.2302 
 450   0.0000       1.150962        31.3193 
 451   0.0000       1.152476        31.3605 
 452   0.0000       1.156494        31.4698 
 453   0.0000       1.157455        31.4959 
 454   0.0000       1.160915        31.5901 
 455   0.0000       1.169586        31.8261 
 456   0.0000       1.172579        31.9075 
 457   0.0000       1.177189        32.0329 
 458   0.0000       1.179979        32.1089 
 459   0.0000       1.186185        32.2777 
 460   0.0000       1.187630        32.3170 
 461   0.0000       1.193032        32.4641 
 462   0.0000       1.200962        32.6798 
 463   0.0000       1.202881        32.7320 
 464   0.0000       1.206660        32.8349 
 465   0.0000       1.208529        32.8858 
 466   0.0000       1.213388        33.0180 
 467   0.0000       1.214811        33.0567 
 468   0.0000       1.221678        33.2435 
 469   0.0000       1.228627        33.4327 
 470   0.0000       1.229450        33.4550 
 471   0.0000       1.232504        33.5382 
 472   0.0000       1.234979        33.6055 
 473   0.0000       1.236512        33.6472 
 474   0.0000       1.242053        33.7980 
 475   0.0000       1.247082        33.9348 
 476   0.0000       1.252094        34.0712 
 477   0.0000       1.252657        34.0865 
 478   0.0000       1.253286        34.1037 
 479   0.0000       1.255514        34.1643 
 480   0.0000       1.259888        34.2833 
 481   0.0000       1.264811        34.4173 
 482   0.0000       1.269719        34.5508 
 483   0.0000       1.271756        34.6063 
 484   0.0000       1.273374        34.6503 
 485   0.0000       1.276398        34.7326 
 486   0.0000       1.279526        34.8177 
 487   0.0000       1.283349        34.9217 
 488   0.0000       1.287950        35.0469 
 489   0.0000       1.290987        35.1296 
 490   0.0000       1.294291        35.2195 
 491   0.0000       1.298463        35.3330 
 492   0.0000       1.300355        35.3844 
 493   0.0000       1.306334        35.5471 
 494   0.0000       1.310833        35.6696 
 495   0.0000       1.314875        35.7796 
 496   0.0000       1.315955        35.8090 
 497   0.0000       1.323739        36.0208 
 498   0.0000       1.324823        36.0503 
 499   0.0000       1.329221        36.1700 
 500   0.0000       1.333593        36.2889 
 501   0.0000       1.336315        36.3630 
 502   0.0000       1.340950        36.4891 
 503   0.0000       1.348266        36.6882 
 504   0.0000       1.350508        36.7492 
 505   0.0000       1.351020        36.7631 
 506   0.0000       1.352940        36.8154 
 507   0.0000       1.359179        36.9852 
 508   0.0000       1.362224        37.0680 
 509   0.0000       1.363672        37.1074 
 510   0.0000       1.365868        37.1672 
 511   0.0000       1.367286        37.2057 
 512   0.0000       1.370747        37.2999 
[...]
      pz      :     0.022038  p :     0.079673
      px      :     0.043453
      py      :     0.014181
 77 H s       :     0.886958  s :     0.886958
      pz      :     0.047796  p :     0.079078
      px      :     0.015017
      py      :     0.016265
 78 H s       :     0.887381  s :     0.887381
      pz      :     0.025786  p :     0.079023
      px      :     0.020508
      py      :     0.032729
 79 H s       :     0.909604  s :     0.909604
      pz      :     0.021961  p :     0.086542
      px      :     0.021718
      py      :     0.042864
 80 H s       :     0.867892  s :     0.867892
      pz      :     0.039113  p :     0.084455
      px      :     0.030100
      py      :     0.015243
 81 H s       :     0.887187  s :     0.887187
      pz      :     0.037779  p :     0.084000
      px      :     0.016175
      py      :     0.030046
 82 H s       :     0.915765  s :     0.915765
      pz      :     0.022058  p :     0.086786
      px      :     0.031487
      py      :     0.033241
 83 H s       :     0.873377  s :     0.873377
      pz      :     0.039232  p :     0.084012
      px      :     0.015272
      py      :     0.029508
 84 H s       :     0.887210  s :     0.887210
      pz      :     0.035759  p :     0.083579
      px      :     0.031699
      py      :     0.016121
 85 H s       :     0.893548  s :     0.893548
      pz      :     0.022488  p :     0.079748
      px      :     0.014089
      py      :     0.043171
 86 H s       :     0.891069  s :     0.891069
      pz      :     0.024720  p :     0.078828
      px      :     0.032974
      py      :     0.021133
 87 H s       :     0.890148  s :     0.890148
      pz      :     0.047981  p :     0.078710
      px      :     0.015596
      py      :     0.015132
 88 H s       :     0.912275  s :     0.912275
      pz      :     0.021883  p :     0.087004
      px      :     0.042706
      py      :     0.022414
 89 H s       :     0.871747  s :     0.871747
      pz      :     0.037930  p :     0.083856
      px      :     0.030476
      py      :     0.015450


                      *****************************
                      * MAYER POPULATION ANALYSIS *
                      *****************************

  NA   - Mulliken gross atomic population
  ZA   - Total nuclear charge
  QA   - Mulliken gross atomic charge
  VA   - Mayer's total valence
  BVA  - Mayer's bonded valence
  FA   - Mayer's free valence

  ATOM       NA         ZA         QA         VA         BVA        FA
  0 C      5.7957     6.0000     0.2043     3.8367     3.8367    -0.0000
  1 N      7.4509     7.0000    -0.4509     3.3389     3.3389     0.0000
  2 C      6.0640     6.0000    -0.0640     3.9204     3.9204     0.0000
  3 N      7.3361     7.0000    -0.3361     3.4545     3.4545     0.0000
  4 C      6.0591     6.0000    -0.0591     3.9868     3.9868    -0.0000
  5 N      7.5608     7.0000    -0.5608     3.0919     3.0919     0.0000
  6 C      6.0954     6.0000    -0.0954     4.0071     4.0071     0.0000
  7 N      7.3394     7.0000    -0.3394     3.4370     3.4370    -0.0000
  8 C      5.7959     6.0000     0.2041     3.8373     3.8373     0.0000
  9 N      7.5628     7.0000    -0.5628     3.0810     3.0810    -0.0000
 10 C      5.8825     6.0000     0.1175     3.9044     3.9044    -0.0000
 11 N      7.4374     7.0000    -0.4374     3.3840     3.3840     0.0000
 12 C      6.0774     6.0000    -0.0774     3.9166     3.9166     0.0000
 13 N      7.4345     7.0000    -0.4345     3.4047     3.4047     0.0000
 14 C      5.7666     6.0000     0.2334     3.7824     3.7824     0.0000
 15 N      7.4412     7.0000    -0.4412     3.3701     3.3701     0.0000
 16 C      5.7694     6.0000     0.2306     3.7835     3.7835     0.0000
 17 C      6.0926     6.0000    -0.0926     4.0070     4.0070    -0.0000
 18 C      6.1878     6.0000    -0.1878     3.7674     3.7674     0.0000
 19 C      5.7795     6.0000     0.2205     3.8664     3.8664     0.0000
 20 C      5.7877     6.0000     0.2123     3.8269     3.8269     0.0000
 21 C      6.0857     6.0000    -0.0857     3.9090     3.9090    -0.0000
 22 C      6.0874     6.0000    -0.0874     3.9824     3.9824    -0.0000
 23 C      6.0439     6.0000    -0.0439     3.9913     3.9913     0.0000
 24 C      5.7995     6.0000     0.2005     3.8221     3.8221     0.0000
 25 C      5.8861     6.0000     0.1139     3.8897     3.8897     0.0000
 26 C      6.0738     6.0000    -0.0738     3.9055     3.9055     0.0000
 27 C      5.7846     6.0000     0.2154     3.8720     3.8720     0.0000
 28 C      6.0570     6.0000    -0.0570     3.9883     3.9883    -0.0000
 29 C      6.1818     6.0000    -0.1818     3.7407     3.7407    -0.0000
 30 C      5.7591     6.0000     0.2409     3.7958     3.7958    -0.0000
 31 C      5.7782     6.0000     0.2218     3.8225     3.8225     0.0000
 32 C      6.0629     6.0000    -0.0629     3.9211     3.9211    -0.0000
 33 C      6.0707     6.0000    -0.0707     3.9787     3.9787    -0.0000
 34 C      6.0496     6.0000    -0.0496     3.9879     3.9879    -0.0000
 35 C      5.7843     6.0000     0.2157     3.8207     3.8207    -0.0000
 36 C      5.8889     6.0000     0.1111     3.8828     3.8828     0.0000
 37 C      6.0654     6.0000    -0.0654     3.9176     3.9176    -0.0000
 38 C      5.7651     6.0000     0.2349     3.8010     3.8010     0.0000
 39 C      6.0603     6.0000    -0.0603     3.9870     3.9870    -0.0000
 40 C      6.1843     6.0000    -0.1843     3.7338     3.7338    -0.0000
 41 C      5.7777     6.0000     0.2223     3.8836     3.8836    -0.0000
 42 C      5.8007     6.0000     0.1993     3.8269     3.8269     0.0000
 43 C      6.0732     6.0000    -0.0732     3.9013     3.9013    -0.0000
 44 C      6.0904     6.0000    -0.0904     3.9856     3.9856    -0.0000
 45 C      6.0577     6.0000    -0.0577     3.9924     3.9924    -0.0000
 46 C      5.7931     6.0000     0.2069     3.8276     3.8276     0.0000
 47 C      5.8843     6.0000     0.1157     3.8939     3.8939    -0.0000
 48 C      6.0710     6.0000    -0.0710     3.9069     3.9069    -0.0000
 49 C      5.7675     6.0000     0.2325     3.8899     3.8899     0.0000
 50 C      6.0493     6.0000    -0.0493     3.9906     3.9906     0.0000
 51 C      6.1918     6.0000    -0.1918     3.7369     3.7369     0.0000
 52 H      0.9547     1.0000     0.0453     0.9857     0.9857     0.0000
 53 H      1.0155     1.0000    -0.0155     0.9986     0.9986     0.0000
 54 H      0.9519     1.0000     0.0481     1.0088     1.0088     0.0000
 55 H      0.9562     1.0000     0.0438     0.9864     0.9864    -0.0000
 56 H      0.9475     1.0000     0.0525     0.9704     0.9704    -0.0000
 57 H      0.9492     1.0000     0.0508     0.9825     0.9825    -0.0000
 58 H      0.9498     1.0000     0.0502     0.9856     0.9856    -0.0000
 59 H      1.0039     1.0000    -0.0039     1.0020     1.0020    -0.0000
 60 H      0.9541     1.0000     0.0459     1.0120     1.0120    -0.0000
 61 H      0.8284     1.0000     0.1716     1.0420     1.0420     0.0000
 62 H      0.8255     1.0000     0.1745     1.0436     1.0436    -0.0000
 63 H      0.9430     1.0000     0.0570     0.9853     0.9853     0.0000
 64 H      1.0111     1.0000    -0.0111     0.9968     0.9968    -0.0000
 65 H      0.9530     1.0000     0.0470     1.0096     1.0096     0.0000
 66 H      0.9427     1.0000     0.0573     0.9852     0.9852     0.0000
 67 H      0.9364     1.0000     0.0636     0.9720     0.9720     0.0000
 68 H      0.9418     1.0000     0.0582     0.9868     0.9868     0.0000
 69 H      0.9418     1.0000     0.0582     0.9829     0.9829     0.0000
 70 H      1.0267     1.0000    -0.0267     0.9931     0.9931     0.0000
 71 H      0.9527     1.0000     0.0473     1.0062     1.0062    -0.0000
 72 H      0.9357     1.0000     0.0643     0.9842     0.9842     0.0000
 73 H      1.0108     1.0000    -0.0108     0.9998     0.9998     0.0000
 74 H      0.9461     1.0000     0.0539     1.0101     1.0101    -0.0000
 75 H      0.9366     1.0000     0.0634     0.9847     0.9847     0.0000
 76 H      0.9312     1.0000     0.0688     0.9719     0.9719     0.0000
 77 H      0.9367     1.0000     0.0633     0.9853     0.9853     0.0000
 78 H      0.9376     1.0000     0.0624     0.9851     0.9851     0.0000
 79 H      1.0148     1.0000    -0.0148     0.9986     0.9986     0.0000
 80 H      0.9456     1.0000     0.0544     1.0071     1.0071    -0.0000
 81 H      0.9464     1.0000     0.0536     0.9856     0.9856     0.0000
 82 H      1.0247     1.0000    -0.0247     0.9936     0.9936    -0.0000
 83 H      0.9583     1.0000     0.0417     1.0088     1.0088    -0.0000
 84 H      0.9470     1.0000     0.0530     0.9854     0.9854    -0.0000
 85 H      0.9406     1.0000     0.0594     0.9715     0.9715    -0.0000
 86 H      0.9445     1.0000     0.0555     0.9839     0.9839    -0.0000
 87 H      0.9433     1.0000     0.0567     0.9856     0.9856    -0.0000
 88 H      1.0180     1.0000    -0.0180     0.9957     0.9957     0.0000
 89 H      0.9542     1.0000     0.0458     1.0069     1.0069     0.0000

  Mayer bond orders larger than 0.100000
B(  0-C ,  1-N ) :   1.0958 B(  0-C , 17-C ) :   1.6813 B(  0-C , 52-H ) :   0.9687 
B(  1-N ,  8-C ) :   1.0941 B(  1-N , 10-C ) :   0.9731 B(  2-C , 12-C ) :   1.5230 
B(  2-C , 16-C ) :   1.3399 B(  2-C , 53-H ) :   0.9771 B(  3-N , 14-C ) :   1.2128 
B(  3-N , 16-C ) :   1.1935 B(  3-N , 61-H ) :   0.8992 B(  4-C ,  6-C ) :   1.2273 
B(  4-C , 17-C ) :   1.2279 B(  4-C , 18-C ) :   1.3687 B(  5-N , 19-C ) :   1.4403 
B(  5-N , 27-C ) :   1.3896 B(  6-C ,  8-C ) :   1.6815 B(  6-C , 54-H ) :   0.9680 
B(  7-N , 30-C ) :   1.1934 B(  7-N , 38-C ) :   1.1965 B(  7-N , 62-H ) :   0.8973 
B(  8-C , 55-H ) :   0.9697 B(  9-N , 41-C ) :   1.3981 B(  9-N , 49-C ) :   1.4241 
B( 10-C , 56-H ) :   0.9765 B( 10-C , 57-H ) :   0.9829 B( 10-C , 58-H ) :   0.9833 
B( 11-N , 20-C ) :   1.1302 B( 11-N , 24-C ) :   1.1165 B( 11-N , 25-C ) :   0.9581 
B( 12-C , 14-C ) :   1.3426 B( 12-C , 59-H ) :   0.9753 B( 13-N , 31-C ) :   1.1442 
B( 13-N , 35-C ) :   1.1376 B( 13-N , 36-C ) :   0.9502 B( 14-C , 18-C ) :   1.1595 
B( 15-N , 42-C ) :   1.1099 B( 15-N , 46-C ) :   1.1184 B( 15-N , 47-C ) :   0.9625 
B( 16-C , 51-C ) :   1.1844 B( 17-C , 60-H ) :   0.9679 B( 18-C , 19-C ) :   1.1679 
B( 19-C , 21-C ) :   1.2299 B( 20-C , 28-C ) :   1.6235 B( 20-C , 63-H ) :   0.9701 
B( 21-C , 26-C ) :   1.6288 B( 21-C , 64-H ) :   0.9716 B( 22-C , 23-C ) :   1.2892 
B( 22-C , 28-C ) :   1.2712 B( 22-C , 29-C ) :   1.2213 B( 23-C , 24-C ) :   1.6163 
B( 23-C , 65-H ) :   0.9706 B( 24-C , 66-H ) :   0.9693 B( 25-C , 67-H ) :   0.9761 
B( 25-C , 68-H ) :   0.9828 B( 25-C , 69-H ) :   0.9822 B( 26-C , 27-C ) :   1.2244 
B( 26-C , 70-H ) :   0.9720 B( 27-C , 29-C ) :   1.2216 B( 28-C , 71-H ) :   0.9717 
B( 29-C , 30-C ) :   1.2302 B( 30-C , 32-C ) :   1.2935 B( 31-C , 39-C ) :   1.6086 
B( 31-C , 72-H ) :   0.9688 B( 32-C , 37-C ) :   1.5654 B( 32-C , 73-H ) :   0.9782 
B( 33-C , 34-C ) :   1.2930 B( 33-C , 39-C ) :   1.2858 B( 33-C , 40-C ) :   1.2092 
B( 34-C , 35-C ) :   1.6051 B( 34-C , 74-H ) :   0.9700 B( 35-C , 75-H ) :   0.9689 
B( 36-C , 76-H ) :   0.9765 B( 36-C , 77-H ) :   0.9818 B( 36-C , 78-H ) :   0.9827 
B( 37-C , 38-C ) :   1.2965 B( 37-C , 79-H ) :   0.9772 B( 38-C , 40-C ) :   1.2229 
B( 39-C , 80-H ) :   0.9711 B( 40-C , 41-C ) :   1.2351 B( 41-C , 43-C ) :   1.2006 
B( 42-C , 50-C ) :   1.6352 B( 42-C , 81-H ) :   0.9696 B( 43-C , 48-C ) :   1.6509 
B( 43-C , 82-H ) :   0.9728 B( 44-C , 45-C ) :   1.2651 B( 44-C , 50-C ) :   1.2684 
B( 44-C , 51-C ) :   1.2621 B( 45-C , 46-C ) :   1.6356 B( 45-C , 83-H ) :   0.9715 
B( 46-C , 84-H ) :   0.9702 B( 47-C , 85-H ) :   0.9762 B( 47-C , 86-H ) :   0.9829 
B( 47-C , 87-H ) :   0.9825 B( 48-C , 49-C ) :   1.2028 B( 48-C , 88-H ) :   0.9745 
B( 49-C , 51-C ) :   1.2274 B( 50-C , 89-H ) :   0.9711 

-------
TIMINGS
-------

Total SCF time: 0 days 0 hours 28 min 29 sec 

Total time                  ....    1709.070 sec
Sum of individual times     ....    1704.623 sec  ( 99.7%)

Fock matrix formation       ....    1682.466 sec  ( 98.4%)
Diagonalization             ....       6.920 sec  (  0.4%)
Density matrix formation    ....       0.603 sec  (  0.0%)
Population analysis         ....       0.524 sec  (  0.0%)
Initial guess               ....       2.050 sec  (  0.1%)
Orbital Transformation      ....       0.000 sec  (  0.0%)
Orbital Orthonormalization  ....       0.000 sec  (  0.0%)
DIIS solution               ....       3.519 sec  (  0.2%)
SOSCF solution              ....       7.490 sec  (  0.4%)

Maximum memory used throughout the entire SCF-calculation: 302.6 MB


           ************************************************************
           *        Program running with 16 parallel MPI-processes    *
           *              working on a common directory               *
           ************************************************************

------------------------------------------------------------------------------
                                ORCA  MP2 
------------------------------------------------------------------------------

Freezing NCore=104 chemical core electrons

----------
MP2 ENERGY (disk based algorithm)
----------

Dimension of the basis                    ...  918
Memory devoted to MP2                     ... 2000 MB   
Data format for buffers                   ... DOUBLE
Compression type for matrix containers    ... UNCOMPRESSED

-------------------------------
PARTIAL EXCHANGE TRANSFORMATION
-------------------------------

Transformation type                        ... one-operator
Generation of integrals (i,mue|j,nue)      ... ON
Generation of integrals (mue,kappa|nue,tau)... OFF
Generation of integrals (i,mue|a,nue)      ... OFF
Dimension of the basis                     ...  918
Number of internal MOs                     ...  127 (  52- 178)
Pair cutoff                                ... 2.500e-12 Eh
Number of AO pairs in the trafo            ... 421821
Total Number of distinct AO pairs          ... 421821
Memory devoted for trafo                   ... 2000.0 MB 
Max. Number of MO pairs treated together   ...  311      
Number Format for Storage                  ... Double (8 Byte)
Integral package used                      ... LIBINT

Starting integral evaluation:
    ... done with AO integral generation
Closing buffer AOK     (38.25 GB; CompressionRatio= 1.33)
Collecting buffer AOK 
Number of MO pairs included in the trafo   ... 8128
------------------------
SORTING OF (i,mue|j,nue)
------------------------

IBATCH = 1 of  2
IBATCH = 2 of  2
Closing buffer KAO     (51.03 GB; CompressionRatio= 1.00)
Collecting buffer KAO 
N(AO-Batches) Done                         ...  85588362 
N(AO-Batches) Skipped                      ...  82333188 
N(IJ)-pairs Skipped                        ...         0 
TOTAL TIME for half transformation         ...  2875.528 sec
AO-integral generation                     ...   212.386 sec
Half transformation                        ...   372.063 sec
K-integral sorting                         ...  2108.269 sec
Process 10:   Internal MO 132
Process 13:   Internal MO 156
Process  4:   Internal MO  84
Process  1:   Internal MO  60

Finished integral transformation - now doing MP2 part

OPERATOR COMBINATION   0   0: ij=( 52..178, 52..178)
Process  7:   Internal MO 108
Process  2:   Internal MO  69
Process  1:   Internal MO  63
Process  3:   Internal MO  78
Process  5:   Internal MO  93
Process  8:   Internal MO 117
Process  1:   Internal MO  66
Process 11:   Internal MO 141
Process  2:   Internal MO  72
Process 14:   Internal MO 165
Process  4:   Internal MO  87
Process  9:   Internal MO 126
Process  0:   Internal MO  54
Process  3:   Internal MO  81
Process  0:   Internal MO  57
Process  5:   Internal MO  96
Process  7:   Internal MO 111
Process 12:   Internal MO 150
Process  2:   Internal MO  75
Process  4:   Internal MO  90
Process  6:   Internal MO 102
Process 10:   Internal MO 135
Process 15:   Internal MO 174
Process  8:   Internal MO 120
Process  7:   Internal MO 114
Process  5:   Internal MO  99
Process  9:   Internal MO 129
Process  6:   Internal MO 105
Process 13:   Internal MO 159
Process 11:   Internal MO 144
Process 12:   Internal MO 153
Process 14:   Internal MO 168
Process 10:   Internal MO 138
Process 15:   Internal MO 177
Process  8:   Internal MO 123
Process 11:   Internal MO 147
Process 13:   Internal MO 162
Process 14:   Internal MO 171
-----------------------------------------------
 MP2 CORRELATION ENERGY   :     -7.285105692 Eh
-----------------------------------------------


-------
TIMINGS
-------
Total time                : 3246.272 sec
Integral trafo            : 2877.954 sec ( 88.7%)
K(i,j)                    :   77.741 sec (  2.4%)
T(i,j)                    :    1.321 sec (  0.0%)

---------------------------------------
MP2 TOTAL ENERGY:    -2130.914847768 Eh
---------------------------------------

Maximum memory used throughout the entire MP2-calculation: 2275.2 MB

-------------------------   --------------------
FINAL SINGLE POINT ENERGY     -2130.914847768365
-------------------------   --------------------


                            ***************************************
                            *     ORCA property calculations      *
                            ***************************************


  WARNING: The energy has been calculated at the MP2 level but the densities
           used in the property calculations are still SCF densities
           MP2 response densities have not been calculated 
           use %mp2 Density relaxed end
           or  %mp2 Density unrelaxed end

                                    ---------------------
                                    Active property flags
                                    ---------------------
   (+) Dipole Moment


------------------------------------------------------------------------------
                       ORCA ELECTRIC PROPERTIES CALCULATION
------------------------------------------------------------------------------

Dipole Moment Calculation                       ... on
Quadrupole Moment Calculation                   ... off
Polarizability Calculation                      ... off
GBWName                                         ... /scratch/allen/tmpyp4_amber_gaff2/conf1/conf1/Conf134.orca.gbw
Electron density                                ... /scratch/allen/tmpyp4_amber_gaff2/conf1/conf1/Conf134.orca.scfp
The origin for moment calculation is the CENTER OF MASS  = ( 0.003099, -0.001986  0.002667)

-------------
DIPOLE MOMENT
-------------
                                X             Y             Z
Electronic contribution:      1.18262      -2.82906      -0.21763
Nuclear contribution   :      0.01667       0.19688       0.22643
                        -----------------------------------------
Total Dipole Moment    :      1.19929      -2.63219       0.00880
                        -----------------------------------------
Magnitude (a.u.)       :      2.89254
Magnitude (Debye)      :      7.35225



--------------------
Rotational spectrum 
--------------------
 
Rotational constants in cm-1:     0.001499     0.001476     0.000761 
Rotational constants in MHz :    44.936771    44.250582    22.829087 

 Dipole components along the rotational axes: 
x,y,z [a.u.] :     1.938411    -2.146898     0.013025 
x,y,z [Debye]:     4.927050    -5.456982     0.033108 

 

Timings for individual modules:

Sum of individual times         ...     4982.695 sec (=  83.045 min)
GTO integral calculation        ...        3.265 sec (=   0.054 min)   0.1 %
SCF iterations                  ...     1710.164 sec (=  28.503 min)  34.3 %
MP2 module                      ...     3269.265 sec (=  54.488 min)  65.6 %
                             ****ORCA TERMINATED NORMALLY****
TOTAL RUN TIME: 0 days 1 hours 23 minutes 6 seconds 113 msec
# of primitive gaussian functions

