
                                 *****************
                                 * O   R   C   A *
                                 *****************

                                            #,                                       
                                            ###                                      
                                            ####                                     
                                            #####                                    
                                            ######                                   
                                           ########,                                 
                                     ,,################,,,,,                         
                               ,,#################################,,                 
                          ,,##########################################,,             
                       ,#########################################, ''#####,          
                    ,#############################################,,   '####,        
                  ,##################################################,,,,####,       
                ,###########''''           ''''###############################       
              ,#####''   ,,,,##########,,,,          '''####'''          '####       
            ,##' ,,,,###########################,,,                        '##       
           ' ,,###''''                  '''############,,,                           
         ,,##''                                '''############,,,,        ,,,,,,###''
      ,#''                                            '''#######################'''  
     '                                                          ''''####''''         
             ,#######,   #######,   ,#######,      ##                                
            ,#'     '#,  ##    ##  ,#'     '#,    #''#        ######   ,####,        
            ##       ##  ##   ,#'  ##            #'  '#       #        #'  '#        
            ##       ##  #######   ##           ,######,      #####,   #    #        
            '#,     ,#'  ##    ##  '#,     ,#' ,#      #,         ##   #,  ,#        
             '#######'   ##     ##  '#######'  #'      '#     #####' # '####'        



                  #######################################################
                  #                        -***-                        #
                  #          Department of theory and spectroscopy      #
                  #    Directorship and core code : Frank Neese         #
                  #        Max Planck Institute fuer Kohlenforschung    #
                  #                Kaiser Wilhelm Platz 1               #
                  #                 D-45470 Muelheim/Ruhr               #
                  #                      Germany                        #
                  #                                                     #
                  #                  All rights reserved                #
                  #                        -***-                        #
                  #######################################################


                         Program Version 5.0.4 -  RELEASE  -


 With contributions from (in alphabetic order):
   Daniel Aravena         : Magnetic Suceptibility
   Michael Atanasov       : Ab Initio Ligand Field Theory (pilot matlab implementation)
   Alexander A. Auer      : GIAO ZORA, VPT2 properties, NMR spectrum
   Ute Becker             : Parallelization
   Giovanni Bistoni       : ED, misc. LED, open-shell LED, HFLD
   Martin Brehm           : Molecular dynamics
   Dmytro Bykov           : SCF Hessian
   Vijay G. Chilkuri      : MRCI spin determinant printing, contributions to CSF-ICE
   Dipayan Datta          : RHF DLPNO-CCSD density
   Achintya Kumar Dutta   : EOM-CC, STEOM-CC
   Dmitry Ganyushin       : Spin-Orbit,Spin-Spin,Magnetic field MRCI
   Miquel Garcia          : C-PCM and meta-GGA Hessian, CC/C-PCM, Gaussian charge scheme
   Yang Guo               : DLPNO-NEVPT2, F12-NEVPT2, CIM, IAO-localization
   Andreas Hansen         : Spin unrestricted coupled pair/coupled cluster methods
   Benjamin Helmich-Paris : MC-RPA, TRAH-SCF, COSX integrals
   Lee Huntington         : MR-EOM, pCC
   Robert Izsak           : Overlap fitted RIJCOSX, COSX-SCS-MP3, EOM
   Marcus Kettner         : VPT2
   Christian Kollmar      : KDIIS, OOCD, Brueckner-CCSD(T), CCSD density, CASPT2, CASPT2-K
   Simone Kossmann        : Meta GGA functionals, TD-DFT gradient, OOMP2, MP2 Hessian
   Martin Krupicka        : Initial AUTO-CI
   Lucas Lang             : DCDCAS
   Marvin Lechner         : AUTO-CI (C++ implementation), FIC-MRCC
   Dagmar Lenk            : GEPOL surface, SMD
   Dimitrios Liakos       : Extrapolation schemes; Compound Job, initial MDCI parallelization
   Dimitrios Manganas     : Further ROCIS development; embedding schemes
   Dimitrios Pantazis     : SARC Basis sets
   Anastasios Papadopoulos: AUTO-CI, single reference methods and gradients
   Taras Petrenko         : DFT Hessian,TD-DFT gradient, ASA, ECA, R-Raman, ABS, FL, XAS/XES, NRVS
   Peter Pinski           : DLPNO-MP2, DLPNO-MP2 Gradient
   Christoph Reimann      : Effective Core Potentials
   Marius Retegan         : Local ZFS, SOC
   Christoph Riplinger    : Optimizer, TS searches, QM/MM, DLPNO-CCSD(T), (RO)-DLPNO pert. Triples
   Tobias Risthaus        : Range-separated hybrids, TD-DFT gradient, RPA, STAB
   Michael Roemelt        : Original ROCIS implementation
   Masaaki Saitow         : Open-shell DLPNO-CCSD energy and density
   Barbara Sandhoefer     : DKH picture change effects
   Avijit Sen             : IP-ROCIS
   Kantharuban Sivalingam : CASSCF convergence, NEVPT2, FIC-MRCI
   Bernardo de Souza      : ESD, SOC TD-DFT
   Georgi Stoychev        : AutoAux, RI-MP2 NMR, DLPNO-MP2 response
   Willem Van den Heuvel  : Paramagnetic NMR
   Boris Wezisla          : Elementary symmetry handling
   Frank Wennmohs         : Technical directorship


 We gratefully acknowledge several colleagues who have allowed us to
 interface, adapt or use parts of their codes:
   Stefan Grimme, W. Hujo, H. Kruse, P. Pracht,  : VdW corrections, initial TS optimization,
                  C. Bannwarth, S. Ehlert          DFT functionals, gCP, sTDA/sTD-DF
   Ed Valeev, F. Pavosevic, A. Kumar             : LibInt (2-el integral package), F12 methods
   Garnet Chan, S. Sharma, J. Yang, R. Olivares  : DMRG
   Ulf Ekstrom                                   : XCFun DFT Library
   Mihaly Kallay                                 : mrcc  (arbitrary order and MRCC methods)
   Jiri Pittner, Ondrej Demel                    : Mk-CCSD
   Frank Weinhold                                : gennbo (NPA and NBO analysis)
   Christopher J. Cramer and Donald G. Truhlar   : smd solvation model
   Lars Goerigk                                  : TD-DFT with DH, B97 family of functionals
   V. Asgeirsson, H. Jonsson                     : NEB implementation
   FAccTs GmbH                                   : IRC, NEB, NEB-TS, DLPNO-Multilevel, CI-OPT
                                                   MM, QMMM, 2- and 3-layer-ONIOM, Crystal-QMMM,
                                                   LR-CPCM, SF, NACMEs, symmetry and pop. for TD-DFT,
                                                   nearIR, NL-DFT gradient (VV10), updates on ESD,
                                                   ML-optimized integration grids
   S Lehtola, MJT Oliveira, MAL Marques          : LibXC Library
   Liviu Ungur et al                             : ANISO software


 Your calculation uses the libint2 library for the computation of 2-el integrals
 For citations please refer to: http://libint.valeyev.net

 Your ORCA version has been built with support for libXC version: 5.1.0
 For citations please refer to: https://tddft.org/programs/libxc/

 This ORCA versions uses:
   CBLAS   interface :  Fast vector & matrix operations
   LAPACKE interface :  Fast linear algebra routines
   SCALAPACK package :  Parallel linear algebra routines
   Shared memory     :  Shared parallel matrices
   BLAS/LAPACK       :  OpenBLAS 0.3.15  USE64BITINT DYNAMIC_ARCH NO_AFFINITY Sandybridge SINGLE_THREADED
        Core in use  :  Sandybridge
   Copyright (c) 2011-2014, The OpenBLAS Project


================================================================================

----- Orbital basis set information -----
Your calculation utilizes the basis: cc-pVDZ 
       H, B-Ne : Obtained from the ccRepo (grant-hill.group.shef.ac.uk/ccrepo) Feb. 2017
                 T. H. Dunning, Jr., J. Chem. Phys. 90, 1007 (1989)
            He : Obtained from the ccRepo (grant-hill.group.shef.ac.uk/ccrepo) Feb. 2017
                 D. E. Woon, T. H. Dunning, Jr., J. Chem. Phys. 100, 2975 (1994)
  Li-Be, Na-Mg : Obtained from the ccRepo (grant-hill.group.shef.ac.uk/ccrepo) Feb. 2017
                 B. P. Prascher, D. E. Woon, K. A. Peterson, T. H. Dunning, Jr., A. K. Wilson, Theor. Chem. Acc. 128, 69 (2011)
         Al-Ar : Obtained from the ccRepo (grant-hill.group.shef.ac.uk/ccrepo) Feb. 2017
                 D. E. Woon, T. H. Dunning, Jr., J. Chem. Phys. 98, 1358 (1993)
            Ca : Obtained from the Peterson Research Group Website (tyr0.chem.wsu.edu/~kipeters) Feb. 2017
                 J. Koput, K. A. Peterson, J. Phys. Chem. 106, 9595 (2002)
         Sc-Zn : Obtained from the ccRepo (grant-hill.group.shef.ac.uk/ccrepo) Feb. 2017
                 N. B. Balabanov, K. A. Peterson, J. Chem. Phys. 123, 064107 (2005)
                 N. B. Balabanov, K. A. Peterson, J. Chem. Phys. 125, 074110 (2006)
         Ga-Kr : Obtained from the ccRepo (grant-hill.group.shef.ac.uk/ccrepo) Feb. 2017
                 A. K. Wilson, D. E. Woon, K. A. Peterson, T. H. Dunning, Jr., J. Chem. Phys. 110, 7667 (1999)

================================================================================
                                        WARNINGS
                       Please study these warnings very carefully!
================================================================================


WARNING: No MP2 level density has been requested!
         To caclulate MP2 level properties use
         %mp2 Density relaxed end
         or
         %mp2 Density unrelaxed end

WARNING: Post HF methods need fully converged wavefunctions
  ===> : Setting SCFConvForced true
         You can overwrite this default with %scf ConvForced false 


INFO   : the flag for use of the SHARK integral package has been found!

================================================================================
                                       INPUT FILE
================================================================================
NAME = /scratch/allen/tmpyp4_amber_gaff2/2.Mdgx/conf11/conf11/Conf75.orca
|  1> ! PAL2
|  2> ! mp2 cc-pvdz TightSCF  NoKeepInts
|  3> 
|  4> %scf
|  5>   MaxCore 2000
|  6> end
|  7> %mp2
|  8>   MaxCore 2000
|  9> end
| 10> * xyz 0 1
| 11>    C       -3.71600         6.05200        -1.02500
| 12>    C        1.47400         4.04100         0.05700
| 13>    C       -2.80200         4.09300         0.04900
| 14>    C       -3.48400         4.47700         1.21400
| 15>    C       -4.25500         5.62200         1.22100
| 16>    C       -5.22400         7.59400         0.14200
| 17>    C        0.13200         4.30700         0.06100
| 18>    C       -0.56900         3.05600         0.04700
| 19>    C        1.64900         2.61800         0.02300
| 20>    C       -2.93700         4.91100        -1.08300
| 21>    N       -4.36000         6.39300         0.11400
| 22>    N        0.38800         2.06700         0.02500
| 23>    N       -2.01000         0.39500        -0.07500
| 24>    N       -0.38800        -2.07400        -0.02700
| 25>    N        2.01000        -0.40100         0.06500
| 26>    C       -1.96000         2.86100         0.02400
| 27>    C       -2.62300         1.61500        -0.01800
| 28>    C       -5.57300        -4.32900         1.06600
| 29>    C       -4.07300         1.47100         0.05600
| 30>    C       -4.10600        -2.75600        -0.02600
| 31>    C       -4.99500        -2.75700        -1.11100
| 32>    C       -6.13200        -3.54200        -1.07600
| 33>    C       -7.65100        -5.11300         0.04000
| 34>    C       -4.32400         0.14100         0.03700
| 35>    C       -3.02500        -0.52000        -0.04800
| 36>    C       -4.42200        -3.56600         1.07500
| 37>    N       -6.40700        -4.31300         0.00100
| 38>    C       -2.86700        -1.92200        -0.04000
| 39>    C       -1.65000        -2.62400        -0.02700
| 40>    C        3.56800        -6.14200        -1.04000
| 41>    C       -1.47600        -4.04900        -0.03400
| 42>    C        2.80300        -4.09900        -0.00800
| 43>    C        3.65700        -4.38400         1.06900
| 44>    C        4.42700        -5.53000         1.05900
| 45>    C        5.24500        -7.58800         0.01400
| 46>    C       -0.13400        -4.31500        -0.02200
| 47>    C        0.56800        -3.06400        -0.02700
| 48>    C        2.77500        -5.01200        -1.07400
| 49>    N        4.37600        -6.39100         0.01700
| 50>    C        1.95900        -2.86900        -0.00900
| 51>    C        2.62100        -1.62200         0.00900
| 52>    C        5.54300         4.33900        -1.13000
| 53>    C        4.07000        -1.47900        -0.09400
| 54>    C        4.10400         2.75100        -0.02100
| 55>    C        5.02700         2.72900         1.03600
| 56>    C        6.16600         3.50900         0.97800
| 57>    C        7.61900         5.15300        -0.11500
| 58>    C        4.32100        -0.14800        -0.09200
| 59>    C        3.02500         0.51400         0.01500
| 60>    C        4.38700         3.58200        -1.11500
| 61>    C        2.86600         1.91600         0.01300
| 62>    N        6.41300         4.29600        -0.09500
| 63>    H       -3.83800         6.71800        -1.87000
| 64>    H        2.27400         4.76600         0.08100
| 65>    H       -3.42700         3.88100         2.11700
| 66>    H       -4.80600         5.95300         2.09200
| 67>    H       -6.24900         7.30000        -0.09200
| 68>    H       -5.17800         8.03500         1.13800
| 69>    H       -4.85900         8.30600        -0.59800
| 70>    H       -0.33200         5.28200         0.06900
| 71>    H       -2.42400         4.67700        -2.00800
| 72>    H        0.18200         1.07200         0.00500
| 73>    H       -0.18300        -1.08000        -0.02100
| 74>    H       -5.86400        -4.96200         1.89500
| 75>    H       -4.79400         2.27200         0.13900
| 76>    H       -4.80000        -2.16000        -1.99400
| 77>    H       -6.84100        -3.58200        -1.89300
| 78>    H       -8.42800        -4.53600         0.54600
| 79>    H       -7.95600        -5.33700        -0.98100
| 80>    H       -7.45600        -6.03700         0.58400
| 81>    H       -5.28700        -0.34400         0.10000
| 82>    H       -3.78000        -3.60100         1.94700
| 83>    H        3.58700        -6.86800        -1.84300
| 84>    H       -2.27600        -4.77400        -0.05000
| 85>    H        3.71400        -3.72400         1.92600
| 86>    H        5.09200        -5.79500         1.87100
| 87>    H        6.20500        -7.32900        -0.43900
| 88>    H        5.39300        -7.91700         1.04200
| 89>    H        4.75900        -8.37300        -0.56400
| 90>    H        0.32900        -5.29000        -0.00800
| 91>    H        2.14600        -4.84200        -1.94000
| 92>    H        5.80800         4.98600        -1.95600
| 93>    H        4.78800        -2.28100        -0.18500
| 94>    H        4.86000         2.11400         1.91200
| 95>    H        6.90100         3.53100         1.77200
| 96>    H        7.38300         6.10900         0.35600
| 97>    H        8.41400         4.65200         0.43500
| 98>    H        7.92100         5.31000        -1.15000
| 99>    H        5.28300         0.33600        -0.17900
|100>    H        3.72000         3.63200        -1.96700
|101> *
|102> 
|103>                          ****END OF INPUT****
================================================================================

                       ****************************
                       * Single Point Calculation *
                       ****************************

---------------------------------
CARTESIAN COORDINATES (ANGSTROEM)
---------------------------------
  C     -3.716000    6.052000   -1.025000
  C      1.474000    4.041000    0.057000
  C     -2.802000    4.093000    0.049000
  C     -3.484000    4.477000    1.214000
  C     -4.255000    5.622000    1.221000
  C     -5.224000    7.594000    0.142000
  C      0.132000    4.307000    0.061000
  C     -0.569000    3.056000    0.047000
  C      1.649000    2.618000    0.023000
  C     -2.937000    4.911000   -1.083000
  N     -4.360000    6.393000    0.114000
  N      0.388000    2.067000    0.025000
  N     -2.010000    0.395000   -0.075000
  N     -0.388000   -2.074000   -0.027000
  N      2.010000   -0.401000    0.065000
  C     -1.960000    2.861000    0.024000
  C     -2.623000    1.615000   -0.018000
  C     -5.573000   -4.329000    1.066000
  C     -4.073000    1.471000    0.056000
  C     -4.106000   -2.756000   -0.026000
  C     -4.995000   -2.757000   -1.111000
  C     -6.132000   -3.542000   -1.076000
  C     -7.651000   -5.113000    0.040000
  C     -4.324000    0.141000    0.037000
  C     -3.025000   -0.520000   -0.048000
  C     -4.422000   -3.566000    1.075000
  N     -6.407000   -4.313000    0.001000
  C     -2.867000   -1.922000   -0.040000
  C     -1.650000   -2.624000   -0.027000
  C      3.568000   -6.142000   -1.040000
  C     -1.476000   -4.049000   -0.034000
  C      2.803000   -4.099000   -0.008000
  C      3.657000   -4.384000    1.069000
  C      4.427000   -5.530000    1.059000
  C      5.245000   -7.588000    0.014000
  C     -0.134000   -4.315000   -0.022000
  C      0.568000   -3.064000   -0.027000
  C      2.775000   -5.012000   -1.074000
  N      4.376000   -6.391000    0.017000
  C      1.959000   -2.869000   -0.009000
  C      2.621000   -1.622000    0.009000
  C      5.543000    4.339000   -1.130000
  C      4.070000   -1.479000   -0.094000
  C      4.104000    2.751000   -0.021000
  C      5.027000    2.729000    1.036000
  C      6.166000    3.509000    0.978000
  C      7.619000    5.153000   -0.115000
  C      4.321000   -0.148000   -0.092000
  C      3.025000    0.514000    0.015000
  C      4.387000    3.582000   -1.115000
  C      2.866000    1.916000    0.013000
  N      6.413000    4.296000   -0.095000
  H     -3.838000    6.718000   -1.870000
  H      2.274000    4.766000    0.081000
  H     -3.427000    3.881000    2.117000
  H     -4.806000    5.953000    2.092000
  H     -6.249000    7.300000   -0.092000
  H     -5.178000    8.035000    1.138000
  H     -4.859000    8.306000   -0.598000
  H     -0.332000    5.282000    0.069000
  H     -2.424000    4.677000   -2.008000
  H      0.182000    1.072000    0.005000
  H     -0.183000   -1.080000   -0.021000
  H     -5.864000   -4.962000    1.895000
  H     -4.794000    2.272000    0.139000
  H     -4.800000   -2.160000   -1.994000
  H     -6.841000   -3.582000   -1.893000
  H     -8.428000   -4.536000    0.546000
  H     -7.956000   -5.337000   -0.981000
  H     -7.456000   -6.037000    0.584000
  H     -5.287000   -0.344000    0.100000
  H     -3.780000   -3.601000    1.947000
  H      3.587000   -6.868000   -1.843000
  H     -2.276000   -4.774000   -0.050000
  H      3.714000   -3.724000    1.926000
  H      5.092000   -5.795000    1.871000
  H      6.205000   -7.329000   -0.439000
  H      5.393000   -7.917000    1.042000
  H      4.759000   -8.373000   -0.564000
  H      0.329000   -5.290000   -0.008000
  H      2.146000   -4.842000   -1.940000
  H      5.808000    4.986000   -1.956000
  H      4.788000   -2.281000   -0.185000
  H      4.860000    2.114000    1.912000
  H      6.901000    3.531000    1.772000
  H      7.383000    6.109000    0.356000
  H      8.414000    4.652000    0.435000
  H      7.921000    5.310000   -1.150000
  H      5.283000    0.336000   -0.179000
  H      3.720000    3.632000   -1.967000

----------------------------
CARTESIAN COORDINATES (A.U.)
----------------------------
  NO LB      ZA    FRAG     MASS         X           Y           Z
   0 C     6.0000    0    12.011   -7.022222   11.436623   -1.936969
   1 C     6.0000    0    12.011    2.785456    7.636383    0.107714
   2 C     6.0000    0    12.011   -5.295013    7.734649    0.092597
   3 C     6.0000    0    12.011   -6.583806    8.460304    2.294128
   4 C     6.0000    0    12.011   -8.040785   10.624040    2.307356
   5 C     6.0000    0    12.011   -9.871929   14.350580    0.268341
   6 C     6.0000    0    12.011    0.249444    8.139050    0.115273
   7 C     6.0000    0    12.011   -1.075254    5.775003    0.088817
   8 C     6.0000    0    12.011    3.116158    4.947303    0.043464
   9 C     6.0000    0    12.011   -5.550126    9.280445   -2.046573
  10 N     7.0000    0    14.007   -8.239206   12.081019    0.215429
  11 N     7.0000    0    14.007    0.733214    3.906064    0.047243
  12 N     7.0000    0    14.007   -3.798350    0.746442   -0.141729
  13 N     7.0000    0    14.007   -0.733214   -3.919292   -0.051023
  14 N     7.0000    0    14.007    3.798350   -0.757780    0.122832
  15 C     6.0000    0    12.011   -3.703863    5.406506    0.045353
  16 C     6.0000    0    12.011   -4.956752    3.051908   -0.034015
  17 C     6.0000    0    12.011  -10.531444   -8.180624    2.014448
  18 C     6.0000    0    12.011   -7.696855    2.779787    0.105825
  19 C     6.0000    0    12.011   -7.759216   -5.208085   -0.049133
  20 C     6.0000    0    12.011   -9.439182   -5.209975   -2.099486
  21 C     6.0000    0    12.011  -11.587801   -6.693410   -2.033345
  22 C     6.0000    0    12.011  -14.458295   -9.662170    0.075589
  23 C     6.0000    0    12.011   -8.171176    0.266451    0.069920
  24 C     6.0000    0    12.011   -5.716422   -0.982658   -0.090707
  25 C     6.0000    0    12.011   -8.356369   -6.738763    2.031456
  26 N     7.0000    0    14.007  -12.107475   -8.150389    0.001890
  27 C     6.0000    0    12.011   -5.417845   -3.632054   -0.075589
  28 C     6.0000    0    12.011   -3.118048   -4.958641   -0.051023
  29 C     6.0000    0    12.011    6.742543  -11.606698   -1.965315
  30 C     6.0000    0    12.011   -2.789236   -7.651501   -0.064251
  31 C     6.0000    0    12.011    5.296902   -7.745987   -0.015118
  32 C     6.0000    0    12.011    6.910728   -8.284559    2.020117
  33 C     6.0000    0    12.011    8.365818  -10.450186    2.001220
  34 C     6.0000    0    12.011    9.911614  -14.339242    0.026456
  35 C     6.0000    0    12.011   -0.253223   -8.154168   -0.041574
  36 C     6.0000    0    12.011    1.073364   -5.790121   -0.051023
  37 C     6.0000    0    12.011    5.243990   -9.471307   -2.029566
  38 N     7.0000    0    14.007    8.269442  -12.077240    0.032125
  39 C     6.0000    0    12.011    3.701973   -5.421624   -0.017008
  40 C     6.0000    0    12.011    4.952972   -3.065136    0.017008
  41 C     6.0000    0    12.011   10.474752    8.199522   -2.135391
  42 C     6.0000    0    12.011    7.691185   -2.794905   -0.177634
  43 C     6.0000    0    12.011    7.755436    5.198637   -0.039684
  44 C     6.0000    0    12.011    9.499653    5.157063    1.957756
  45 C     6.0000    0    12.011   11.652051    6.631049    1.848152
  46 C     6.0000    0    12.011   14.397823    9.737759   -0.217319
  47 C     6.0000    0    12.011    8.165507   -0.279679   -0.173855
  48 C     6.0000    0    12.011    5.716422    0.971319    0.028346
  49 C     6.0000    0    12.011    8.290229    6.768999   -2.107045
  50 C     6.0000    0    12.011    5.415955    3.620715    0.024566
  51 N     7.0000    0    14.007   12.118814    8.118263   -0.179524
  52 H     1.0000    0     1.008   -7.252769   12.695180   -3.533788
  53 H     1.0000    0     1.008    4.297237    9.006435    0.153068
  54 H     1.0000    0     1.008   -6.476091    7.334027    4.000550
  55 H     1.0000    0     1.008   -9.082024   11.249540    3.953307
  56 H     1.0000    0     1.008  -11.808899   13.795001   -0.173855
  57 H     1.0000    0     1.008   -9.785002   15.183949    2.150508
  58 H     1.0000    0     1.008   -9.182179   15.696065   -1.130056
  59 H     1.0000    0     1.008   -0.627389    9.981533    0.130391
  60 H     1.0000    0     1.008   -4.580696    8.838249   -3.794570
  61 H     1.0000    0     1.008    0.343930    2.025786    0.009449
  62 H     1.0000    0     1.008   -0.345820   -2.040904   -0.039684
  63 H     1.0000    0     1.008  -11.081354   -9.376821    3.581031
  64 H     1.0000    0     1.008   -9.059347    4.293458    0.262672
  65 H     1.0000    0     1.008   -9.070685   -4.081808   -3.768114
  66 H     1.0000    0     1.008  -12.927616   -6.768999   -3.577252
  67 H     1.0000    0     1.008  -15.926612   -8.571798    1.031790
  68 H     1.0000    0     1.008  -15.034661  -10.085468   -1.853821
  69 H     1.0000    0     1.008  -14.089798  -11.408277    1.103600
  70 H     1.0000    0     1.008   -9.990982   -0.650066    0.188973
  71 H     1.0000    0     1.008   -7.143165   -6.804904    3.679297
  72 H     1.0000    0     1.008    6.778448  -12.978639   -3.482765
  73 H     1.0000    0     1.008   -4.301017   -9.021553   -0.094486
  74 H     1.0000    0     1.008    7.018443   -7.037340    3.639613
  75 H     1.0000    0     1.008    9.622485  -10.950963    3.535678
  76 H     1.0000    0     1.008   11.725751  -13.849803   -0.829590
  77 H     1.0000    0     1.008   10.191293  -14.960962    1.969095
  78 H     1.0000    0     1.008    8.993207  -15.822677   -1.065806
  79 H     1.0000    0     1.008    0.621720   -9.996651   -0.015118
  80 H     1.0000    0     1.008    4.055352   -9.150054   -3.666069
  81 H     1.0000    0     1.008   10.975529    9.422175   -3.696304
  82 H     1.0000    0     1.008    9.048009   -4.310465   -0.349599
  83 H     1.0000    0     1.008    9.184069    3.994881    3.613156
  84 H     1.0000    0     1.008   13.041000    6.672623    3.348595
  85 H     1.0000    0     1.008   13.951848   11.544337    0.672743
  86 H     1.0000    0     1.008   15.900156    8.791006    0.822031
  87 H     1.0000    0     1.008   14.968521   10.034446   -2.173185
  88 H     1.0000    0     1.008    9.983423    0.634948   -0.338261
  89 H     1.0000    0     1.008    7.029781    6.863485   -3.717091

--------------------------------
INTERNAL COORDINATES (ANGSTROEM)
--------------------------------
 C      0   0   0     0.000000000000     0.00000000     0.00000000
 C      1   0   0     5.670180332229     0.00000000     0.00000000
 C      1   2   0     2.413825387223    44.00121207     0.00000000
 C      3   1   2     1.403497417169    87.89572627   120.94838071
 C      4   3   1     1.380403926393   120.16953380     0.18147661
 C      5   4   3     2.447853345280   152.50929228     1.55110986
 C      2   1   3     1.368114030335    14.92982300   339.03578951
 C      7   2   3     1.434084376876   108.05010202     0.84668783
 C      2   1   3     1.434123425651   117.32772987    34.15354707
 C      1   2   3     1.382781978477    36.84179752   313.86713150
 N      1   2   3     1.352160493433   111.38559284    67.06377466
 N      9   2   1     1.376127174356   106.58526707   346.38142475
 N     12   9   2     2.925062050624   168.53581413   171.12065651
 N     13  12   9     2.954513327098    91.55032014    11.12112580
 N     14  13  12     2.925371258490    88.43092389   359.84326247
 C      8   7   2     1.404790019896   127.24786865   181.11170171
 C     13  12   9     1.366535034311    81.72106996   188.00453233
 C     14  13  12     5.758810554272    80.56209567   166.76250791
 C     17  13  12     1.459010623676   111.08861209   183.82872609
 C     18  14  13     2.412235892279    27.27532823    36.33507194
 C     20  18  14     1.402692767501    87.95206320   148.94598259
 C     21  20  18     1.382106725257   120.14573887   359.70382047
 C     18  14  13     2.446510985056   144.15733107    82.80075377
 C     19  17  13     1.353610726908   106.29293361   359.75308708
 C     13  12   9     1.366813447402   172.21332906    33.46711076
 C     18  14  13     1.380960173213    15.08449437   309.23336894
 N     22  21  20     1.352773077792   120.73759875     0.27865223
 C     25  13  17     1.410897586645   125.60330303   182.37774668
 C     14  13  12     1.376642291955    80.24689249   177.85461986
 C     14  13  12     5.764089607215   164.51507311   312.20821879
 C     29  14  13     1.435600919476   106.58649366   178.76395472
 C     30  14  13     2.413316804732    27.10625047    82.12560436
 C     32  30  14     1.403734305344    87.90059683   149.76154742
 C     33  32  30     1.380694028378   120.14881443   359.74174632
 C     34  33  32     2.448777858443   152.49203239     2.45173620
 C     31  29  14     1.368160809262   108.16950133     0.70383075
 C     14  13  12     1.376239804685   169.26375223   353.09862627
 C     30  14  13     1.380907310430    14.68948582   353.70041132
 N     34  33  32     1.352658863128   120.85575621     0.19603406
 C     37  14  29     1.404717053360   126.01551127   180.90772073
 C     15  14  13     1.366491126938    81.61824056   183.09049352
 C      2   1   3     4.249062720177   142.97239169   159.90976265
 C     41  15  14     1.459677704153   111.05201287   175.08990246
 C     42   2   1     2.412953791518    41.78584867   202.57483273
 C     44  42   2     1.403446472082    87.95153797   233.97558675
 C     45  44  42     1.381696421071   120.11137308     0.19721020
 C     42   2   1     2.450019795838   135.97209175   112.88968184
 C     43  41  15     1.354461516618   106.26758155     0.30894352
 C     15  14  13     1.367461151185   171.87382904   332.35056460
 C     42   2   1     1.381886391857    32.59078432   251.43011193
 C      9   2   1     1.404988612053   126.98745415   167.38576228
 N     42   2   1     1.352765315936   113.57249190   140.62627103
 H      1   2   3     1.082804229766   118.04634180   206.04374312
 H      2   1   3     1.079907866440   116.37253632   202.74245760
 H      4   3   1     1.083454659873   121.04734567   179.48818797
 H      5   4   3     1.082498498844   122.82036761   179.41717968
 H      6   5   4     1.091703714384   104.43013790   100.16280393
 H      6   5   4     1.090235295705    84.63330088   209.61228931
 H      6   5   4     1.089848154561   133.86989175   322.32170034
 H      7   2  54     1.079807853278   126.66122480     1.30600390
 H     10   1   2     1.083305127838   118.73961476   265.88946471
 H     12   9   2     1.016297692608   125.29023241   180.00180175
 H     14  13  12     1.014936943854    44.97226959   359.42596618
 H     18  14  13     1.082871645210   128.03556573   234.20482432
 H     19  17  13     1.080893611786   126.41830519   178.11313280
 H     21  20  18     1.083569563987   121.05669627   180.67006309
 H     22  21  20     1.082483256222   122.73097286   180.59748951
 H     23  18  14     1.092105306278   103.92715769   234.93429879
 H     23  18  14     1.088871893291   134.19244188    12.25587044
 H     23  18  14     1.089833473518    84.85857450   125.45241208
 H     24  19  17     1.080075460327   127.28078426   178.44613241
 H     26  18  14     1.083408048706   118.76995697   244.94906660
 H     30  14  13     1.082703098730   127.99711412   279.66882698
 H     31  29  14     1.079759695488   125.22293469   180.92530585
 H     33  32  30     1.083188810873   121.01964473   180.74284758
 H     34  33  32     1.082494341787   122.70821597   180.59516895
 H     35  34  33     1.092652735319   105.73575241    97.19771933
 H     35  34  33     1.089462711615    84.05943581   206.43036958
 H     35  34  33     1.089268102902   133.08365142   318.50306270
 H     36  31  29     1.079439669458   126.61599965   178.98859863
 H     38  30  73     1.083742127999   118.77264435   359.90091293
 H     42   2   1     1.082178358682   119.31790784   357.25780148
 H     43  41  15     1.080281907652   126.36969097   182.06329380
 H     45  44  42     1.083277434455   121.10105945   179.58025624
 H     46  45  44     1.082194529648   122.72144639   179.46906377
 H     47  42   2     1.091546151109   106.65128841   315.16475048
 H     47  42   2     1.088818625851   132.46019523    94.52397119
 H     47  42   2     1.089531091801    83.63838232   206.04504406
 H     48  43  41     1.080402239909   127.23657387   181.62955349
 H     50  42   2     1.083186502870   118.77001737    94.71359229

---------------------------
INTERNAL COORDINATES (A.U.)
---------------------------
 C      0   0   0     0.000000000000     0.00000000     0.00000000
 C      1   0   0    10.715087957860     0.00000000     0.00000000
 C      1   2   0     4.561468916957    44.00121207     0.00000000
 C      3   1   2     2.652225748115    87.89572627   120.94838071
 C      4   3   1     2.608585375072   120.16953380     0.18147661
 C      5   4   3     4.625772438583   152.50929228     1.55110986
 C      2   1   3     2.585360837309    14.92982300   339.03578951
 C      7   2   3     2.710026725231   108.05010202     0.84668783
 C      2   1   3     2.710100516721   117.32772987    34.15354707
 C      1   2   3     2.613079242243    36.84179752   313.86713150
 N      1   2   3     2.555213021696   111.38559284    67.06377466
 N      9   2   1     2.600503484979   106.58526707   346.38142475
 N     12   9   2     5.527566200405   168.53581413   171.12065651
 N     13  12   9     5.583221047236    91.55032014    11.12112580
 N     14  13  12     5.528150518591    88.43092389   359.84326247
 C      8   7   2     2.654668413270   127.24786865   181.11170171
 C     13  12   9     2.582376967257    81.72106996   188.00453233
 C     14  13  12    10.882574804710    80.56209567   166.76250791
 C     17  13  12     2.757130505230   111.08861209   183.82872609
 C     18  14  13     4.558465206823    27.27532823    36.33507194
 C     20  18  14     2.650705180609    87.95206320   148.94598259
 C     21  20  18     2.611803198586   120.14573887   359.70382047
 C     18  14  13     4.623235745386   144.15733107    82.80075377
 C     19  17  13     2.557953565794   106.29293361   359.75308708
 C     13  12   9     2.582903091751   172.21332906    33.46711076
 C     18  14  13     2.609636529225    15.08449437   309.23336894
 N     22  21  20     2.556370638369   120.73759875     0.27865223
 C     25  13  17     2.666210041769   125.60330303   182.37774668
 C     14  13  12     2.601476916169    80.24689249   177.85461986
 C     14  13  12    10.892550769017   164.51507311   312.20821879
 C     29  14  13     2.712892575415   106.58649366   178.76395472
 C     30  14  13     4.560507835333    27.10625047    82.12560436
 C     32  30  14     2.652673401891    87.90059683   149.76154742
 C     33  32  30     2.609133588376   120.14881443   359.74174632
 C     34  33  32     4.627519515267   152.49203239     2.45173620
 C     31  29  14     2.585449236669   108.16950133     0.70383075
 C     14  13  12     2.600716325456   169.26375223   353.09862627
 C     30  14  13     2.609536633043    14.68948582   353.70041132
 N     34  33  32     2.556154803934   120.85575621     0.19603406
 C     37  14  29     2.654530526499   126.01551127   180.90772073
 C     15  14  13     2.582293994346    81.61824056   183.09049352
 C      2   1   3     8.029564866989   142.97239169   159.90976265
 C     41  15  14     2.758391104639   111.05201287   175.08990246
 C     42   2   1     4.559821839776    41.78584867   202.57483273
 C     44  42   2     2.652129475853    87.95153797   233.97558675
 C     45  44  42     2.611027836043   120.11137308     0.19721020
 C     42   2   1     4.629866436820   135.97209175   112.88968184
 C     43  41  15     2.559561325344   106.26758155     0.30894352
 C     15  14  13     2.584127074516   171.87382904   332.35056460
 C     42   2   1     2.611386828803    32.59078432   251.43011193
 C      9   2   1     2.655043698059   126.98745415   167.38576228
 N     42   2   1     2.556355970587   113.57249190   140.62627103
 H      1   2   3     2.046203450910   118.04634180   206.04374312
 H      2   1   3     2.040730117440   116.37253632   202.74245760
 H      4   3   1     2.047432585680   121.04734567   179.48818797
 H      5   4   3     2.045625703196   122.82036761   179.41717968
 H      6   5   4     2.063021039570   104.43013790   100.16280393
 H      6   5   4     2.060246130416    84.63330088   209.61228931
 H      6   5   4     2.059514539680   133.86989175   322.32170034
 H      7   2  54     2.040541119952   126.66122480     1.30600390
 H     10   1   2     2.047150011086   118.73961476   265.88946471
 H     12   9   2     1.920524309565   125.29023241   180.00180175
 H     14  13  12     1.917952867083    44.97226959   359.42596618
 H     18  14  13     2.046330847636   128.03556573   234.20482432
 H     19  17  13     2.042592906181   126.41830519   178.11313280
 H     21  20  18     2.047649722989   121.05669627   180.67006309
 H     22  21  20     2.045596898814   122.73097286   180.59748951
 H     23  18  14     2.063779938267   103.92715769   234.93429879
 H     23  18  14     2.057669673245   134.19244188    12.25587044
 H     23  18  14     2.059486796529    84.85857450   125.45241208
 H     24  19  17     2.041046823986   127.28078426   178.44613241
 H     26  18  14     2.047344503340   118.76995697   244.94906660
 H     30  14  13     2.046012340948   127.99711412   279.66882698
 H     31  29  14     2.040450114918   125.22293469   180.92530585
 H     33  32  30     2.046930203877   121.01964473   180.74284758
 H     34  33  32     2.045617847496   122.70821597   180.59516895
 H     35  34  33     2.064814429233   105.73575241    97.19771933
 H     35  34  33     2.058786158072    84.05943581   206.43036958
 H     35  34  33     2.058418400901   133.08365142   318.50306270
 H     36  31  29     2.039845353366   126.61599965   178.98859863
 H     38  30  73     2.047975821711   118.77264435   359.90091293
 H     42   2   1     2.045020725966   119.31790784   357.25780148
 H     43  41  15     2.041436952892   126.36969097   182.06329380
 H     45  44  42     2.047097678177   121.10105945   179.58025624
 H     46  45  44     2.045051284662   122.72144639   179.46906377
 H     47  42   2     2.062723288131   106.65128841   315.16475048
 H     47  42   2     2.057569012371   132.46019523    94.52397119
 H     47  42   2     2.058915377895    83.63838232   206.04504406
 H     48  43  41     2.041664347903   127.23657387   181.62955349
 H     50  42   2     2.046925842384   118.77001737    94.71359229

---------------------
BASIS SET INFORMATION
---------------------
There are 3 groups of distinct atoms

 Group   1 Type C   : 17s4p1d contracted to 3s2p1d pattern {881/31/1}
 Group   2 Type N   : 17s4p1d contracted to 3s2p1d pattern {881/31/1}
 Group   3 Type H   : 4s1p contracted to 2s1p pattern {31/1}

Atom   0C    basis set group =>   1
Atom   1N    basis set group =>   2
Atom   2C    basis set group =>   1
Atom   3N    basis set group =>   2
Atom   4C    basis set group =>   1
Atom   5N    basis set group =>   2
Atom   6C    basis set group =>   1
Atom   7N    basis set group =>   2
Atom   8C    basis set group =>   1
Atom   9N    basis set group =>   2
Atom  10C    basis set group =>   1
Atom  11N    basis set group =>   2
Atom  12C    basis set group =>   1
Atom  13N    basis set group =>   2
Atom  14C    basis set group =>   1
Atom  15N    basis set group =>   2
Atom  16C    basis set group =>   1
Atom  17C    basis set group =>   1
Atom  18C    basis set group =>   1
Atom  19C    basis set group =>   1
Atom  20C    basis set group =>   1
Atom  21C    basis set group =>   1
Atom  22C    basis set group =>   1
Atom  23C    basis set group =>   1
Atom  24C    basis set group =>   1
Atom  25C    basis set group =>   1
Atom  26C    basis set group =>   1
Atom  27C    basis set group =>   1
Atom  28C    basis set group =>   1
Atom  29C    basis set group =>   1
Atom  30C    basis set group =>   1
Atom  31C    basis set group =>   1
Atom  32C    basis set group =>   1
Atom  33C    basis set group =>   1
Atom  34C    basis set group =>   1
Atom  35C    basis set group =>   1
Atom  36C    basis set group =>   1
Atom  37C    basis set group =>   1
Atom  38C    basis set group =>   1
Atom  39C    basis set group =>   1
Atom  40C    basis set group =>   1
Atom  41C    basis set group =>   1
Atom  42C    basis set group =>   1
Atom  43C    basis set group =>   1
Atom  44C    basis set group =>   1
Atom  45C    basis set group =>   1
Atom  46C    basis set group =>   1
Atom  47C    basis set group =>   1
Atom  48C    basis set group =>   1
Atom  49C    basis set group =>   1
Atom  50C    basis set group =>   1
Atom  51C    basis set group =>   1
Atom  52H    basis set group =>   3
Atom  53H    basis set group =>   3
Atom  54H    basis set group =>   3
Atom  55H    basis set group =>   3
Atom  56H    basis set group =>   3
Atom  57H    basis set group =>   3
Atom  58H    basis set group =>   3
Atom  59H    basis set group =>   3
Atom  60H    basis set group =>   3
Atom  61H    basis set group =>   3
Atom  62H    basis set group =>   3
Atom  63H    basis set group =>   3
Atom  64H    basis set group =>   3
Atom  65H    basis set group =>   3
Atom  66H    basis set group =>   3
Atom  67H    basis set group =>   3
Atom  68H    basis set group =>   3
Atom  69H    basis set group =>   3
Atom  70H    basis set group =>   3
Atom  71H    basis set group =>   3
Atom  72H    basis set group =>   3
Atom  73H    basis set group =>   3
Atom  74H    basis set group =>   3
Atom  75H    basis set group =>   3
Atom  76H    basis set group =>   3
Atom  77H    basis set group =>   3
Atom  78H    basis set group =>   3
Atom  79H    basis set group =>   3
Atom  80H    basis set group =>   3
Atom  81H    basis set group =>   3
Atom  82H    basis set group =>   3
Atom  83H    basis set group =>   3
Atom  84H    basis set group =>   3
Atom  85H    basis set group =>   3
Atom  86H    basis set group =>   3
Atom  87H    basis set group =>   3
Atom  88H    basis set group =>   3
Atom  89H    basis set group =>   3


           ************************************************************
           *        Program running with 16 parallel MPI-processes    *
           *              working on a common directory               *
           ************************************************************
------------------------------------------------------------------------------
                           ORCA GTO INTEGRAL CALCULATION
------------------------------------------------------------------------------
------------------------------------------------------------------------------
                   ___                                                        
                  /   \      - P O W E R E D   B Y -                         
                 /     \                                                     
                 |  |  |   _    _      __       _____    __    __             
                 |  |  |  | |  | |    /  \     |  _  \  |  |  /  |          
                  \  \/   | |  | |   /    \    | | | |  |  | /  /          
                 / \  \   | |__| |  /  /\  \   | |_| |  |  |/  /          
                |  |  |   |  __  | /  /__\  \  |    /   |      \           
                |  |  |   | |  | | |   __   |  |    \   |  |\   \          
                \     /   | |  | | |  |  |  |  | |\  \  |  | \   \       
                 \___/    |_|  |_| |__|  |__|  |_| \__\ |__|  \__/        
                                                                              
                      - O R C A' S   B I G   F R I E N D -                    
                                      &                                       
                       - I N T E G R A L  F E E D E R -                       
                                                                              
 v1 FN, 2020, v2 2021                                                         
------------------------------------------------------------------------------


Reading SHARK input file /scratch/allen/tmpyp4_amber_gaff2/conf1/conf1/Conf75.orca.SHARKINP.tmp ... ok
----------------------
SHARK INTEGRAL PACKAGE
----------------------

Number of atoms                             ...     90
Number of basis functions                   ...   1230
Number of shells                            ...    738
Maximum angular momentum                    ...      2
Integral batch strategy                     ... SHARK/LIBINT Hybrid
RI-J (if used) integral strategy            ... SPLIT-RIJ (Revised 2003 algorithm where possible)
Printlevel                                  ...      1
Contraction scheme used                     ... PARTIAL GENERAL contraction
Coulomb Range Separation                    ... NOT USED
Exchange Range Separation                   ... NOT USED
Finite Nucleus Model                        ... NOT USED
Auxiliary Coulomb fitting basis             ... NOT available
Auxiliary J/K fitting basis                 ... NOT available
Auxiliary Correlation fitting basis         ... NOT available
Auxiliary 'external' fitting basis          ... NOT available
Integral threshold                          ...     2.500000e-11
Primitive cut-off                           ...     2.500000e-12
Primitive pair pre-selection threshold      ...     2.500000e-12

Calculating pre-screening integrals         ... done (  0.1 sec) Dimension = 738
Calculating pre-screening integrals (ORCA)  ... done (  0.3 sec) Dimension = 426
Organizing shell pair data                  ... done (  0.5 sec)
Shell pair information
Total number of shell pairs                 ...    272691
Shell pairs after pre-screening             ...     71578
Total number of primitive shell pairs       ...    422091
Primitive shell pairs kept                  ...     92339
          la=0 lb=0:  29405 shell pairs
          la=1 lb=0:  25957 shell pairs
          la=1 lb=1:   4684 shell pairs
          la=2 lb=0:   7879 shell pairs
          la=2 lb=1:   3122 shell pairs
          la=2 lb=2:    531 shell pairs

Calculating one electron integrals          ... done (  0.2 sec)
Calculating Nuclear repulsion               ... done (  0.0 sec) ENN=   6222.787445332378 Eh

SHARK setup successfully completed in   1.7 seconds

Maximum memory used throughout the entire GTOINT-calculation: 99.0 MB


           ************************************************************
           *        Program running with 16 parallel MPI-processes    *
           *              working on a common directory               *
           ************************************************************
-------------------------------------------------------------------------------
                                 ORCA SCF
-------------------------------------------------------------------------------

------------
SCF SETTINGS
------------
Hamiltonian:
 Ab initio Hamiltonian  Method          .... Hartree-Fock(GTOs)


General Settings:
 Integral files         IntName         .... /scratch/allen/tmpyp4_amber_gaff2/conf1/conf1/Conf75.orca
 Hartree-Fock type      HFTyp           .... RHF
 Total Charge           Charge          ....    0
 Multiplicity           Mult            ....    1
 Number of Electrons    NEL             ....  358
 Basis Dimension        Dim             ....  918
 Nuclear Repulsion      ENuc            ....   6222.7874453324 Eh

Convergence Acceleration:
 DIIS                   CNVDIIS         .... on
   Start iteration      DIISMaxIt       ....    12
   Startup error        DIISStart       ....  0.200000
   # of expansion vecs  DIISMaxEq       ....     5
   Bias factor          DIISBfac        ....   1.050
   Max. coefficient     DIISMaxC        ....  10.000
 Trust-Rad. Augm. Hess. CNVTRAH         .... auto
   Auto Start mean grad. ratio tolernc. ....  1.125000
   Auto Start start iteration           ....    20
   Auto Start num. interpolation iter.  ....    10
   Max. Number of Micro iterations      ....    16
   Max. Number of Macro iterations      .... Maxiter - #DIIS iter
   Number of Davidson start vectors     ....     2
   Converg. threshold I  (grad. norm)   ....   1.000e-05
   Converg. threshold II (energy diff.) ....   1.000e-08
   Grad. Scal. Fac. for Micro threshold ....   0.100
   Minimum threshold for Micro iter.    ....   0.010
   NR start threshold (gradient norm)   ....   0.001
   Initial trust radius                 ....   0.400
   Minimum AH scaling param. (alpha)    ....   1.000
   Maximum AH scaling param. (alpha)    .... 1000.000
   Orbital update algorithm             .... Taylor
   White noise on init. David. guess    .... on
   Maximum white noise                  ....   0.010
   Quad. conv. algorithm                .... NR
 SOSCF                  CNVSOSCF        .... on
   Start iteration      SOSCFMaxIt      ....   150
   Startup grad/error   SOSCFStart      ....  0.003300
 Level Shifting         CNVShift        .... on
   Level shift para.    LevelShift      ....    0.2500
   Turn off err/grad.   ShiftErr        ....    0.0010
 Zerner damping         CNVZerner       .... off
 Static damping         CNVDamp         .... on
   Fraction old density DampFac         ....    0.7000
   Max. Damping (<1)    DampMax         ....    0.9800
   Min. Damping (>=0)   DampMin         ....    0.0000
   Turn off err/grad.   DampErr         ....    0.1000
 Fernandez-Rico         CNVRico         .... off

SCF Procedure:
 Maximum # iterations   MaxIter         ....   125
 SCF integral mode      SCFMode         .... Direct
   Integral package                     .... SHARK and LIBINT hybrid scheme
 Reset frequency        DirectResetFreq ....    20
 Integral Threshold     Thresh          ....  2.500e-11 Eh
 Primitive CutOff       TCut            ....  2.500e-12 Eh

Convergence Tolerance:
 Convergence Check Mode ConvCheckMode   .... Total+1el-Energy
 Convergence forced     ConvForced      .... 1
 Energy Change          TolE            ....  1.000e-08 Eh
 1-El. energy change                    ....  1.000e-05 Eh
 Orbital Gradient       TolG            ....  1.000e-05
 Orbital Rotation angle TolX            ....  1.000e-05
 DIIS Error             TolErr          ....  5.000e-07


Diagonalization of the overlap matrix:
Smallest eigenvalue                        ... 2.259e-04
Time for diagonalization                   ...    0.393 sec
Threshold for overlap eigenvalues          ... 1.000e-08
Number of eigenvalues below threshold      ... 0
Time for construction of square roots      ...    0.188 sec
Total time needed                          ...    0.587 sec

Time for model grid setup =    1.019 sec

------------------------------
INITIAL GUESS: MODEL POTENTIAL
------------------------------
Loading Hartree-Fock densities                     ... done
Calculating cut-offs                               ... done
Initializing the effective Hamiltonian             ... done
Setting up the integral package (SHARK)            ... done
Starting the Coulomb interaction                   ... done (   1.1 sec)
Reading the grid                                   ... done
Mapping shells                                     ... done
Starting the XC term evaluation                    ... done (   0.2 sec)
Transforming the Hamiltonian                       ... done (   0.2 sec)
Diagonalizing the Hamiltonian                      ... done (   0.3 sec)
Back transforming the eigenvectors                 ... done (   0.1 sec)
Now organizing SCF variables                       ... done
                      ------------------
                      INITIAL GUESS DONE (   2.9 sec)
                      ------------------
--------------
SCF ITERATIONS
--------------
ITER       Energy         Delta-E        Max-DP      RMS-DP      [F,P]     Damp
               ***  Starting incremental Fock matrix formation  ***
  0  -2121.6485698085   0.000000000000 0.06928272  0.00121282  0.2345181 0.7000
  1  -2122.3173428393  -0.668773030860 0.05263888  0.00098355  0.1450090 0.7000
                               ***Turning on DIIS***
  2  -2122.7331974738  -0.415854634499 0.11709966  0.00222481  0.0804816 0.0000
  3  -2117.7074815872   5.025715886672 0.03408906  0.00068877  0.0443987 0.0000
  4  -2123.4021488885  -5.694667301310 0.00897393  0.00023058  0.0071630 0.0000
  5  -2123.5808727881  -0.178723899600 0.00521265  0.00013841  0.0050640 0.0000
  6  -2123.5624601892   0.018412598840 0.00388784  0.00009298  0.0022294 0.0000
  7  -2123.6691045718  -0.106644382569 0.00340355  0.00007671  0.0017139 0.0000
  8  -2123.6971509968  -0.028046424975 0.00320543  0.00007618  0.0015997 0.0000
  9  -2123.6563968628   0.040754133950 0.00274976  0.00005455  0.0012652 0.0000
 10  -2123.6791559272  -0.022759064379 0.00720107  0.00012399  0.0009550 0.0000
                      *** Initiating the SOSCF procedure ***
                           *** Shutting down DIIS ***
                      *** Re-Reading the Fockian *** 
                      *** Removing any level shift *** 
ITER      Energy       Delta-E        Grad      Rot      Max-DP    RMS-DP
 11  -2123.51356609   0.1655898328  0.000234  0.000234  0.000251  0.000006
               *** Restarting incremental Fock matrix formation ***
 12  -2123.61315408  -0.0995879892  0.001061  0.009126  0.001880  0.000044
 13  -2123.61332175  -0.0001676684  0.001237  0.037481  0.010183  0.000167
 14  -2123.61363278  -0.0003110254  0.000387  0.005540  0.001728  0.000027
 15  -2123.61367324  -0.0000404606  0.000377  0.013703  0.003857  0.000061
 16  -2123.61372141  -0.0000481756  0.000224  0.005752  0.001114  0.000026
 17  -2123.61373868  -0.0000172669  0.000320  0.007462  0.001479  0.000029
 18  -2123.61375528  -0.0000165983  0.000207  0.005472  0.001202  0.000020
 19  -2123.61376244  -0.0000071576  0.000128  0.002481  0.000520  0.000008
 20  -2123.61376459  -0.0000021504  0.000089  0.001963  0.000411  0.000007
 21  -2123.61376627  -0.0000016825  0.000066  0.002106  0.000355  0.000008
 22  -2123.61376740  -0.0000011350  0.000047  0.001351  0.000218  0.000005
 23  -2123.61376790  -0.0000004984  0.000034  0.000973  0.000184  0.000004
 24  -2123.61376816  -0.0000002614  0.000015  0.000386  0.000083  0.000002
 25  -2123.61376825  -0.0000000894  0.000015  0.000312  0.000077  0.000001
 26  -2123.61376830  -0.0000000448  0.000013  0.000432  0.000105  0.000002
 27  -2123.61376834  -0.0000000379  0.000011  0.000351  0.000083  0.000001
 28  -2123.61376836  -0.0000000223  0.000009  0.000277  0.000058  0.000001
 29  -2123.61376837  -0.0000000137  0.000005  0.000100  0.000020  0.000000
                  ***Gradient check signals convergence***
              ***Rediagonalizing the Fockian in SOSCF/NRSCF***

               *****************************************************
               *                     SUCCESS                       *
               *           SCF CONVERGED AFTER  30 CYCLES          *
               *****************************************************


----------------
TOTAL SCF ENERGY
----------------

Total Energy       :        -2123.61376837 Eh          -57786.46844 eV

Components:
Nuclear Repulsion  :         6222.78744533 Eh          169330.65499 eV
Electronic Energy  :        -8346.40121371 Eh         -227117.12344 eV
One Electron Energy:       -15286.98290372 Eh         -415979.95282 eV
Two Electron Energy:         6940.58169002 Eh          188862.82939 eV

Virial components:
Potential Energy   :        -4245.60163029 Eh         -115528.69373 eV
Kinetic Energy     :         2121.98786192 Eh           57742.22528 eV
Virial Ratio       :            2.00076622


---------------
SCF CONVERGENCE
---------------

  Last Energy change         ...   -2.2465e-09  Tolerance :   1.0000e-08
  Last MAX-Density change    ...    1.0537e-05  Tolerance :   1.0000e-07
  Last RMS-Density change    ...    2.1483e-07  Tolerance :   5.0000e-09
  Last Orbital Gradient      ...    2.4827e-06  Tolerance :   1.0000e-05
  Last Orbital Rotation      ...    3.9895e-05  Tolerance :   1.0000e-05

             **** THE GBW FILE WAS UPDATED (/scratch/allen/tmpyp4_amber_gaff2/conf1/conf1/Conf75.orca.gbw) ****
             **** DENSITY /scratch/allen/tmpyp4_amber_gaff2/conf1/conf1/Conf75.orca.scfp WAS UPDATED ****
             **** ENERGY FILE WAS UPDATED (/scratch/allen/tmpyp4_amber_gaff2/conf1/conf1/Conf75.orca.en.tmp) ****
             **** THE GBW FILE WAS UPDATED (/scratch/allen/tmpyp4_amber_gaff2/conf1/conf1/Conf75.orca.gbw) ****
             **** DENSITY /scratch/allen/tmpyp4_amber_gaff2/conf1/conf1/Conf75.orca.scfp WAS UPDATED ****
----------------
ORBITAL ENERGIES
----------------

  NO   OCC          E(Eh)            E(eV) 
   0   2.0000     -15.682298      -426.7370 
   1   2.0000     -15.634698      -425.4418 
   2   2.0000     -15.624093      -425.1532 
   3   2.0000     -15.597215      -424.4218 
   4   2.0000     -15.519104      -422.2963 
   5   2.0000     -15.509152      -422.0255 
   6   2.0000     -15.448172      -420.3661 
   7   2.0000     -15.432975      -419.9526 
   8   2.0000     -11.329625      -308.2948 
   9   2.0000     -11.328406      -308.2616 
  10   2.0000     -11.327807      -308.2453 
  11   2.0000     -11.299939      -307.4870 
  12   2.0000     -11.293664      -307.3162 
  13   2.0000     -11.292995      -307.2980 
  14   2.0000     -11.287536      -307.1495 
  15   2.0000     -11.284519      -307.0674 
  16   2.0000     -11.280713      -306.9638 
  17   2.0000     -11.278014      -306.8904 
  18   2.0000     -11.276313      -306.8441 
  19   2.0000     -11.263618      -306.4986 
  20   2.0000     -11.263096      -306.4844 
  21   2.0000     -11.260425      -306.4117 
  22   2.0000     -11.257475      -306.3315 
  23   2.0000     -11.238095      -305.8041 
  24   2.0000     -11.230872      -305.6076 
  25   2.0000     -11.229993      -305.5836 
  26   2.0000     -11.228291      -305.5373 
  27   2.0000     -11.223020      -305.3939 
  28   2.0000     -11.222753      -305.3866 
  29   2.0000     -11.204406      -304.8874 
  30   2.0000     -11.204081      -304.8785 
  31   2.0000     -11.203848      -304.8722 
  32   2.0000     -11.203203      -304.8546 
  33   2.0000     -11.202338      -304.8311 
  34   2.0000     -11.186538      -304.4012 
  35   2.0000     -11.186179      -304.3914 
  36   2.0000     -11.185464      -304.3720 
  37   2.0000     -11.184667      -304.3503 
  38   2.0000     -11.184083      -304.3344 
  39   2.0000     -11.168057      -303.8983 
  40   2.0000     -11.166676      -303.8607 
  41   2.0000     -11.163509      -303.7745 
  42   2.0000     -11.160404      -303.6900 
  43   2.0000     -11.159161      -303.6562 
  44   2.0000     -11.154506      -303.5295 
  45   2.0000     -11.154385      -303.5262 
  46   2.0000     -11.154276      -303.5233 
  47   2.0000     -11.148967      -303.3788 
  48   2.0000     -11.146456      -303.3105 
  49   2.0000     -11.139977      -303.1342 
  50   2.0000     -11.126333      -302.7629 
  51   2.0000     -11.122618      -302.6618 
  52   2.0000      -1.361439       -37.0466 
  53   2.0000      -1.321882       -35.9702 
  54   2.0000      -1.312380       -35.7117 
  55   2.0000      -1.289663       -35.0935 
  56   2.0000      -1.220068       -33.1997 
  57   2.0000      -1.205576       -32.8054 
  58   2.0000      -1.169767       -31.8310 
  59   2.0000      -1.145097       -31.1597 
  60   2.0000      -1.142515       -31.0894 
  61   2.0000      -1.110058       -30.2062 
  62   2.0000      -1.101787       -29.9812 
  63   2.0000      -1.082224       -29.4488 
  64   2.0000      -1.081641       -29.4329 
  65   2.0000      -1.045868       -28.4595 
  66   2.0000      -1.038865       -28.2690 
  67   2.0000      -1.037061       -28.2199 
  68   2.0000      -1.015917       -27.6445 
  69   2.0000      -1.013373       -27.5753 
  70   2.0000      -1.005782       -27.3687 
  71   2.0000      -0.988864       -26.9084 
  72   2.0000      -0.985141       -26.8070 
  73   2.0000      -0.977951       -26.6114 
  74   2.0000      -0.968177       -26.3454 
  75   2.0000      -0.959533       -26.1102 
  76   2.0000      -0.951247       -25.8847 
  77   2.0000      -0.945154       -25.7189 
  78   2.0000      -0.927329       -25.2339 
  79   2.0000      -0.918587       -24.9960 
  80   2.0000      -0.909223       -24.7412 
  81   2.0000      -0.888889       -24.1879 
  82   2.0000      -0.874723       -23.8024 
  83   2.0000      -0.870257       -23.6809 
  84   2.0000      -0.864207       -23.5163 
  85   2.0000      -0.851494       -23.1703 
  86   2.0000      -0.842617       -22.9288 
  87   2.0000      -0.831741       -22.6328 
  88   2.0000      -0.822317       -22.3764 
  89   2.0000      -0.796127       -21.6637 
  90   2.0000      -0.792043       -21.5526 
  91   2.0000      -0.752595       -20.4791 
  92   2.0000      -0.734131       -19.9767 
  93   2.0000      -0.727255       -19.7896 
  94   2.0000      -0.721289       -19.6273 
  95   2.0000      -0.716964       -19.5096 
  96   2.0000      -0.714267       -19.4362 
  97   2.0000      -0.707702       -19.2576 
  98   2.0000      -0.699289       -19.0286 
  99   2.0000      -0.695472       -18.9247 
 100   2.0000      -0.693917       -18.8824 
 101   2.0000      -0.684933       -18.6380 
 102   2.0000      -0.682744       -18.5784 
 103   2.0000      -0.676793       -18.4165 
 104   2.0000      -0.672217       -18.2919 
 105   2.0000      -0.669008       -18.2046 
 106   2.0000      -0.666604       -18.1392 
 107   2.0000      -0.655781       -17.8447 
 108   2.0000      -0.653749       -17.7894 
 109   2.0000      -0.650797       -17.7091 
 110   2.0000      -0.646657       -17.5964 
 111   2.0000      -0.646326       -17.5874 
 112   2.0000      -0.646079       -17.5807 
 113   2.0000      -0.639361       -17.3979 
 114   2.0000      -0.634163       -17.2565 
 115   2.0000      -0.627743       -17.0818 
 116   2.0000      -0.622593       -16.9416 
 117   2.0000      -0.615792       -16.7565 
 118   2.0000      -0.612746       -16.6737 
 119   2.0000      -0.612403       -16.6643 
 120   2.0000      -0.609025       -16.5724 
 121   2.0000      -0.604882       -16.4597 
 122   2.0000      -0.594913       -16.1884 
 123   2.0000      -0.588723       -16.0200 
 124   2.0000      -0.585166       -15.9232 
 125   2.0000      -0.581754       -15.8303 
 126   2.0000      -0.575973       -15.6730 
 127   2.0000      -0.573908       -15.6168 
 128   2.0000      -0.570807       -15.5325 
 129   2.0000      -0.559083       -15.2134 
 130   2.0000      -0.555759       -15.1230 
 131   2.0000      -0.547613       -14.9013 
 132   2.0000      -0.545312       -14.8387 
 133   2.0000      -0.538586       -14.6557 
 134   2.0000      -0.534941       -14.5565 
 135   2.0000      -0.531803       -14.4711 
 136   2.0000      -0.520713       -14.1693 
 137   2.0000      -0.518019       -14.0960 
 138   2.0000      -0.513796       -13.9811 
 139   2.0000      -0.512674       -13.9506 
 140   2.0000      -0.510442       -13.8898 
 141   2.0000      -0.507952       -13.8221 
 142   2.0000      -0.503000       -13.6873 
 143   2.0000      -0.500071       -13.6076 
 144   2.0000      -0.496338       -13.5060 
 145   2.0000      -0.493979       -13.4418 
 146   2.0000      -0.493425       -13.4268 
 147   2.0000      -0.483418       -13.1545 
 148   2.0000      -0.481110       -13.0917 
 149   2.0000      -0.464559       -12.6413 
 150   2.0000      -0.463110       -12.6019 
 151   2.0000      -0.456214       -12.4142 
 152   2.0000      -0.449700       -12.2370 
 153   2.0000      -0.442014       -12.0278 
 154   2.0000      -0.439174       -11.9505 
 155   2.0000      -0.437668       -11.9095 
 156   2.0000      -0.426587       -11.6080 
 157   2.0000      -0.420260       -11.4359 
 158   2.0000      -0.402893       -10.9633 
 159   2.0000      -0.387210       -10.5365 
 160   2.0000      -0.382550       -10.4097 
 161   2.0000      -0.372998       -10.1498 
 162   2.0000      -0.359911        -9.7937 
 163   2.0000      -0.356863        -9.7107 
 164   2.0000      -0.349374        -9.5070 
 165   2.0000      -0.339114        -9.2278 
 166   2.0000      -0.337241        -9.1768 
 167   2.0000      -0.331291        -9.0149 
 168   2.0000      -0.318751        -8.6737 
 169   2.0000      -0.299421        -8.1477 
 170   2.0000      -0.298642        -8.1265 
 171   2.0000      -0.285305        -7.7636 
 172   2.0000      -0.281255        -7.6533 
 173   2.0000      -0.262047        -7.1307 
 174   2.0000      -0.237254        -6.4560 
 175   2.0000      -0.185061        -5.0358 
 176   2.0000      -0.174990        -4.7617 
 177   2.0000      -0.062727        -1.7069 
 178   2.0000      -0.051404        -1.3988 
 179   0.0000       0.033952         0.9239 
 180   0.0000       0.062326         1.6960 
 181   0.0000       0.091326         2.4851 
 182   0.0000       0.096661         2.6303 
 183   0.0000       0.107235         2.9180 
 184   0.0000       0.137483         3.7411 
 185   0.0000       0.141016         3.8372 
 186   0.0000       0.145249         3.9524 
 187   0.0000       0.161920         4.4061 
 188   0.0000       0.164541         4.4774 
 189   0.0000       0.165499         4.5035 
 190   0.0000       0.170406         4.6370 
 191   0.0000       0.180299         4.9062 
 192   0.0000       0.183770         5.0006 
 193   0.0000       0.184630         5.0240 
 194   0.0000       0.203681         5.5425 
 195   0.0000       0.208847         5.6830 
 196   0.0000       0.209960         5.7133 
 197   0.0000       0.214529         5.8376 
 198   0.0000       0.216801         5.8995 
 199   0.0000       0.225307         6.1309 
 200   0.0000       0.228428         6.2159 
 201   0.0000       0.233856         6.3635 
 202   0.0000       0.238892         6.5006 
 203   0.0000       0.243777         6.6335 
 204   0.0000       0.246291         6.7019 
 205   0.0000       0.254413         6.9229 
 206   0.0000       0.255892         6.9632 
 207   0.0000       0.257791         7.0148 
 208   0.0000       0.260375         7.0852 
 209   0.0000       0.262574         7.1450 
 210   0.0000       0.265448         7.2232 
 211   0.0000       0.265911         7.2358 
 212   0.0000       0.267993         7.2925 
 213   0.0000       0.272422         7.4130 
 214   0.0000       0.276055         7.5118 
 215   0.0000       0.277708         7.5568 
 216   0.0000       0.279865         7.6155 
 217   0.0000       0.284593         7.7442 
 218   0.0000       0.287187         7.8147 
 219   0.0000       0.288405         7.8479 
 220   0.0000       0.292234         7.9521 
 221   0.0000       0.294809         8.0222 
 222   0.0000       0.295948         8.0532 
 223   0.0000       0.297327         8.0907 
 224   0.0000       0.297632         8.0990 
 225   0.0000       0.302814         8.2400 
 226   0.0000       0.303913         8.2699 
 227   0.0000       0.305353         8.3091 
 228   0.0000       0.310854         8.4588 
 229   0.0000       0.314344         8.5537 
 230   0.0000       0.319738         8.7005 
 231   0.0000       0.323105         8.7921 
 232   0.0000       0.325560         8.8589 
 233   0.0000       0.330447         8.9919 
 234   0.0000       0.335243         9.1224 
 235   0.0000       0.348817         9.4918 
 236   0.0000       0.358443         9.7537 
 237   0.0000       0.371304        10.1037 
 238   0.0000       0.392725        10.6866 
 239   0.0000       0.397310        10.8113 
 240   0.0000       0.402022        10.9396 
 241   0.0000       0.409575        11.1451 
 242   0.0000       0.410370        11.1667 
 243   0.0000       0.417431        11.3589 
 244   0.0000       0.424345        11.5470 
 245   0.0000       0.430957        11.7269 
 246   0.0000       0.435010        11.8372 
 247   0.0000       0.440244        11.9797 
 248   0.0000       0.441239        12.0067 
 249   0.0000       0.446302        12.1445 
 250   0.0000       0.447911        12.1883 
 251   0.0000       0.455557        12.3963 
 252   0.0000       0.459179        12.4949 
 253   0.0000       0.465611        12.6699 
 254   0.0000       0.470207        12.7950 
 255   0.0000       0.476893        12.9769 
 256   0.0000       0.478389        13.0176 
 257   0.0000       0.485490        13.2109 
 258   0.0000       0.487719        13.2715 
 259   0.0000       0.495802        13.4915 
 260   0.0000       0.501032        13.6338 
 261   0.0000       0.503930        13.7126 
 262   0.0000       0.505641        13.7592 
 263   0.0000       0.507518        13.8103 
 264   0.0000       0.513143        13.9633 
 265   0.0000       0.517423        14.0798 
 266   0.0000       0.523146        14.2355 
 267   0.0000       0.527725        14.3601 
 268   0.0000       0.528317        14.3762 
 269   0.0000       0.537223        14.6186 
 270   0.0000       0.542604        14.7650 
 271   0.0000       0.545283        14.8379 
 272   0.0000       0.547050        14.8860 
 273   0.0000       0.555901        15.1268 
 274   0.0000       0.559908        15.2359 
 275   0.0000       0.564787        15.3686 
 276   0.0000       0.567597        15.4451 
 277   0.0000       0.568624        15.4730 
 278   0.0000       0.578712        15.7476 
 279   0.0000       0.581245        15.8165 
 280   0.0000       0.588963        16.0265 
 281   0.0000       0.592267        16.1164 
 282   0.0000       0.594259        16.1706 
 283   0.0000       0.597179        16.2501 
 284   0.0000       0.601021        16.3546 
 285   0.0000       0.601848        16.3771 
 286   0.0000       0.607871        16.5410 
 287   0.0000       0.613276        16.6881 
 288   0.0000       0.616107        16.7651 
 289   0.0000       0.618685        16.8353 
 290   0.0000       0.622778        16.9467 
 291   0.0000       0.625593        17.0232 
 292   0.0000       0.629568        17.1314 
 293   0.0000       0.633218        17.2307 
 294   0.0000       0.644952        17.5500 
 295   0.0000       0.648556        17.6481 
 296   0.0000       0.654630        17.8134 
 297   0.0000       0.659052        17.9337 
 298   0.0000       0.662889        18.0381 
 299   0.0000       0.666139        18.1266 
 300   0.0000       0.670162        18.2360 
 301   0.0000       0.671976        18.2854 
 302   0.0000       0.675825        18.3901 
 303   0.0000       0.677528        18.4365 
 304   0.0000       0.682428        18.5698 
 305   0.0000       0.683693        18.6042 
 306   0.0000       0.686918        18.6920 
 307   0.0000       0.687894        18.7185 
 308   0.0000       0.690289        18.7837 
 309   0.0000       0.695276        18.9194 
 310   0.0000       0.700160        19.0523 
 311   0.0000       0.703500        19.1432 
 312   0.0000       0.708469        19.2784 
 313   0.0000       0.710570        19.3356 
 314   0.0000       0.711785        19.3687 
 315   0.0000       0.714224        19.4350 
 316   0.0000       0.715854        19.4794 
 317   0.0000       0.719325        19.5738 
 318   0.0000       0.721265        19.6266 
 319   0.0000       0.724516        19.7151 
 320   0.0000       0.727397        19.7935 
 321   0.0000       0.728744        19.8301 
 322   0.0000       0.731515        19.9055 
 323   0.0000       0.732217        19.9246 
 324   0.0000       0.737424        20.0663 
 325   0.0000       0.740537        20.1510 
 326   0.0000       0.741736        20.1837 
 327   0.0000       0.743256        20.2250 
 328   0.0000       0.751250        20.4425 
 329   0.0000       0.752461        20.4755 
 330   0.0000       0.756001        20.5718 
 331   0.0000       0.756654        20.5896 
 332   0.0000       0.759952        20.6794 
 333   0.0000       0.763310        20.7707 
 334   0.0000       0.764611        20.8061 
 335   0.0000       0.769125        20.9290 
 336   0.0000       0.774793        21.0832 
 337   0.0000       0.778977        21.1970 
 338   0.0000       0.783727        21.3263 
 339   0.0000       0.787038        21.4164 
 340   0.0000       0.789092        21.4723 
 341   0.0000       0.790059        21.4986 
 342   0.0000       0.792134        21.5551 
 343   0.0000       0.797722        21.7071 
 344   0.0000       0.799322        21.7507 
 345   0.0000       0.807023        21.9602 
 346   0.0000       0.809726        22.0338 
 347   0.0000       0.811764        22.0892 
 348   0.0000       0.813142        22.1267 
 349   0.0000       0.814882        22.1741 
 350   0.0000       0.818571        22.2745 
 351   0.0000       0.819066        22.2879 
 352   0.0000       0.823229        22.4012 
 353   0.0000       0.824613        22.4389 
 354   0.0000       0.826828        22.4991 
 355   0.0000       0.831364        22.6226 
 356   0.0000       0.834102        22.6971 
 357   0.0000       0.835040        22.7226 
 358   0.0000       0.837814        22.7981 
 359   0.0000       0.839974        22.8569 
 360   0.0000       0.842673        22.9303 
 361   0.0000       0.845723        23.0133 
 362   0.0000       0.846575        23.0365 
 363   0.0000       0.847982        23.0748 
 364   0.0000       0.850080        23.1319 
 365   0.0000       0.852508        23.1979 
 366   0.0000       0.853910        23.2361 
 367   0.0000       0.857679        23.3386 
 368   0.0000       0.860410        23.4130 
 369   0.0000       0.864564        23.5260 
 370   0.0000       0.864820        23.5330 
 371   0.0000       0.868653        23.6373 
 372   0.0000       0.871472        23.7140 
 373   0.0000       0.872525        23.7426 
 374   0.0000       0.877663        23.8824 
 375   0.0000       0.878609        23.9082 
 376   0.0000       0.882221        24.0065 
 377   0.0000       0.885711        24.1014 
 378   0.0000       0.889586        24.2069 
 379   0.0000       0.891684        24.2640 
 380   0.0000       0.893081        24.3020 
 381   0.0000       0.894313        24.3355 
 382   0.0000       0.900676        24.5086 
 383   0.0000       0.904102        24.6019 
 384   0.0000       0.904838        24.6219 
 385   0.0000       0.906368        24.6635 
 386   0.0000       0.907998        24.7079 
 387   0.0000       0.912613        24.8335 
 388   0.0000       0.914951        24.8971 
 389   0.0000       0.917710        24.9722 
 390   0.0000       0.921981        25.0884 
 391   0.0000       0.922519        25.1030 
 392   0.0000       0.924724        25.1630 
 393   0.0000       0.927879        25.2489 
 394   0.0000       0.928499        25.2657 
 395   0.0000       0.932141        25.3648 
 396   0.0000       0.933231        25.3945 
 397   0.0000       0.935222        25.4487 
 398   0.0000       0.939387        25.5620 
 399   0.0000       0.942285        25.6409 
 400   0.0000       0.946281        25.7496 
 401   0.0000       0.949425        25.8352 
 402   0.0000       0.952860        25.9286 
 403   0.0000       0.955392        25.9975 
 404   0.0000       0.956784        26.0354 
 405   0.0000       0.958029        26.0693 
 406   0.0000       0.960705        26.1421 
 407   0.0000       0.964690        26.2505 
 408   0.0000       0.967048        26.3147 
 409   0.0000       0.969677        26.3862 
 410   0.0000       0.975330        26.5401 
 411   0.0000       0.978943        26.6384 
 412   0.0000       0.985649        26.8209 
 413   0.0000       0.992717        27.0132 
 414   0.0000       0.994239        27.0546 
 415   0.0000       0.995038        27.0764 
 416   0.0000       0.999579        27.1999 
 417   0.0000       1.001990        27.2655 
 418   0.0000       1.008245        27.4357 
 419   0.0000       1.016545        27.6616 
 420   0.0000       1.021880        27.8068 
 421   0.0000       1.028577        27.9890 
 422   0.0000       1.033362        28.1192 
 423   0.0000       1.035980        28.1905 
 424   0.0000       1.040390        28.3105 
 425   0.0000       1.049732        28.5646 
 426   0.0000       1.052921        28.6514 
 427   0.0000       1.060359        28.8538 
 428   0.0000       1.070385        29.1267 
 429   0.0000       1.075581        29.2680 
 430   0.0000       1.077521        29.3208 
 431   0.0000       1.083213        29.4757 
 432   0.0000       1.085236        29.5308 
 433   0.0000       1.090864        29.6839 
 434   0.0000       1.092498        29.7284 
 435   0.0000       1.099808        29.9273 
 436   0.0000       1.106504        30.1095 
 437   0.0000       1.110972        30.2311 
 438   0.0000       1.115226        30.3468 
 439   0.0000       1.116840        30.3908 
 440   0.0000       1.118380        30.4327 
 441   0.0000       1.121214        30.5098 
 442   0.0000       1.128183        30.6994 
 443   0.0000       1.130890        30.7731 
 444   0.0000       1.132982        30.8300 
 445   0.0000       1.137939        30.9649 
 446   0.0000       1.139055        30.9953 
 447   0.0000       1.142225        31.0815 
 448   0.0000       1.145389        31.1676 
 449   0.0000       1.147796        31.2331 
 450   0.0000       1.152782        31.3688 
 451   0.0000       1.156755        31.4769 
 452   0.0000       1.158853        31.5340 
 453   0.0000       1.160642        31.5827 
 454   0.0000       1.163300        31.6550 
 455   0.0000       1.166146        31.7325 
 456   0.0000       1.169489        31.8234 
 457   0.0000       1.176887        32.0247 
 458   0.0000       1.181305        32.1449 
 459   0.0000       1.187483        32.3131 
 460   0.0000       1.189718        32.3739 
 461   0.0000       1.192063        32.4377 
 462   0.0000       1.201951        32.7068 
 463   0.0000       1.202914        32.7330 
 464   0.0000       1.209529        32.9130 
 465   0.0000       1.211061        32.9546 
 466   0.0000       1.211970        32.9794 
 467   0.0000       1.214901        33.0591 
 468   0.0000       1.225484        33.3471 
 469   0.0000       1.227574        33.4040 
 470   0.0000       1.227624        33.4053 
 471   0.0000       1.231786        33.5186 
 472   0.0000       1.234110        33.5818 
 473   0.0000       1.240291        33.7500 
 474   0.0000       1.242239        33.8030 
 475   0.0000       1.245379        33.8885 
 476   0.0000       1.248602        33.9762 
 477   0.0000       1.249622        34.0039 
 478   0.0000       1.253890        34.1201 
 479   0.0000       1.255943        34.1760 
 480   0.0000       1.260403        34.2973 
 481   0.0000       1.263269        34.3753 
 482   0.0000       1.269300        34.5394 
 483   0.0000       1.271178        34.5905 
 484   0.0000       1.273849        34.6632 
 485   0.0000       1.274953        34.6932 
 486   0.0000       1.277435        34.7608 
 487   0.0000       1.284554        34.9545 
 488   0.0000       1.287273        35.0285 
 489   0.0000       1.292926        35.1823 
 490   0.0000       1.295711        35.2581 
 491   0.0000       1.297277        35.3007 
 492   0.0000       1.306580        35.5538 
 493   0.0000       1.308986        35.6193 
 494   0.0000       1.310683        35.6655 
 495   0.0000       1.315427        35.7946 
 496   0.0000       1.316921        35.8352 
 497   0.0000       1.322873        35.9972 
 498   0.0000       1.325337        36.0643 
 499   0.0000       1.331396        36.2291 
 500   0.0000       1.335105        36.3301 
 501   0.0000       1.339041        36.4372 
 502   0.0000       1.341883        36.5145 
 503   0.0000       1.342467        36.5304 
 504   0.0000       1.343925        36.5701 
 505   0.0000       1.349700        36.7272 
 506   0.0000       1.351060        36.7642 
[...]
      pz      :     0.021817  p :     0.079339
      px      :     0.042956
      py      :     0.014566
 77 H s       :     0.893997  s :     0.893997
      pz      :     0.047241  p :     0.078470
      px      :     0.015005
      py      :     0.016224
 78 H s       :     0.894371  s :     0.894371
      pz      :     0.025509  p :     0.078392
      px      :     0.020671
      py      :     0.032212
 79 H s       :     0.907778  s :     0.907778
      pz      :     0.022488  p :     0.087120
      px      :     0.021871
      py      :     0.042761
 80 H s       :     0.877506  s :     0.877506
      pz      :     0.038326  p :     0.083392
      px      :     0.029574
      py      :     0.015491
 81 H s       :     0.888083  s :     0.888083
      pz      :     0.037620  p :     0.083449
      px      :     0.016081
      py      :     0.029748
 82 H s       :     0.914161  s :     0.914161
      pz      :     0.022350  p :     0.087077
      px      :     0.031046
      py      :     0.033681
 83 H s       :     0.872029  s :     0.872029
      pz      :     0.039223  p :     0.083760
      px      :     0.015238
      py      :     0.029299
 84 H s       :     0.887994  s :     0.887994
      pz      :     0.035824  p :     0.084241
      px      :     0.031796
      py      :     0.016621
 85 H s       :     0.895115  s :     0.895115
      pz      :     0.022513  p :     0.079652
      px      :     0.014126
      py      :     0.043014
 86 H s       :     0.890557  s :     0.890557
      pz      :     0.024714  p :     0.078901
      px      :     0.033008
      py      :     0.021179
 87 H s       :     0.890836  s :     0.890836
      pz      :     0.047861  p :     0.078634
      px      :     0.015645
      py      :     0.015127
 88 H s       :     0.917098  s :     0.917098
      pz      :     0.022365  p :     0.086836
      px      :     0.042139
      py      :     0.022331
 89 H s       :     0.874355  s :     0.874355
      pz      :     0.037839  p :     0.084010
      px      :     0.030489
      py      :     0.015683


                      *****************************
                      * MAYER POPULATION ANALYSIS *
                      *****************************

  NA   - Mulliken gross atomic population
  ZA   - Total nuclear charge
  QA   - Mulliken gross atomic charge
  VA   - Mayer's total valence
  BVA  - Mayer's bonded valence
  FA   - Mayer's free valence

  ATOM       NA         ZA         QA         VA         BVA        FA
  0 C      5.7748     6.0000     0.2252     3.8126     3.8126     0.0000
  1 N      7.4242     7.0000    -0.4242     3.4370     3.4370     0.0000
  2 C      6.0662     6.0000    -0.0662     3.9192     3.9192    -0.0000
  3 N      7.3410     7.0000    -0.3410     3.4299     3.4299    -0.0000
  4 C      6.0726     6.0000    -0.0726     3.9705     3.9705     0.0000
  5 N      7.5653     7.0000    -0.5653     3.0728     3.0728    -0.0000
  6 C      6.0355     6.0000    -0.0355     3.9723     3.9723    -0.0000
  7 N      7.3369     7.0000    -0.3369     3.4453     3.4453    -0.0000
  8 C      5.7779     6.0000     0.2221     3.8120     3.8120    -0.0000
  9 N      7.5653     7.0000    -0.5653     3.0892     3.0892    -0.0000
 10 C      5.8923     6.0000     0.1077     3.8724     3.8724     0.0000
 11 N      7.4386     7.0000    -0.4386     3.3790     3.3790     0.0000
 12 C      6.0618     6.0000    -0.0618     3.9116     3.9116    -0.0000
 13 N      7.4478     7.0000    -0.4478     3.3360     3.3360    -0.0000
 14 C      5.7712     6.0000     0.2288     3.8034     3.8034    -0.0000
 15 N      7.4410     7.0000    -0.4410     3.3678     3.3678     0.0000
 16 C      5.7515     6.0000     0.2485     3.8028     3.8028    -0.0000
 17 C      6.0410     6.0000    -0.0410     3.9752     3.9752    -0.0000
 18 C      6.1919     6.0000    -0.1919     3.7044     3.7044    -0.0000
 19 C      5.7643     6.0000     0.2357     3.8897     3.8897     0.0000
 20 C      5.8043     6.0000     0.1957     3.8221     3.8221     0.0000
 21 C      6.0731     6.0000    -0.0731     3.8978     3.8978     0.0000
 22 C      6.0879     6.0000    -0.0879     3.9854     3.9854     0.0000
 23 C      6.0611     6.0000    -0.0611     3.9883     3.9883     0.0000
 24 C      5.7852     6.0000     0.2148     3.8276     3.8276     0.0000
 25 C      5.8857     6.0000     0.1143     3.8918     3.8918     0.0000
 26 C      6.0687     6.0000    -0.0687     3.9079     3.9079     0.0000
 27 C      5.7598     6.0000     0.2402     3.8990     3.8990     0.0000
 28 C      6.0435     6.0000    -0.0435     3.9888     3.9888    -0.0000
 29 C      6.1944     6.0000    -0.1944     3.7272     3.7272     0.0000
 30 C      5.7744     6.0000     0.2256     3.7844     3.7844    -0.0000
 31 C      5.8061     6.0000     0.1939     3.8319     3.8319     0.0000
 32 C      6.0664     6.0000    -0.0664     3.9133     3.9133    -0.0000
 33 C      6.0967     6.0000    -0.0967     3.9859     3.9859     0.0000
 34 C      6.0510     6.0000    -0.0510     3.9974     3.9974    -0.0000
 35 C      5.8136     6.0000     0.1864     3.8292     3.8292    -0.0000
 36 C      5.8810     6.0000     0.1190     3.9050     3.9050    -0.0000
 37 C      6.0694     6.0000    -0.0694     3.9155     3.9155     0.0000
 38 C      5.7586     6.0000     0.2414     3.7956     3.7956     0.0000
 39 C      6.0636     6.0000    -0.0636     3.9968     3.9968    -0.0000
 40 C      6.2001     6.0000    -0.2001     3.7494     3.7494     0.0000
 41 C      5.7813     6.0000     0.2187     3.8770     3.8770    -0.0000
 42 C      5.7899     6.0000     0.2101     3.8309     3.8309     0.0000
 43 C      6.0757     6.0000    -0.0757     3.9049     3.9049    -0.0000
 44 C      6.0903     6.0000    -0.0903     3.9839     3.9839     0.0000
 45 C      6.0425     6.0000    -0.0425     3.9952     3.9952     0.0000
 46 C      5.8091     6.0000     0.1909     3.8217     3.8217    -0.0000
 47 C      5.8838     6.0000     0.1162     3.8955     3.8955     0.0000
 48 C      6.0793     6.0000    -0.0793     3.8995     3.8995     0.0000
 49 C      5.7861     6.0000     0.2139     3.8700     3.8700     0.0000
 50 C      6.0626     6.0000    -0.0626     3.9900     3.9900    -0.0000
 51 C      6.1886     6.0000    -0.1886     3.7401     3.7401     0.0000
 52 H      0.9275     1.0000     0.0725     0.9832     0.9832    -0.0000
 53 H      1.0096     1.0000    -0.0096     1.0012     1.0012    -0.0000
 54 H      0.9399     1.0000     0.0601     1.0068     1.0068     0.0000
 55 H      0.9288     1.0000     0.0712     0.9842     0.9842     0.0000
 56 H      0.9244     1.0000     0.0756     0.9726     0.9726    -0.0000
 57 H      0.9305     1.0000     0.0695     0.9848     0.9848    -0.0000
 58 H      0.9322     1.0000     0.0678     0.9862     0.9862     0.0000
 59 H      1.0235     1.0000    -0.0235     0.9967     0.9967    -0.0000
 60 H      0.9418     1.0000     0.0582     1.0059     1.0059    -0.0000
 61 H      0.8241     1.0000     0.1759     1.0434     1.0434    -0.0000
 62 H      0.8307     1.0000     0.1693     1.0433     1.0433    -0.0000
 63 H      0.9455     1.0000     0.0545     0.9859     0.9859    -0.0000
 64 H      1.0295     1.0000    -0.0295     0.9935     0.9935    -0.0000
 65 H      0.9563     1.0000     0.0437     1.0080     1.0080    -0.0000
 66 H      0.9435     1.0000     0.0565     0.9847     0.9847     0.0000
 67 H      0.9399     1.0000     0.0601     0.9717     0.9717     0.0000
 68 H      0.9429     1.0000     0.0571     0.9865     0.9865    -0.0000
 69 H      0.9407     1.0000     0.0593     0.9830     0.9830     0.0000
 70 H      1.0177     1.0000    -0.0177     0.9969     0.9969     0.0000
 71 H      0.9524     1.0000     0.0476     1.0074     1.0074    -0.0000
 72 H      0.9570     1.0000     0.0430     0.9858     0.9858     0.0000
 73 H      1.0187     1.0000    -0.0187     0.9969     0.9969    -0.0000
 74 H      0.9656     1.0000     0.0344     1.0093     1.0093    -0.0000
 75 H      0.9582     1.0000     0.0418     0.9864     0.9864    -0.0000
 76 H      0.9493     1.0000     0.0507     0.9707     0.9707     0.0000
 77 H      0.9504     1.0000     0.0496     0.9845     0.9845    -0.0000
 78 H      0.9512     1.0000     0.0488     0.9839     0.9839    -0.0000
 79 H      1.0126     1.0000    -0.0126     1.0011     1.0011     0.0000
 80 H      0.9656     1.0000     0.0344     1.0066     1.0066    -0.0000
 81 H      0.9483     1.0000     0.0517     0.9853     0.9853     0.0000
 82 H      1.0226     1.0000    -0.0226     0.9951     0.9951    -0.0000
 83 H      0.9566     1.0000     0.0434     1.0103     1.0103    -0.0000
 84 H      0.9489     1.0000     0.0511     0.9861     0.9861    -0.0000
 85 H      0.9438     1.0000     0.0562     0.9714     0.9714    -0.0000
 86 H      0.9433     1.0000     0.0567     0.9841     0.9841    -0.0000
 87 H      0.9446     1.0000     0.0554     0.9853     0.9853    -0.0000
 88 H      1.0277     1.0000    -0.0277     0.9921     0.9921     0.0000
 89 H      0.9592     1.0000     0.0408     1.0063     1.0063    -0.0000

  Mayer bond orders larger than 0.100000
B(  0-C ,  1-N ) :   1.1693 B(  0-C , 17-C ) :   1.5657 B(  0-C , 52-H ) :   0.9681 
B(  1-N ,  8-C ) :   1.1626 B(  1-N , 10-C ) :   0.9399 B(  2-C , 12-C ) :   1.5618 
B(  2-C , 16-C ) :   1.2943 B(  2-C , 53-H ) :   0.9787 B(  3-N , 14-C ) :   1.1845 
B(  3-N , 16-C ) :   1.2016 B(  3-N , 61-H ) :   0.8962 B(  4-C ,  6-C ) :   1.3230 
B(  4-C , 17-C ) :   1.3241 B(  4-C , 18-C ) :   1.1297 B(  5-N , 19-C ) :   1.3812 
B(  5-N , 27-C ) :   1.4357 B(  6-C ,  8-C ) :   1.5665 B(  6-C , 54-H ) :   0.9709 
B(  7-N , 30-C ) :   1.1886 B(  7-N , 38-C ) :   1.2104 B(  7-N , 62-H ) :   0.9004 
B(  8-C , 55-H ) :   0.9686 B(  9-N , 41-C ) :   1.4277 B(  9-N , 49-C ) :   1.3985 
B( 10-C , 56-H ) :   0.9764 B( 10-C , 57-H ) :   0.9810 B( 10-C , 58-H ) :   0.9825 
B( 11-N , 20-C ) :   1.1087 B( 11-N , 24-C ) :   1.1328 B( 11-N , 25-C ) :   0.9599 
B( 12-C , 14-C ) :   1.2941 B( 12-C , 59-H ) :   0.9773 B( 13-N , 31-C ) :   1.0944 
B( 13-N , 35-C ) :   1.0864 B( 13-N , 36-C ) :   0.9751 B( 14-C , 18-C ) :   1.2366 
B( 15-N , 42-C ) :   1.1241 B( 15-N , 46-C ) :   1.0991 B( 15-N , 47-C ) :   0.9643 
B( 16-C , 51-C ) :   1.2263 B( 17-C , 60-H ) :   0.9715 B( 18-C , 19-C ) :   1.2794 
B( 19-C , 21-C ) :   1.1790 B( 20-C , 28-C ) :   1.6251 B( 20-C , 63-H ) :   0.9706 
B( 21-C , 26-C ) :   1.6682 B( 21-C , 64-H ) :   0.9722 B( 22-C , 23-C ) :   1.2669 
B( 22-C , 28-C ) :   1.2794 B( 22-C , 29-C ) :   1.2478 B( 23-C , 24-C ) :   1.6272 
B( 23-C , 65-H ) :   0.9717 B( 24-C , 66-H ) :   0.9690 B( 25-C , 67-H ) :   0.9763 
B( 25-C , 68-H ) :   0.9832 B( 25-C , 69-H ) :   0.9819 B( 26-C , 27-C ) :   1.1853 
B( 26-C , 70-H ) :   0.9748 B( 27-C , 29-C ) :   1.2378 B( 28-C , 71-H ) :   0.9710 
B( 29-C , 30-C ) :   1.1846 B( 30-C , 32-C ) :   1.3410 B( 31-C , 39-C ) :   1.6670 
B( 31-C , 72-H ) :   0.9706 B( 32-C , 37-C ) :   1.5177 B( 32-C , 73-H ) :   0.9773 
B( 33-C , 34-C ) :   1.2458 B( 33-C , 39-C ) :   1.2391 B( 33-C , 40-C ) :   1.3218 
B( 34-C , 35-C ) :   1.6652 B( 34-C , 74-H ) :   0.9709 B( 35-C , 75-H ) :   0.9705 
B( 36-C , 76-H ) :   0.9758 B( 36-C , 77-H ) :   0.9824 B( 36-C , 78-H ) :   0.9836 
B( 37-C , 38-C ) :   1.3383 B( 37-C , 79-H ) :   0.9787 B( 38-C , 40-C ) :   1.1857 
B( 39-C , 80-H ) :   0.9720 B( 40-C , 41-C ) :   1.1863 B( 41-C , 43-C ) :   1.2395 
B( 42-C , 50-C ) :   1.6376 B( 42-C , 81-H ) :   0.9696 B( 43-C , 48-C ) :   1.6118 
B( 43-C , 82-H ) :   0.9751 B( 44-C , 45-C ) :   1.2791 B( 44-C , 50-C ) :   1.2564 
B( 44-C , 51-C ) :   1.2480 B( 45-C , 46-C ) :   1.6311 B( 45-C , 83-H ) :   0.9705 
B( 46-C , 84-H ) :   0.9706 B( 47-C , 85-H ) :   0.9760 B( 47-C , 86-H ) :   0.9826 
B( 47-C , 87-H ) :   0.9828 B( 48-C , 49-C ) :   1.2353 B( 48-C , 88-H ) :   0.9730 
B( 49-C , 51-C ) :   1.2046 B( 50-C , 89-H ) :   0.9719 

-------
TIMINGS
-------

Total SCF time: 0 days 0 hours 24 min 12 sec 

Total time                  ....    1452.541 sec
Sum of individual times     ....    1448.718 sec  ( 99.7%)

Fock matrix formation       ....    1427.444 sec  ( 98.3%)
Diagonalization             ....       6.595 sec  (  0.5%)
Density matrix formation    ....       0.403 sec  (  0.0%)
Population analysis         ....       0.424 sec  (  0.0%)
Initial guess               ....       1.907 sec  (  0.1%)
Orbital Transformation      ....       0.000 sec  (  0.0%)
Orbital Orthonormalization  ....       0.000 sec  (  0.0%)
DIIS solution               ....       2.842 sec  (  0.2%)
SOSCF solution              ....       8.083 sec  (  0.6%)

Maximum memory used throughout the entire SCF-calculation: 302.5 MB


           ************************************************************
           *        Program running with 16 parallel MPI-processes    *
           *              working on a common directory               *
           ************************************************************

------------------------------------------------------------------------------
                                ORCA  MP2 
------------------------------------------------------------------------------

Freezing NCore=104 chemical core electrons

----------
MP2 ENERGY (disk based algorithm)
----------

Dimension of the basis                    ...  918
Memory devoted to MP2                     ... 2000 MB   
Data format for buffers                   ... DOUBLE
Compression type for matrix containers    ... UNCOMPRESSED

-------------------------------
PARTIAL EXCHANGE TRANSFORMATION
-------------------------------

Transformation type                        ... one-operator
Generation of integrals (i,mue|j,nue)      ... ON
Generation of integrals (mue,kappa|nue,tau)... OFF
Generation of integrals (i,mue|a,nue)      ... OFF
Dimension of the basis                     ...  918
Number of internal MOs                     ...  127 (  52- 178)
Pair cutoff                                ... 2.500e-12 Eh
Number of AO pairs in the trafo            ... 421821
Total Number of distinct AO pairs          ... 421821
Memory devoted for trafo                   ... 2000.0 MB 
Max. Number of MO pairs treated together   ...  311      
Number Format for Storage                  ... Double (8 Byte)
Integral package used                      ... LIBINT

Starting integral evaluation:
    ... done with AO integral generation
Closing buffer AOK     (37.98 GB; CompressionRatio= 1.33)
Collecting buffer AOK 
Number of MO pairs included in the trafo   ... 8128
------------------------
SORTING OF (i,mue|j,nue)
------------------------

IBATCH = 1 of  2
IBATCH = 2 of  2
Closing buffer KAO     (51.03 GB; CompressionRatio= 1.00)
Collecting buffer KAO 
N(AO-Batches) Done                         ...  85596671 
N(AO-Batches) Skipped                      ...  82079552 
N(IJ)-pairs Skipped                        ...         0 
TOTAL TIME for half transformation         ...  2512.323 sec
AO-integral generation                     ...   173.599 sec
Half transformation                        ...   309.420 sec
K-integral sorting                         ...  1873.629 sec
Process 10:   Internal MO 132
Process 13:   Internal MO 156

Finished integral transformation - now doing MP2 part

OPERATOR COMBINATION   0   0: ij=( 52..178, 52..178)
Process  4:   Internal MO  84
Process  7:   Internal MO 108
Process  1:   Internal MO  60
Process  0:   Internal MO  54
Process  2:   Internal MO  69
Process  0:   Internal MO  57
Process  1:   Internal MO  63
Process  5:   Internal MO  93
Process  3:   Internal MO  78
Process  2:   Internal MO  72
Process  8:   Internal MO 117
Process  1:   Internal MO  66
Process  6:   Internal MO 102
Process  4:   Internal MO  87
Process 14:   Internal MO 165
Process 11:   Internal MO 141
Process  9:   Internal MO 126
Process  2:   Internal MO  75
Process  3:   Internal MO  81
Process 12:   Internal MO 150
Process  5:   Internal MO  96
Process  7:   Internal MO 111
Process  4:   Internal MO  90
Process 10:   Internal MO 135
Process  6:   Internal MO 105
Process  8:   Internal MO 120
Process  5:   Internal MO  99
Process  7:   Internal MO 114
Process 15:   Internal MO 174
Process  9:   Internal MO 129
Process 13:   Internal MO 159
Process 11:   Internal MO 144
Process 12:   Internal MO 153
Process 14:   Internal MO 168
Process 10:   Internal MO 138
Process  8:   Internal MO 123
Process 11:   Internal MO 147
Process 13:   Internal MO 162
Process 15:   Internal MO 177
Process 14:   Internal MO 171
-----------------------------------------------
 MP2 CORRELATION ENERGY   :     -7.279186629 Eh
-----------------------------------------------


-------
TIMINGS
-------
Total time                : 2805.882 sec
Integral trafo            : 2514.179 sec ( 89.6%)
K(i,j)                    :    4.793 sec (  0.2%)
T(i,j)                    :    0.076 sec (  0.0%)

---------------------------------------
MP2 TOTAL ENERGY:    -2130.892955004 Eh
---------------------------------------

Maximum memory used throughout the entire MP2-calculation: 2275.2 MB

-------------------------   --------------------
FINAL SINGLE POINT ENERGY     -2130.892955003768
-------------------------   --------------------


                            ***************************************
                            *     ORCA property calculations      *
                            ***************************************


  WARNING: The energy has been calculated at the MP2 level but the densities
           used in the property calculations are still SCF densities
           MP2 response densities have not been calculated 
           use %mp2 Density relaxed end
           or  %mp2 Density unrelaxed end

                                    ---------------------
                                    Active property flags
                                    ---------------------
   (+) Dipole Moment


------------------------------------------------------------------------------
                       ORCA ELECTRIC PROPERTIES CALCULATION
------------------------------------------------------------------------------

Dipole Moment Calculation                       ... on
Quadrupole Moment Calculation                   ... off
Polarizability Calculation                      ... off
GBWName                                         ... /scratch/allen/tmpyp4_amber_gaff2/conf1/conf1/Conf75.orca.gbw
Electron density                                ... /scratch/allen/tmpyp4_amber_gaff2/conf1/conf1/Conf75.orca.scfp
The origin for moment calculation is the CENTER OF MASS  = ( 0.001072, -0.003419  0.004126)

-------------
DIPOLE MOMENT
-------------
                                X             Y             Z
Electronic contribution:     -2.98194       3.15429      -0.15040
Nuclear contribution   :     -0.03795       0.15825       0.19333
                        -----------------------------------------
Total Dipole Moment    :     -3.01989       3.31254       0.04293
                        -----------------------------------------
Magnitude (a.u.)       :      4.48269
Magnitude (Debye)      :     11.39409



--------------------
Rotational spectrum 
--------------------
 
Rotational constants in cm-1:     0.001498     0.001473     0.000763 
Rotational constants in MHz :    44.916399    44.150638    22.861192 

 Dipole components along the rotational axes: 
x,y,z [a.u.] :    -4.026633    -1.969617     0.036368 
x,y,z [Debye]:   -10.234887    -5.006370     0.092441 

 

Timings for individual modules:

Sum of individual times         ...     4279.683 sec (=  71.328 min)
GTO integral calculation        ...        2.620 sec (=   0.044 min)   0.1 %
SCF iterations                  ...     1453.468 sec (=  24.224 min)  34.0 %
MP2 module                      ...     2823.594 sec (=  47.060 min)  66.0 %
                             ****ORCA TERMINATED NORMALLY****
TOTAL RUN TIME: 0 days 1 hours 11 minutes 22 seconds 914 msec
# of primitive gaussian functions

