
                                 *****************
                                 * O   R   C   A *
                                 *****************

                                            #,                                       
                                            ###                                      
                                            ####                                     
                                            #####                                    
                                            ######                                   
                                           ########,                                 
                                     ,,################,,,,,                         
                               ,,#################################,,                 
                          ,,##########################################,,             
                       ,#########################################, ''#####,          
                    ,#############################################,,   '####,        
                  ,##################################################,,,,####,       
                ,###########''''           ''''###############################       
              ,#####''   ,,,,##########,,,,          '''####'''          '####       
            ,##' ,,,,###########################,,,                        '##       
           ' ,,###''''                  '''############,,,                           
         ,,##''                                '''############,,,,        ,,,,,,###''
      ,#''                                            '''#######################'''  
     '                                                          ''''####''''         
             ,#######,   #######,   ,#######,      ##                                
            ,#'     '#,  ##    ##  ,#'     '#,    #''#        ######   ,####,        
            ##       ##  ##   ,#'  ##            #'  '#       #        #'  '#        
            ##       ##  #######   ##           ,######,      #####,   #    #        
            '#,     ,#'  ##    ##  '#,     ,#' ,#      #,         ##   #,  ,#        
             '#######'   ##     ##  '#######'  #'      '#     #####' # '####'        



                  #######################################################
                  #                        -***-                        #
                  #          Department of theory and spectroscopy      #
                  #    Directorship and core code : Frank Neese         #
                  #        Max Planck Institute fuer Kohlenforschung    #
                  #                Kaiser Wilhelm Platz 1               #
                  #                 D-45470 Muelheim/Ruhr               #
                  #                      Germany                        #
                  #                                                     #
                  #                  All rights reserved                #
                  #                        -***-                        #
                  #######################################################


                         Program Version 5.0.4 -  RELEASE  -


 With contributions from (in alphabetic order):
   Daniel Aravena         : Magnetic Suceptibility
   Michael Atanasov       : Ab Initio Ligand Field Theory (pilot matlab implementation)
   Alexander A. Auer      : GIAO ZORA, VPT2 properties, NMR spectrum
   Ute Becker             : Parallelization
   Giovanni Bistoni       : ED, misc. LED, open-shell LED, HFLD
   Martin Brehm           : Molecular dynamics
   Dmytro Bykov           : SCF Hessian
   Vijay G. Chilkuri      : MRCI spin determinant printing, contributions to CSF-ICE
   Dipayan Datta          : RHF DLPNO-CCSD density
   Achintya Kumar Dutta   : EOM-CC, STEOM-CC
   Dmitry Ganyushin       : Spin-Orbit,Spin-Spin,Magnetic field MRCI
   Miquel Garcia          : C-PCM and meta-GGA Hessian, CC/C-PCM, Gaussian charge scheme
   Yang Guo               : DLPNO-NEVPT2, F12-NEVPT2, CIM, IAO-localization
   Andreas Hansen         : Spin unrestricted coupled pair/coupled cluster methods
   Benjamin Helmich-Paris : MC-RPA, TRAH-SCF, COSX integrals
   Lee Huntington         : MR-EOM, pCC
   Robert Izsak           : Overlap fitted RIJCOSX, COSX-SCS-MP3, EOM
   Marcus Kettner         : VPT2
   Christian Kollmar      : KDIIS, OOCD, Brueckner-CCSD(T), CCSD density, CASPT2, CASPT2-K
   Simone Kossmann        : Meta GGA functionals, TD-DFT gradient, OOMP2, MP2 Hessian
   Martin Krupicka        : Initial AUTO-CI
   Lucas Lang             : DCDCAS
   Marvin Lechner         : AUTO-CI (C++ implementation), FIC-MRCC
   Dagmar Lenk            : GEPOL surface, SMD
   Dimitrios Liakos       : Extrapolation schemes; Compound Job, initial MDCI parallelization
   Dimitrios Manganas     : Further ROCIS development; embedding schemes
   Dimitrios Pantazis     : SARC Basis sets
   Anastasios Papadopoulos: AUTO-CI, single reference methods and gradients
   Taras Petrenko         : DFT Hessian,TD-DFT gradient, ASA, ECA, R-Raman, ABS, FL, XAS/XES, NRVS
   Peter Pinski           : DLPNO-MP2, DLPNO-MP2 Gradient
   Christoph Reimann      : Effective Core Potentials
   Marius Retegan         : Local ZFS, SOC
   Christoph Riplinger    : Optimizer, TS searches, QM/MM, DLPNO-CCSD(T), (RO)-DLPNO pert. Triples
   Tobias Risthaus        : Range-separated hybrids, TD-DFT gradient, RPA, STAB
   Michael Roemelt        : Original ROCIS implementation
   Masaaki Saitow         : Open-shell DLPNO-CCSD energy and density
   Barbara Sandhoefer     : DKH picture change effects
   Avijit Sen             : IP-ROCIS
   Kantharuban Sivalingam : CASSCF convergence, NEVPT2, FIC-MRCI
   Bernardo de Souza      : ESD, SOC TD-DFT
   Georgi Stoychev        : AutoAux, RI-MP2 NMR, DLPNO-MP2 response
   Willem Van den Heuvel  : Paramagnetic NMR
   Boris Wezisla          : Elementary symmetry handling
   Frank Wennmohs         : Technical directorship


 We gratefully acknowledge several colleagues who have allowed us to
 interface, adapt or use parts of their codes:
   Stefan Grimme, W. Hujo, H. Kruse, P. Pracht,  : VdW corrections, initial TS optimization,
                  C. Bannwarth, S. Ehlert          DFT functionals, gCP, sTDA/sTD-DF
   Ed Valeev, F. Pavosevic, A. Kumar             : LibInt (2-el integral package), F12 methods
   Garnet Chan, S. Sharma, J. Yang, R. Olivares  : DMRG
   Ulf Ekstrom                                   : XCFun DFT Library
   Mihaly Kallay                                 : mrcc  (arbitrary order and MRCC methods)
   Jiri Pittner, Ondrej Demel                    : Mk-CCSD
   Frank Weinhold                                : gennbo (NPA and NBO analysis)
   Christopher J. Cramer and Donald G. Truhlar   : smd solvation model
   Lars Goerigk                                  : TD-DFT with DH, B97 family of functionals
   V. Asgeirsson, H. Jonsson                     : NEB implementation
   FAccTs GmbH                                   : IRC, NEB, NEB-TS, DLPNO-Multilevel, CI-OPT
                                                   MM, QMMM, 2- and 3-layer-ONIOM, Crystal-QMMM,
                                                   LR-CPCM, SF, NACMEs, symmetry and pop. for TD-DFT,
                                                   nearIR, NL-DFT gradient (VV10), updates on ESD,
                                                   ML-optimized integration grids
   S Lehtola, MJT Oliveira, MAL Marques          : LibXC Library
   Liviu Ungur et al                             : ANISO software


 Your calculation uses the libint2 library for the computation of 2-el integrals
 For citations please refer to: http://libint.valeyev.net

 Your ORCA version has been built with support for libXC version: 5.1.0
 For citations please refer to: https://tddft.org/programs/libxc/

 This ORCA versions uses:
   CBLAS   interface :  Fast vector & matrix operations
   LAPACKE interface :  Fast linear algebra routines
   SCALAPACK package :  Parallel linear algebra routines
   Shared memory     :  Shared parallel matrices
   BLAS/LAPACK       :  OpenBLAS 0.3.15  USE64BITINT DYNAMIC_ARCH NO_AFFINITY Sandybridge SINGLE_THREADED
        Core in use  :  Sandybridge
   Copyright (c) 2011-2014, The OpenBLAS Project


================================================================================

----- Orbital basis set information -----
Your calculation utilizes the basis: cc-pVDZ 
       H, B-Ne : Obtained from the ccRepo (grant-hill.group.shef.ac.uk/ccrepo) Feb. 2017
                 T. H. Dunning, Jr., J. Chem. Phys. 90, 1007 (1989)
            He : Obtained from the ccRepo (grant-hill.group.shef.ac.uk/ccrepo) Feb. 2017
                 D. E. Woon, T. H. Dunning, Jr., J. Chem. Phys. 100, 2975 (1994)
  Li-Be, Na-Mg : Obtained from the ccRepo (grant-hill.group.shef.ac.uk/ccrepo) Feb. 2017
                 B. P. Prascher, D. E. Woon, K. A. Peterson, T. H. Dunning, Jr., A. K. Wilson, Theor. Chem. Acc. 128, 69 (2011)
         Al-Ar : Obtained from the ccRepo (grant-hill.group.shef.ac.uk/ccrepo) Feb. 2017
                 D. E. Woon, T. H. Dunning, Jr., J. Chem. Phys. 98, 1358 (1993)
            Ca : Obtained from the Peterson Research Group Website (tyr0.chem.wsu.edu/~kipeters) Feb. 2017
                 J. Koput, K. A. Peterson, J. Phys. Chem. 106, 9595 (2002)
         Sc-Zn : Obtained from the ccRepo (grant-hill.group.shef.ac.uk/ccrepo) Feb. 2017
                 N. B. Balabanov, K. A. Peterson, J. Chem. Phys. 123, 064107 (2005)
                 N. B. Balabanov, K. A. Peterson, J. Chem. Phys. 125, 074110 (2006)
         Ga-Kr : Obtained from the ccRepo (grant-hill.group.shef.ac.uk/ccrepo) Feb. 2017
                 A. K. Wilson, D. E. Woon, K. A. Peterson, T. H. Dunning, Jr., J. Chem. Phys. 110, 7667 (1999)

================================================================================
                                        WARNINGS
                       Please study these warnings very carefully!
================================================================================


WARNING: No MP2 level density has been requested!
         To caclulate MP2 level properties use
         %mp2 Density relaxed end
         or
         %mp2 Density unrelaxed end

WARNING: Post HF methods need fully converged wavefunctions
  ===> : Setting SCFConvForced true
         You can overwrite this default with %scf ConvForced false 


INFO   : the flag for use of the SHARK integral package has been found!

================================================================================
                                       INPUT FILE
================================================================================
NAME = /scratch/allen/tmpyp4_amber_gaff2/2.Mdgx/conf11/conf11/Conf116.orca
|  1> ! PAL2
|  2> ! mp2 cc-pvdz TightSCF  NoKeepInts
|  3> 
|  4> %scf
|  5>   MaxCore 2000
|  6> end
|  7> %mp2
|  8>   MaxCore 2000
|  9> end
| 10> * xyz 0 1
| 11>    C       -4.39100         5.58900        -0.98100
| 12>    C        1.47400         4.04100         0.05700
| 13>    C       -2.80200         4.09300         0.04900
| 14>    C       -2.78700         4.95500         1.15700
| 15>    C       -3.56800         6.09300         1.16100
| 16>    C       -5.20700         7.60500         0.15300
| 17>    C        0.13200         4.30700         0.06100
| 18>    C       -0.56900         3.05600         0.04700
| 19>    C        1.64900         2.61800         0.02300
| 20>    C       -3.63100         4.43600        -1.03000
| 21>    N       -4.35200         6.39800         0.10100
| 22>    N        0.38800         2.06700         0.02500
| 23>    N       -2.01000         0.39500        -0.07500
| 24>    N       -0.38800        -2.07400        -0.02700
| 25>    N        2.01000        -0.40100         0.06500
| 26>    C       -1.96000         2.86100         0.02400
| 27>    C       -2.62300         1.61500        -0.01800
| 28>    C       -5.57300        -4.32900         1.06600
| 29>    C       -4.07300         1.47100         0.05600
| 30>    C       -4.10600        -2.75600        -0.02600
| 31>    C       -4.99500        -2.75700        -1.11100
| 32>    C       -6.13200        -3.54200        -1.07600
| 33>    C       -7.65100        -5.11300         0.04000
| 34>    C       -4.32400         0.14100         0.03700
| 35>    C       -3.02500        -0.52000        -0.04800
| 36>    C       -4.42200        -3.56600         1.07500
| 37>    N       -6.40700        -4.31300         0.00100
| 38>    C       -2.86700        -1.92200        -0.04000
| 39>    C       -1.65000        -2.62400        -0.02700
| 40>    C        3.56800        -6.14200        -1.04000
| 41>    C       -1.47600        -4.04900        -0.03400
| 42>    C        2.80300        -4.09900        -0.00800
| 43>    C        3.65700        -4.38400         1.06900
| 44>    C        4.42700        -5.53000         1.05900
| 45>    C        5.24500        -7.58800         0.01400
| 46>    C       -0.13400        -4.31500        -0.02200
| 47>    C        0.56800        -3.06400        -0.02700
| 48>    C        2.77500        -5.01200        -1.07400
| 49>    N        4.37600        -6.39100         0.01700
| 50>    C        1.95900        -2.86900        -0.00900
| 51>    C        2.62100        -1.62200         0.00900
| 52>    C        5.54300         4.33900        -1.13000
| 53>    C        4.07000        -1.47900        -0.09400
| 54>    C        4.10400         2.75100        -0.02100
| 55>    C        5.02700         2.72900         1.03600
| 56>    C        6.16600         3.50900         0.97800
| 57>    C        7.61900         5.15300        -0.11500
| 58>    C        4.32100        -0.14800        -0.09200
| 59>    C        3.02500         0.51400         0.01500
| 60>    C        4.38700         3.58200        -1.11500
| 61>    C        2.86600         1.91600         0.01300
| 62>    N        6.41300         4.29600        -0.09500
| 63>    H       -5.03500         5.89900        -1.79500
| 64>    H        2.27400         4.76600         0.08100
| 65>    H       -2.17400         4.73900         2.02400
| 66>    H       -3.59600         6.78200         1.99500
| 67>    H       -6.14900         7.35400         0.64500
| 68>    H       -4.68600         8.38100         0.71400
| 69>    H       -5.39500         7.94500        -0.86600
| 70>    H       -0.33200         5.28200         0.06900
| 71>    H       -3.67600         3.81900        -1.92000
| 72>    H        0.18200         1.07200         0.00500
| 73>    H       -0.18300        -1.08000        -0.02100
| 74>    H       -5.86400        -4.96200         1.89500
| 75>    H       -4.79400         2.27200         0.13900
| 76>    H       -4.80000        -2.16000        -1.99400
| 77>    H       -6.84100        -3.58200        -1.89300
| 78>    H       -8.42800        -4.53600         0.54600
| 79>    H       -7.95600        -5.33700        -0.98100
| 80>    H       -7.45600        -6.03700         0.58400
| 81>    H       -5.28700        -0.34400         0.10000
| 82>    H       -3.78000        -3.60100         1.94700
| 83>    H        3.58700        -6.86800        -1.84300
| 84>    H       -2.27600        -4.77400        -0.05000
| 85>    H        3.71400        -3.72400         1.92600
| 86>    H        5.09200        -5.79500         1.87100
| 87>    H        6.20500        -7.32900        -0.43900
| 88>    H        5.39300        -7.91700         1.04200
| 89>    H        4.75900        -8.37300        -0.56400
| 90>    H        0.32900        -5.29000        -0.00800
| 91>    H        2.14600        -4.84200        -1.94000
| 92>    H        5.80800         4.98600        -1.95600
| 93>    H        4.78800        -2.28100        -0.18500
| 94>    H        4.86000         2.11400         1.91200
| 95>    H        6.90100         3.53100         1.77200
| 96>    H        7.38300         6.10900         0.35600
| 97>    H        8.41400         4.65200         0.43500
| 98>    H        7.92100         5.31000        -1.15000
| 99>    H        5.28300         0.33600        -0.17900
|100>    H        3.72000         3.63200        -1.96700
|101> *
|102> 
|103>                          ****END OF INPUT****
================================================================================

                       ****************************
                       * Single Point Calculation *
                       ****************************

---------------------------------
CARTESIAN COORDINATES (ANGSTROEM)
---------------------------------
  C     -4.391000    5.589000   -0.981000
  C      1.474000    4.041000    0.057000
  C     -2.802000    4.093000    0.049000
  C     -2.787000    4.955000    1.157000
  C     -3.568000    6.093000    1.161000
  C     -5.207000    7.605000    0.153000
  C      0.132000    4.307000    0.061000
  C     -0.569000    3.056000    0.047000
  C      1.649000    2.618000    0.023000
  C     -3.631000    4.436000   -1.030000
  N     -4.352000    6.398000    0.101000
  N      0.388000    2.067000    0.025000
  N     -2.010000    0.395000   -0.075000
  N     -0.388000   -2.074000   -0.027000
  N      2.010000   -0.401000    0.065000
  C     -1.960000    2.861000    0.024000
  C     -2.623000    1.615000   -0.018000
  C     -5.573000   -4.329000    1.066000
  C     -4.073000    1.471000    0.056000
  C     -4.106000   -2.756000   -0.026000
  C     -4.995000   -2.757000   -1.111000
  C     -6.132000   -3.542000   -1.076000
  C     -7.651000   -5.113000    0.040000
  C     -4.324000    0.141000    0.037000
  C     -3.025000   -0.520000   -0.048000
  C     -4.422000   -3.566000    1.075000
  N     -6.407000   -4.313000    0.001000
  C     -2.867000   -1.922000   -0.040000
  C     -1.650000   -2.624000   -0.027000
  C      3.568000   -6.142000   -1.040000
  C     -1.476000   -4.049000   -0.034000
  C      2.803000   -4.099000   -0.008000
  C      3.657000   -4.384000    1.069000
  C      4.427000   -5.530000    1.059000
  C      5.245000   -7.588000    0.014000
  C     -0.134000   -4.315000   -0.022000
  C      0.568000   -3.064000   -0.027000
  C      2.775000   -5.012000   -1.074000
  N      4.376000   -6.391000    0.017000
  C      1.959000   -2.869000   -0.009000
  C      2.621000   -1.622000    0.009000
  C      5.543000    4.339000   -1.130000
  C      4.070000   -1.479000   -0.094000
  C      4.104000    2.751000   -0.021000
  C      5.027000    2.729000    1.036000
  C      6.166000    3.509000    0.978000
  C      7.619000    5.153000   -0.115000
  C      4.321000   -0.148000   -0.092000
  C      3.025000    0.514000    0.015000
  C      4.387000    3.582000   -1.115000
  C      2.866000    1.916000    0.013000
  N      6.413000    4.296000   -0.095000
  H     -5.035000    5.899000   -1.795000
  H      2.274000    4.766000    0.081000
  H     -2.174000    4.739000    2.024000
  H     -3.596000    6.782000    1.995000
  H     -6.149000    7.354000    0.645000
  H     -4.686000    8.381000    0.714000
  H     -5.395000    7.945000   -0.866000
  H     -0.332000    5.282000    0.069000
  H     -3.676000    3.819000   -1.920000
  H      0.182000    1.072000    0.005000
  H     -0.183000   -1.080000   -0.021000
  H     -5.864000   -4.962000    1.895000
  H     -4.794000    2.272000    0.139000
  H     -4.800000   -2.160000   -1.994000
  H     -6.841000   -3.582000   -1.893000
  H     -8.428000   -4.536000    0.546000
  H     -7.956000   -5.337000   -0.981000
  H     -7.456000   -6.037000    0.584000
  H     -5.287000   -0.344000    0.100000
  H     -3.780000   -3.601000    1.947000
  H      3.587000   -6.868000   -1.843000
  H     -2.276000   -4.774000   -0.050000
  H      3.714000   -3.724000    1.926000
  H      5.092000   -5.795000    1.871000
  H      6.205000   -7.329000   -0.439000
  H      5.393000   -7.917000    1.042000
  H      4.759000   -8.373000   -0.564000
  H      0.329000   -5.290000   -0.008000
  H      2.146000   -4.842000   -1.940000
  H      5.808000    4.986000   -1.956000
  H      4.788000   -2.281000   -0.185000
  H      4.860000    2.114000    1.912000
  H      6.901000    3.531000    1.772000
  H      7.383000    6.109000    0.356000
  H      8.414000    4.652000    0.435000
  H      7.921000    5.310000   -1.150000
  H      5.283000    0.336000   -0.179000
  H      3.720000    3.632000   -1.967000

----------------------------
CARTESIAN COORDINATES (A.U.)
----------------------------
  NO LB      ZA    FRAG     MASS         X           Y           Z
   0 C     6.0000    0    12.011   -8.297787   10.561679   -1.853821
   1 C     6.0000    0    12.011    2.785456    7.636383    0.107714
   2 C     6.0000    0    12.011   -5.295013    7.734649    0.092597
   3 C     6.0000    0    12.011   -5.266667    9.363593    2.186413
   4 C     6.0000    0    12.011   -6.742543   11.514101    2.193972
   5 C     6.0000    0    12.011   -9.839804   14.371367    0.289128
   6 C     6.0000    0    12.011    0.249444    8.139050    0.115273
   7 C     6.0000    0    12.011   -1.075254    5.775003    0.088817
   8 C     6.0000    0    12.011    3.116158    4.947303    0.043464
   9 C     6.0000    0    12.011   -6.861596    8.382825   -1.946418
  10 N     7.0000    0    14.007   -8.224088   12.090468    0.190862
  11 N     7.0000    0    14.007    0.733214    3.906064    0.047243
  12 N     7.0000    0    14.007   -3.798350    0.746442   -0.141729
  13 N     7.0000    0    14.007   -0.733214   -3.919292   -0.051023
  14 N     7.0000    0    14.007    3.798350   -0.757780    0.122832
  15 C     6.0000    0    12.011   -3.703863    5.406506    0.045353
  16 C     6.0000    0    12.011   -4.956752    3.051908   -0.034015
  17 C     6.0000    0    12.011  -10.531444   -8.180624    2.014448
  18 C     6.0000    0    12.011   -7.696855    2.779787    0.105825
  19 C     6.0000    0    12.011   -7.759216   -5.208085   -0.049133
  20 C     6.0000    0    12.011   -9.439182   -5.209975   -2.099486
  21 C     6.0000    0    12.011  -11.587801   -6.693410   -2.033345
  22 C     6.0000    0    12.011  -14.458295   -9.662170    0.075589
  23 C     6.0000    0    12.011   -8.171176    0.266451    0.069920
  24 C     6.0000    0    12.011   -5.716422   -0.982658   -0.090707
  25 C     6.0000    0    12.011   -8.356369   -6.738763    2.031456
  26 N     7.0000    0    14.007  -12.107475   -8.150389    0.001890
  27 C     6.0000    0    12.011   -5.417845   -3.632054   -0.075589
  28 C     6.0000    0    12.011   -3.118048   -4.958641   -0.051023
  29 C     6.0000    0    12.011    6.742543  -11.606698   -1.965315
  30 C     6.0000    0    12.011   -2.789236   -7.651501   -0.064251
  31 C     6.0000    0    12.011    5.296902   -7.745987   -0.015118
  32 C     6.0000    0    12.011    6.910728   -8.284559    2.020117
  33 C     6.0000    0    12.011    8.365818  -10.450186    2.001220
  34 C     6.0000    0    12.011    9.911614  -14.339242    0.026456
  35 C     6.0000    0    12.011   -0.253223   -8.154168   -0.041574
  36 C     6.0000    0    12.011    1.073364   -5.790121   -0.051023
  37 C     6.0000    0    12.011    5.243990   -9.471307   -2.029566
  38 N     7.0000    0    14.007    8.269442  -12.077240    0.032125
  39 C     6.0000    0    12.011    3.701973   -5.421624   -0.017008
  40 C     6.0000    0    12.011    4.952972   -3.065136    0.017008
  41 C     6.0000    0    12.011   10.474752    8.199522   -2.135391
  42 C     6.0000    0    12.011    7.691185   -2.794905   -0.177634
  43 C     6.0000    0    12.011    7.755436    5.198637   -0.039684
  44 C     6.0000    0    12.011    9.499653    5.157063    1.957756
  45 C     6.0000    0    12.011   11.652051    6.631049    1.848152
  46 C     6.0000    0    12.011   14.397823    9.737759   -0.217319
  47 C     6.0000    0    12.011    8.165507   -0.279679   -0.173855
  48 C     6.0000    0    12.011    5.716422    0.971319    0.028346
  49 C     6.0000    0    12.011    8.290229    6.768999   -2.107045
  50 C     6.0000    0    12.011    5.415955    3.620715    0.024566
  51 N     7.0000    0    14.007   12.118814    8.118263   -0.179524
  52 H     1.0000    0     1.008   -9.514771   11.147494   -3.392058
  53 H     1.0000    0     1.008    4.297237    9.006435    0.153068
  54 H     1.0000    0     1.008   -4.108265    8.955412    3.824806
  55 H     1.0000    0     1.008   -6.795455   12.816123    3.770004
  56 H     1.0000    0     1.008  -11.619926   13.897046    1.218873
  57 H     1.0000    0     1.008   -8.855257   15.837795    1.349264
  58 H     1.0000    0     1.008  -10.195072   15.013874   -1.636503
  59 H     1.0000    0     1.008   -0.627389    9.981533    0.130391
  60 H     1.0000    0     1.008   -6.946633    7.216864   -3.628274
  61 H     1.0000    0     1.008    0.343930    2.025786    0.009449
  62 H     1.0000    0     1.008   -0.345820   -2.040904   -0.039684
  63 H     1.0000    0     1.008  -11.081354   -9.376821    3.581031
  64 H     1.0000    0     1.008   -9.059347    4.293458    0.262672
  65 H     1.0000    0     1.008   -9.070685   -4.081808   -3.768114
  66 H     1.0000    0     1.008  -12.927616   -6.768999   -3.577252
  67 H     1.0000    0     1.008  -15.926612   -8.571798    1.031790
  68 H     1.0000    0     1.008  -15.034661  -10.085468   -1.853821
  69 H     1.0000    0     1.008  -14.089798  -11.408277    1.103600
  70 H     1.0000    0     1.008   -9.990982   -0.650066    0.188973
  71 H     1.0000    0     1.008   -7.143165   -6.804904    3.679297
  72 H     1.0000    0     1.008    6.778448  -12.978639   -3.482765
  73 H     1.0000    0     1.008   -4.301017   -9.021553   -0.094486
  74 H     1.0000    0     1.008    7.018443   -7.037340    3.639613
  75 H     1.0000    0     1.008    9.622485  -10.950963    3.535678
  76 H     1.0000    0     1.008   11.725751  -13.849803   -0.829590
  77 H     1.0000    0     1.008   10.191293  -14.960962    1.969095
  78 H     1.0000    0     1.008    8.993207  -15.822677   -1.065806
  79 H     1.0000    0     1.008    0.621720   -9.996651   -0.015118
  80 H     1.0000    0     1.008    4.055352   -9.150054   -3.666069
  81 H     1.0000    0     1.008   10.975529    9.422175   -3.696304
  82 H     1.0000    0     1.008    9.048009   -4.310465   -0.349599
  83 H     1.0000    0     1.008    9.184069    3.994881    3.613156
  84 H     1.0000    0     1.008   13.041000    6.672623    3.348595
  85 H     1.0000    0     1.008   13.951848   11.544337    0.672743
  86 H     1.0000    0     1.008   15.900156    8.791006    0.822031
  87 H     1.0000    0     1.008   14.968521   10.034446   -2.173185
  88 H     1.0000    0     1.008    9.983423    0.634948   -0.338261
  89 H     1.0000    0     1.008    7.029781    6.863485   -3.717091

--------------------------------
INTERNAL COORDINATES (ANGSTROEM)
--------------------------------
 C      0   0   0     0.000000000000     0.00000000     0.00000000
 C      1   0   0     6.154020880693     0.00000000     0.00000000
 C      1   2   0     2.413262729170    31.19115068     0.00000000
 C      3   1   2     1.403899212907    87.89443348    87.75387726
 C      4   3   1     1.380224981661   120.16486579     0.10711981
 C      5   4   3     2.447147114499   152.52584350     1.71662707
 C      2   1   3     1.368114030335    10.49897825   323.60888971
 C      7   2   3     1.434084376876   108.05010202     0.84668783
 C      2   1   3     1.434123425651   111.21618321    38.89567923
 C      1   2   3     1.381814025113    43.27433457   312.84971609
 N      1   2   3     1.351564278901    89.31444338    92.28069432
 N      9   2   1     1.376127174356   106.58526707   348.54450764
 N     12   9   2     2.925062050624   168.53581413   171.12065651
 N     13  12   9     2.954513327098    91.55032014    11.12112580
 N     14  13  12     2.925371258490    88.43092389   359.84326247
 C      8   7   2     1.404790019896   127.24786865   181.11170171
 C     13  12   9     1.366535034311    81.72106996   188.00453233
 C     14  13  12     5.758810554272    80.56209567   166.76250791
 C     17  13  12     1.459010623676   111.08861209   183.82872609
 C     18  14  13     2.412235892279    27.27532823    36.33507194
 C     20  18  14     1.402692767501    87.95206320   148.94598259
 C     21  20  18     1.382106725257   120.14573887   359.70382047
 C     18  14  13     2.446510985056   144.15733107    82.80075377
 C     19  17  13     1.353610726908   106.29293361   359.75308708
 C     13  12   9     1.366813447402   172.21332906    33.46711076
 C     18  14  13     1.380960173213    15.08449437   309.23336894
 N     22  21  20     1.352773077792   120.73759875     0.27865223
 C     25  13  17     1.410897586645   125.60330303   182.37774668
 C     14  13  12     1.376642291955    80.24689249   177.85461986
 C     14  13  12     5.764089607215   164.51507311   312.20821879
 C     29  14  13     1.435600919476   106.58649366   178.76395472
 C     30  14  13     2.413316804732    27.10625047    82.12560436
 C     32  30  14     1.403734305344    87.90059683   149.76154742
 C     33  32  30     1.380694028378   120.14881443   359.74174632
 C     34  33  32     2.448777858443   152.49203239     2.45173620
 C     31  29  14     1.368160809262   108.16950133     0.70383075
 C     14  13  12     1.376239804685   169.26375223   353.09862627
 C     30  14  13     1.380907310430    14.68948582   353.70041132
 N     34  33  32     1.352658863128   120.85575621     0.19603406
 C     37  14  29     1.404717053360   126.01551127   180.90772073
 C     15  14  13     1.366491126938    81.61824056   183.09049352
 C      2   1   3     4.249062720177   147.98270965   159.67942470
 C     41  15  14     1.459677704153   111.05201287   175.08990246
 C     42   2   1     2.412953791518    41.78584867   209.68123474
 C     44  42   2     1.403446472082    87.95153797   233.97558675
 C     45  44  42     1.381696421071   120.11137308     0.19721020
 C     42   2   1     2.450019795838   135.97209175   119.99608385
 C     43  41  15     1.354461516618   106.26758155     0.30894352
 C     15  14  13     1.367461151185   171.87382904   332.35056460
 C     42   2   1     1.381886391857    32.59078432   258.53651394
 C      9   2   1     1.404988612053   126.98745415   169.54884517
 N     42   2   1     1.352765315936   113.57249190   147.73267304
 H      1   2   3     1.083250663512   139.93524416   225.19964952
 H      2   1   3     1.079907866440   122.74402476   208.82906440
 H      4   3   1     1.083565411039   121.00678979   179.56981012
 H      5   4   3     1.082155718924   122.80824563   179.44926884
 H      6   5   4     1.091983974241   104.48700434   100.05290809
 H      6   5   4     1.090109168845    84.70686123   209.49952895
 H      6   5   4     1.090552612211   133.86583277   322.23007027
 H      7   2  54     1.079807853278   126.66122480     1.30600390
 H     10   1   2     1.083888370636   118.76826920   230.11984992
 H     12   9   2     1.016297692608   125.29023241   180.00180175
 H     14  13  12     1.014936943854    44.97226959   359.42596618
 H     18  14  13     1.082871645210   128.03556573   234.20482432
 H     19  17  13     1.080893611786   126.41830519   178.11313280
 H     21  20  18     1.083569563987   121.05669627   180.67006309
 H     22  21  20     1.082483256222   122.73097286   180.59748951
 H     23  18  14     1.092105306278   103.92715769   234.93429879
 H     23  18  14     1.088871893291   134.19244188    12.25587044
 H     23  18  14     1.089833473518    84.85857450   125.45241208
 H     24  19  17     1.080075460327   127.28078426   178.44613241
 H     26  18  14     1.083408048706   118.76995697   244.94906660
 H     30  14  13     1.082703098730   127.99711412   279.66882698
 H     31  29  14     1.079759695488   125.22293469   180.92530585
 H     33  32  30     1.083188810873   121.01964473   180.74284758
 H     34  33  32     1.082494341787   122.70821597   180.59516895
 H     35  34  33     1.092652735319   105.73575241    97.19771933
 H     35  34  33     1.089462711615    84.05943581   206.43036958
 H     35  34  33     1.089268102902   133.08365142   318.50306270
 H     36  31  29     1.079439669458   126.61599965   178.98859863
 H     38  30  73     1.083742127999   118.77264435   359.90091293
 H     42   2   1     1.082178358682   119.31790784     4.36420349
 H     43  41  15     1.080281907652   126.36969097   182.06329380
 H     45  44  42     1.083277434455   121.10105945   179.58025624
 H     46  45  44     1.082194529648   122.72144639   179.46906377
 H     47  42   2     1.091546151109   106.65128841   315.16475048
 H     47  42   2     1.088818625851   132.46019523    94.52397119
 H     47  42   2     1.089531091801    83.63838232   206.04504406
 H     48  43  41     1.080402239909   127.23657387   181.62955349
 H     50  42   2     1.083186502870   118.77001737    94.71359229

---------------------------
INTERNAL COORDINATES (A.U.)
---------------------------
 C      0   0   0     0.000000000000     0.00000000     0.00000000
 C      1   0   0    11.629414086942     0.00000000     0.00000000
 C      1   2   0     4.560405647330    31.19115068     0.00000000
 C      3   1   2     2.652985032021    87.89443348    87.75387726
 C      4   3   1     2.608247218535   120.16486579     0.10711981
 C      5   4   3     4.624437855818   152.52584350     1.71662707
 C      2   1   3     2.585360837309    10.49897825   323.60888971
 C      7   2   3     2.710026725231   108.05010202     0.84668783
 C      2   1   3     2.710100516721   111.21618321    38.89567923
 C      1   2   3     2.611250075476    43.27433457   312.84971609
 N      1   2   3     2.554086339513    89.31444338    92.28069432
 N      9   2   1     2.600503484979   106.58526707   348.54450764
 N     12   9   2     5.527566200405   168.53581413   171.12065651
 N     13  12   9     5.583221047236    91.55032014    11.12112580
 N     14  13  12     5.528150518591    88.43092389   359.84326247
 C      8   7   2     2.654668413270   127.24786865   181.11170171
 C     13  12   9     2.582376967257    81.72106996   188.00453233
 C     14  13  12    10.882574804710    80.56209567   166.76250791
 C     17  13  12     2.757130505230   111.08861209   183.82872609
 C     18  14  13     4.558465206823    27.27532823    36.33507194
 C     20  18  14     2.650705180609    87.95206320   148.94598259
 C     21  20  18     2.611803198586   120.14573887   359.70382047
 C     18  14  13     4.623235745386   144.15733107    82.80075377
 C     19  17  13     2.557953565794   106.29293361   359.75308708
 C     13  12   9     2.582903091751   172.21332906    33.46711076
 C     18  14  13     2.609636529225    15.08449437   309.23336894
 N     22  21  20     2.556370638369   120.73759875     0.27865223
 C     25  13  17     2.666210041769   125.60330303   182.37774668
 C     14  13  12     2.601476916169    80.24689249   177.85461986
 C     14  13  12    10.892550769017   164.51507311   312.20821879
 C     29  14  13     2.712892575415   106.58649366   178.76395472
 C     30  14  13     4.560507835333    27.10625047    82.12560436
 C     32  30  14     2.652673401891    87.90059683   149.76154742
 C     33  32  30     2.609133588376   120.14881443   359.74174632
 C     34  33  32     4.627519515267   152.49203239     2.45173620
 C     31  29  14     2.585449236669   108.16950133     0.70383075
 C     14  13  12     2.600716325456   169.26375223   353.09862627
 C     30  14  13     2.609536633043    14.68948582   353.70041132
 N     34  33  32     2.556154803934   120.85575621     0.19603406
 C     37  14  29     2.654530526499   126.01551127   180.90772073
 C     15  14  13     2.582293994346    81.61824056   183.09049352
 C      2   1   3     8.029564866989   147.98270965   159.67942470
 C     41  15  14     2.758391104639   111.05201287   175.08990246
 C     42   2   1     4.559821839776    41.78584867   209.68123474
 C     44  42   2     2.652129475853    87.95153797   233.97558675
 C     45  44  42     2.611027836043   120.11137308     0.19721020
 C     42   2   1     4.629866436820   135.97209175   119.99608385
 C     43  41  15     2.559561325344   106.26758155     0.30894352
 C     15  14  13     2.584127074516   171.87382904   332.35056460
 C     42   2   1     2.611386828803    32.59078432   258.53651394
 C      9   2   1     2.655043698059   126.98745415   169.54884517
 N     42   2   1     2.556355970587   113.57249190   147.73267304
 H      1   2   3     2.047047088427   139.93524416   225.19964952
 H      2   1   3     2.040730117440   122.74402476   208.82906440
 H      4   3   1     2.047641875053   121.00678979   179.56981012
 H      5   4   3     2.044977943023   122.80824563   179.44926884
 H      6   5   4     2.063550653947   104.48700434   100.05290809
 H      6   5   4     2.060007785194    84.70686123   209.49952895
 H      6   5   4     2.060845771711   133.86583277   322.23007027
 H      7   2  54     2.040541119952   126.66122480     1.30600390
 H     10   1   2     2.048252180244   118.76826920   230.11984992
 H     12   9   2     1.920524309565   125.29023241   180.00180175
 H     14  13  12     1.917952867083    44.97226959   359.42596618
 H     18  14  13     2.046330847636   128.03556573   234.20482432
 H     19  17  13     2.042592906181   126.41830519   178.11313280
 H     21  20  18     2.047649722989   121.05669627   180.67006309
 H     22  21  20     2.045596898814   122.73097286   180.59748951
 H     23  18  14     2.063779938267   103.92715769   234.93429879
 H     23  18  14     2.057669673245   134.19244188    12.25587044
 H     23  18  14     2.059486796529    84.85857450   125.45241208
 H     24  19  17     2.041046823986   127.28078426   178.44613241
 H     26  18  14     2.047344503340   118.76995697   244.94906660
 H     30  14  13     2.046012340948   127.99711412   279.66882698
 H     31  29  14     2.040450114918   125.22293469   180.92530585
 H     33  32  30     2.046930203877   121.01964473   180.74284758
 H     34  33  32     2.045617847496   122.70821597   180.59516895
 H     35  34  33     2.064814429233   105.73575241    97.19771933
 H     35  34  33     2.058786158072    84.05943581   206.43036958
 H     35  34  33     2.058418400901   133.08365142   318.50306270
 H     36  31  29     2.039845353366   126.61599965   178.98859863
 H     38  30  73     2.047975821711   118.77264435   359.90091293
 H     42   2   1     2.045020725966   119.31790784     4.36420349
 H     43  41  15     2.041436952892   126.36969097   182.06329380
 H     45  44  42     2.047097678177   121.10105945   179.58025624
 H     46  45  44     2.045051284662   122.72144639   179.46906377
 H     47  42   2     2.062723288131   106.65128841   315.16475048
 H     47  42   2     2.057569012371   132.46019523    94.52397119
 H     47  42   2     2.058915377895    83.63838232   206.04504406
 H     48  43  41     2.041664347903   127.23657387   181.62955349
 H     50  42   2     2.046925842384   118.77001737    94.71359229

---------------------
BASIS SET INFORMATION
---------------------
There are 3 groups of distinct atoms

 Group   1 Type C   : 17s4p1d contracted to 3s2p1d pattern {881/31/1}
 Group   2 Type N   : 17s4p1d contracted to 3s2p1d pattern {881/31/1}
 Group   3 Type H   : 4s1p contracted to 2s1p pattern {31/1}

Atom   0C    basis set group =>   1
Atom   1N    basis set group =>   2
Atom   2C    basis set group =>   1
Atom   3N    basis set group =>   2
Atom   4C    basis set group =>   1
Atom   5N    basis set group =>   2
Atom   6C    basis set group =>   1
Atom   7N    basis set group =>   2
Atom   8C    basis set group =>   1
Atom   9N    basis set group =>   2
Atom  10C    basis set group =>   1
Atom  11N    basis set group =>   2
Atom  12C    basis set group =>   1
Atom  13N    basis set group =>   2
Atom  14C    basis set group =>   1
Atom  15N    basis set group =>   2
Atom  16C    basis set group =>   1
Atom  17C    basis set group =>   1
Atom  18C    basis set group =>   1
Atom  19C    basis set group =>   1
Atom  20C    basis set group =>   1
Atom  21C    basis set group =>   1
Atom  22C    basis set group =>   1
Atom  23C    basis set group =>   1
Atom  24C    basis set group =>   1
Atom  25C    basis set group =>   1
Atom  26C    basis set group =>   1
Atom  27C    basis set group =>   1
Atom  28C    basis set group =>   1
Atom  29C    basis set group =>   1
Atom  30C    basis set group =>   1
Atom  31C    basis set group =>   1
Atom  32C    basis set group =>   1
Atom  33C    basis set group =>   1
Atom  34C    basis set group =>   1
Atom  35C    basis set group =>   1
Atom  36C    basis set group =>   1
Atom  37C    basis set group =>   1
Atom  38C    basis set group =>   1
Atom  39C    basis set group =>   1
Atom  40C    basis set group =>   1
Atom  41C    basis set group =>   1
Atom  42C    basis set group =>   1
Atom  43C    basis set group =>   1
Atom  44C    basis set group =>   1
Atom  45C    basis set group =>   1
Atom  46C    basis set group =>   1
Atom  47C    basis set group =>   1
Atom  48C    basis set group =>   1
Atom  49C    basis set group =>   1
Atom  50C    basis set group =>   1
Atom  51C    basis set group =>   1
Atom  52H    basis set group =>   3
Atom  53H    basis set group =>   3
Atom  54H    basis set group =>   3
Atom  55H    basis set group =>   3
Atom  56H    basis set group =>   3
Atom  57H    basis set group =>   3
Atom  58H    basis set group =>   3
Atom  59H    basis set group =>   3
Atom  60H    basis set group =>   3
Atom  61H    basis set group =>   3
Atom  62H    basis set group =>   3
Atom  63H    basis set group =>   3
Atom  64H    basis set group =>   3
Atom  65H    basis set group =>   3
Atom  66H    basis set group =>   3
Atom  67H    basis set group =>   3
Atom  68H    basis set group =>   3
Atom  69H    basis set group =>   3
Atom  70H    basis set group =>   3
Atom  71H    basis set group =>   3
Atom  72H    basis set group =>   3
Atom  73H    basis set group =>   3
Atom  74H    basis set group =>   3
Atom  75H    basis set group =>   3
Atom  76H    basis set group =>   3
Atom  77H    basis set group =>   3
Atom  78H    basis set group =>   3
Atom  79H    basis set group =>   3
Atom  80H    basis set group =>   3
Atom  81H    basis set group =>   3
Atom  82H    basis set group =>   3
Atom  83H    basis set group =>   3
Atom  84H    basis set group =>   3
Atom  85H    basis set group =>   3
Atom  86H    basis set group =>   3
Atom  87H    basis set group =>   3
Atom  88H    basis set group =>   3
Atom  89H    basis set group =>   3


           ************************************************************
           *        Program running with 16 parallel MPI-processes    *
           *              working on a common directory               *
           ************************************************************
------------------------------------------------------------------------------
                           ORCA GTO INTEGRAL CALCULATION
------------------------------------------------------------------------------
------------------------------------------------------------------------------
                   ___                                                        
                  /   \      - P O W E R E D   B Y -                         
                 /     \                                                     
                 |  |  |   _    _      __       _____    __    __             
                 |  |  |  | |  | |    /  \     |  _  \  |  |  /  |          
                  \  \/   | |  | |   /    \    | | | |  |  | /  /          
                 / \  \   | |__| |  /  /\  \   | |_| |  |  |/  /          
                |  |  |   |  __  | /  /__\  \  |    /   |      \           
                |  |  |   | |  | | |   __   |  |    \   |  |\   \          
                \     /   | |  | | |  |  |  |  | |\  \  |  | \   \       
                 \___/    |_|  |_| |__|  |__|  |_| \__\ |__|  \__/        
                                                                              
                      - O R C A' S   B I G   F R I E N D -                    
                                      &                                       
                       - I N T E G R A L  F E E D E R -                       
                                                                              
 v1 FN, 2020, v2 2021                                                         
------------------------------------------------------------------------------


Reading SHARK input file /scratch/allen/tmpyp4_amber_gaff2/conf1/conf1/Conf116.orca.SHARKINP.tmp ... ok
----------------------
SHARK INTEGRAL PACKAGE
----------------------

Number of atoms                             ...     90
Number of basis functions                   ...   1230
Number of shells                            ...    738
Maximum angular momentum                    ...      2
Integral batch strategy                     ... SHARK/LIBINT Hybrid
RI-J (if used) integral strategy            ... SPLIT-RIJ (Revised 2003 algorithm where possible)
Printlevel                                  ...      1
Contraction scheme used                     ... PARTIAL GENERAL contraction
Coulomb Range Separation                    ... NOT USED
Exchange Range Separation                   ... NOT USED
Finite Nucleus Model                        ... NOT USED
Auxiliary Coulomb fitting basis             ... NOT available
Auxiliary J/K fitting basis                 ... NOT available
Auxiliary Correlation fitting basis         ... NOT available
Auxiliary 'external' fitting basis          ... NOT available
Integral threshold                          ...     2.500000e-11
Primitive cut-off                           ...     2.500000e-12
Primitive pair pre-selection threshold      ...     2.500000e-12

Calculating pre-screening integrals         ... done (  0.1 sec) Dimension = 738
Calculating pre-screening integrals (ORCA)  ... done (  0.3 sec) Dimension = 426
Organizing shell pair data                  ... done (  0.8 sec)
Shell pair information
Total number of shell pairs                 ...    272691
Shell pairs after pre-screening             ...     71594
Total number of primitive shell pairs       ...    422091
Primitive shell pairs kept                  ...     92341
          la=0 lb=0:  29406 shell pairs
          la=1 lb=0:  25963 shell pairs
          la=1 lb=1:   4694 shell pairs
          la=2 lb=0:   7878 shell pairs
          la=2 lb=1:   3122 shell pairs
          la=2 lb=2:    531 shell pairs

Calculating one electron integrals          ... done (  0.3 sec)
Calculating Nuclear repulsion               ... done (  0.0 sec) ENN=   6223.810924097536 Eh

SHARK setup successfully completed in   2.2 seconds

Maximum memory used throughout the entire GTOINT-calculation: 99.0 MB


           ************************************************************
           *        Program running with 16 parallel MPI-processes    *
           *              working on a common directory               *
           ************************************************************
-------------------------------------------------------------------------------
                                 ORCA SCF
-------------------------------------------------------------------------------

------------
SCF SETTINGS
------------
Hamiltonian:
 Ab initio Hamiltonian  Method          .... Hartree-Fock(GTOs)


General Settings:
 Integral files         IntName         .... /scratch/allen/tmpyp4_amber_gaff2/conf1/conf1/Conf116.orca
 Hartree-Fock type      HFTyp           .... RHF
 Total Charge           Charge          ....    0
 Multiplicity           Mult            ....    1
 Number of Electrons    NEL             ....  358
 Basis Dimension        Dim             ....  918
 Nuclear Repulsion      ENuc            ....   6223.8109240975 Eh

Convergence Acceleration:
 DIIS                   CNVDIIS         .... on
   Start iteration      DIISMaxIt       ....    12
   Startup error        DIISStart       ....  0.200000
   # of expansion vecs  DIISMaxEq       ....     5
   Bias factor          DIISBfac        ....   1.050
   Max. coefficient     DIISMaxC        ....  10.000
 Trust-Rad. Augm. Hess. CNVTRAH         .... auto
   Auto Start mean grad. ratio tolernc. ....  1.125000
   Auto Start start iteration           ....    20
   Auto Start num. interpolation iter.  ....    10
   Max. Number of Micro iterations      ....    16
   Max. Number of Macro iterations      .... Maxiter - #DIIS iter
   Number of Davidson start vectors     ....     2
   Converg. threshold I  (grad. norm)   ....   1.000e-05
   Converg. threshold II (energy diff.) ....   1.000e-08
   Grad. Scal. Fac. for Micro threshold ....   0.100
   Minimum threshold for Micro iter.    ....   0.010
   NR start threshold (gradient norm)   ....   0.001
   Initial trust radius                 ....   0.400
   Minimum AH scaling param. (alpha)    ....   1.000
   Maximum AH scaling param. (alpha)    .... 1000.000
   Orbital update algorithm             .... Taylor
   White noise on init. David. guess    .... on
   Maximum white noise                  ....   0.010
   Quad. conv. algorithm                .... NR
 SOSCF                  CNVSOSCF        .... on
   Start iteration      SOSCFMaxIt      ....   150
   Startup grad/error   SOSCFStart      ....  0.003300
 Level Shifting         CNVShift        .... on
   Level shift para.    LevelShift      ....    0.2500
   Turn off err/grad.   ShiftErr        ....    0.0010
 Zerner damping         CNVZerner       .... off
 Static damping         CNVDamp         .... on
   Fraction old density DampFac         ....    0.7000
   Max. Damping (<1)    DampMax         ....    0.9800
   Min. Damping (>=0)   DampMin         ....    0.0000
   Turn off err/grad.   DampErr         ....    0.1000
 Fernandez-Rico         CNVRico         .... off

SCF Procedure:
 Maximum # iterations   MaxIter         ....   125
 SCF integral mode      SCFMode         .... Direct
   Integral package                     .... SHARK and LIBINT hybrid scheme
 Reset frequency        DirectResetFreq ....    20
 Integral Threshold     Thresh          ....  2.500e-11 Eh
 Primitive CutOff       TCut            ....  2.500e-12 Eh

Convergence Tolerance:
 Convergence Check Mode ConvCheckMode   .... Total+1el-Energy
 Convergence forced     ConvForced      .... 1
 Energy Change          TolE            ....  1.000e-08 Eh
 1-El. energy change                    ....  1.000e-05 Eh
 Orbital Gradient       TolG            ....  1.000e-05
 Orbital Rotation angle TolX            ....  1.000e-05
 DIIS Error             TolErr          ....  5.000e-07


Diagonalization of the overlap matrix:
Smallest eigenvalue                        ... 2.258e-04
Time for diagonalization                   ...    0.401 sec
Threshold for overlap eigenvalues          ... 1.000e-08
Number of eigenvalues below threshold      ... 0
Time for construction of square roots      ...    0.251 sec
Total time needed                          ...    0.657 sec

Time for model grid setup =    1.055 sec

------------------------------
INITIAL GUESS: MODEL POTENTIAL
------------------------------
Loading Hartree-Fock densities                     ... done
Calculating cut-offs                               ... done
Initializing the effective Hamiltonian             ... done
Setting up the integral package (SHARK)            ... done
Starting the Coulomb interaction                   ... done (   1.2 sec)
Reading the grid                                   ... done
Mapping shells                                     ... done
Starting the XC term evaluation                    ... done (   0.2 sec)
Transforming the Hamiltonian                       ... done (   0.2 sec)
Diagonalizing the Hamiltonian                      ... done (   0.3 sec)
Back transforming the eigenvectors                 ... done (   0.1 sec)
Now organizing SCF variables                       ... done
                      ------------------
                      INITIAL GUESS DONE (   3.1 sec)
                      ------------------
--------------
SCF ITERATIONS
--------------
ITER       Energy         Delta-E        Max-DP      RMS-DP      [F,P]     Damp
               ***  Starting incremental Fock matrix formation  ***
  0  -2121.6655927019   0.000000000000 0.06912667  0.00120977  0.2334042 0.7000
  1  -2122.3325298344  -0.666937132519 0.05247037  0.00098083  0.1443791 0.7000
                               ***Turning on DIIS***
  2  -2122.7467790993  -0.414249264953 0.11634981  0.00222032  0.0803088 0.0000
  3  -2117.7036569000   5.043122199282 0.03073320  0.00068443  0.0443485 0.0000
  4  -2123.4084013121  -5.704744412105 0.00881111  0.00022886  0.0069675 0.0000
  5  -2123.5903979374  -0.181996625251 0.00505630  0.00013585  0.0049142 0.0000
  6  -2123.5725359508   0.017861986560 0.00321323  0.00008904  0.0019279 0.0000
  7  -2123.6778125731  -0.105276622244 0.00269853  0.00007125  0.0014766 0.0000
  8  -2123.6997726608  -0.021960087690 0.00263470  0.00006817  0.0013654 0.0000
  9  -2123.6621352988   0.037637362006 0.00214791  0.00004712  0.0010663 0.0000
 10  -2123.6791451435  -0.017009844689 0.00456531  0.00009506  0.0008044 0.0000
                      *** Initiating the SOSCF procedure ***
                           *** Shutting down DIIS ***
                      *** Re-Reading the Fockian *** 
                      *** Removing any level shift *** 
ITER      Energy       Delta-E        Grad      Rot      Max-DP    RMS-DP
 11  -2123.55170276   0.1274423870  0.000352  0.000352  0.000287  0.000007
               *** Restarting incremental Fock matrix formation ***
 12  -2123.62186633  -0.0701635715  0.001004  0.006868  0.001083  0.000028
 13  -2123.62193393  -0.0000675978  0.001047  0.025600  0.003638  0.000083
 14  -2123.62200740  -0.0000734704  0.000429  0.002939  0.000413  0.000012
 15  -2123.62201767  -0.0000102699  0.000151  0.001921  0.000236  0.000007
 16  -2123.62202015  -0.0000024888  0.000104  0.002053  0.000438  0.000008
 17  -2123.62202218  -0.0000020280  0.000126  0.002910  0.000373  0.000009
 18  -2123.62202352  -0.0000013351  0.000060  0.003417  0.000413  0.000010
 19  -2123.62202497  -0.0000014512  0.000083  0.003772  0.000447  0.000011
 20  -2123.62202603  -0.0000010620  0.000056  0.001401  0.000156  0.000004
 21  -2123.62202635  -0.0000003162  0.000030  0.000963  0.000136  0.000003
 22  -2123.62202654  -0.0000001892  0.000033  0.000377  0.000089  0.000002
 23  -2123.62202663  -0.0000000973  0.000021  0.000299  0.000100  0.000001
 24  -2123.62202667  -0.0000000403  0.000009  0.000083  0.000046  0.000001
 25  -2123.62202670  -0.0000000226  0.000005  0.000036  0.000014  0.000000
 26  -2123.62202670   0.0000000009  0.000003  0.000039  0.000020  0.000000
                  ***Gradient check signals convergence***
              ***Rediagonalizing the Fockian in SOSCF/NRSCF***

               *****************************************************
               *                     SUCCESS                       *
               *           SCF CONVERGED AFTER  27 CYCLES          *
               *****************************************************


----------------
TOTAL SCF ENERGY
----------------

Total Energy       :        -2123.62202669 Eh          -57786.69316 eV

Components:
Nuclear Repulsion  :         6223.81092410 Eh          169358.50526 eV
Electronic Energy  :        -8347.43295079 Eh         -227145.19843 eV
One Electron Energy:       -15288.90655440 Eh         -416032.29802 eV
Two Electron Energy:         6941.47360361 Eh          188887.09959 eV

Virial components:
Potential Energy   :        -4245.60730109 Eh         -115528.84804 eV
Kinetic Energy     :         2121.98527441 Eh           57742.15487 eV
Virial Ratio       :            2.00077133


---------------
SCF CONVERGENCE
---------------

  Last Energy change         ...    7.7798e-09  Tolerance :   1.0000e-08
  Last MAX-Density change    ...    1.2889e-05  Tolerance :   1.0000e-07
  Last RMS-Density change    ...    1.5121e-07  Tolerance :   5.0000e-09
  Last Orbital Gradient      ...    1.8483e-06  Tolerance :   1.0000e-05
  Last Orbital Rotation      ...    3.1698e-05  Tolerance :   1.0000e-05

             **** THE GBW FILE WAS UPDATED (/scratch/allen/tmpyp4_amber_gaff2/conf1/conf1/Conf116.orca.gbw) ****
             **** DENSITY /scratch/allen/tmpyp4_amber_gaff2/conf1/conf1/Conf116.orca.scfp WAS UPDATED ****
             **** ENERGY FILE WAS UPDATED (/scratch/allen/tmpyp4_amber_gaff2/conf1/conf1/Conf116.orca.en.tmp) ****
             **** THE GBW FILE WAS UPDATED (/scratch/allen/tmpyp4_amber_gaff2/conf1/conf1/Conf116.orca.gbw) ****
             **** DENSITY /scratch/allen/tmpyp4_amber_gaff2/conf1/conf1/Conf116.orca.scfp WAS UPDATED ****
----------------
ORBITAL ENERGIES
----------------

  NO   OCC          E(Eh)            E(eV) 
   0   2.0000     -15.640022      -425.5866 
   1   2.0000     -15.639549      -425.5738 
   2   2.0000     -15.627627      -425.2494 
   3   2.0000     -15.626845      -425.2281 
   4   2.0000     -15.516209      -422.2175 
   5   2.0000     -15.515828      -422.2071 
   6   2.0000     -15.445149      -420.2839 
   7   2.0000     -15.440458      -420.1562 
   8   2.0000     -11.303003      -307.5703 
   9   2.0000     -11.302998      -307.5702 
  10   2.0000     -11.295534      -307.3671 
  11   2.0000     -11.295223      -307.3586 
  12   2.0000     -11.295212      -307.3584 
  13   2.0000     -11.294970      -307.3518 
  14   2.0000     -11.294374      -307.3355 
  15   2.0000     -11.294140      -307.3292 
  16   2.0000     -11.285646      -307.0980 
  17   2.0000     -11.285221      -307.0865 
  18   2.0000     -11.283832      -307.0487 
  19   2.0000     -11.282661      -307.0168 
  20   2.0000     -11.243300      -305.9457 
  21   2.0000     -11.243205      -305.9432 
  22   2.0000     -11.234847      -305.7157 
  23   2.0000     -11.234308      -305.7010 
  24   2.0000     -11.234147      -305.6967 
  25   2.0000     -11.233831      -305.6881 
  26   2.0000     -11.231855      -305.6343 
  27   2.0000     -11.231777      -305.6322 
  28   2.0000     -11.225525      -305.4621 
  29   2.0000     -11.225426      -305.4594 
  30   2.0000     -11.225366      -305.4577 
  31   2.0000     -11.224517      -305.4346 
  32   2.0000     -11.196767      -304.6795 
  33   2.0000     -11.196483      -304.6718 
  34   2.0000     -11.196363      -304.6685 
  35   2.0000     -11.196094      -304.6612 
  36   2.0000     -11.174449      -304.0722 
  37   2.0000     -11.174397      -304.0708 
  38   2.0000     -11.171244      -303.9850 
  39   2.0000     -11.170601      -303.9675 
  40   2.0000     -11.166120      -303.8456 
  41   2.0000     -11.165968      -303.8414 
  42   2.0000     -11.164873      -303.8116 
  43   2.0000     -11.164853      -303.8111 
  44   2.0000     -11.156652      -303.5879 
  45   2.0000     -11.156017      -303.5707 
  46   2.0000     -11.153924      -303.5137 
  47   2.0000     -11.153827      -303.5111 
  48   2.0000     -11.146049      -303.2994 
  49   2.0000     -11.144584      -303.2595 
  50   2.0000     -11.137053      -303.0546 
  51   2.0000     -11.135597      -303.0150 
  52   2.0000      -1.326338       -36.0915 
  53   2.0000      -1.326128       -36.0858 
  54   2.0000      -1.315522       -35.7972 
  55   2.0000      -1.315113       -35.7860 
  56   2.0000      -1.215233       -33.0682 
  57   2.0000      -1.213214       -33.0132 
  58   2.0000      -1.162434       -31.6314 
  59   2.0000      -1.154092       -31.4045 
  60   2.0000      -1.115969       -30.3671 
  61   2.0000      -1.111728       -30.2517 
  62   2.0000      -1.106233       -30.1021 
  63   2.0000      -1.102357       -29.9966 
  64   2.0000      -1.050067       -28.5738 
  65   2.0000      -1.049951       -28.5706 
  66   2.0000      -1.040057       -28.3014 
  67   2.0000      -1.039813       -28.2947 
  68   2.0000      -1.026023       -27.9195 
  69   2.0000      -1.010732       -27.5034 
  70   2.0000      -1.007291       -27.4098 
  71   2.0000      -0.998444       -27.1690 
  72   2.0000      -0.979007       -26.6401 
  73   2.0000      -0.977347       -26.5950 
  74   2.0000      -0.967348       -26.3229 
  75   2.0000      -0.962118       -26.1806 
  76   2.0000      -0.951321       -25.8868 
  77   2.0000      -0.944541       -25.7023 
  78   2.0000      -0.936862       -25.4933 
  79   2.0000      -0.923118       -25.1193 
  80   2.0000      -0.891653       -24.2631 
  81   2.0000      -0.877732       -23.8843 
  82   2.0000      -0.875690       -23.8287 
  83   2.0000      -0.868208       -23.6251 
  84   2.0000      -0.865720       -23.5574 
  85   2.0000      -0.856419       -23.3044 
  86   2.0000      -0.850484       -23.1428 
  87   2.0000      -0.842008       -22.9122 
  88   2.0000      -0.821961       -22.3667 
  89   2.0000      -0.797773       -21.7085 
  90   2.0000      -0.797588       -21.7035 
  91   2.0000      -0.738887       -20.1061 
  92   2.0000      -0.727732       -19.8026 
  93   2.0000      -0.727340       -19.7919 
  94   2.0000      -0.722959       -19.6727 
  95   2.0000      -0.717552       -19.5256 
  96   2.0000      -0.711262       -19.3544 
  97   2.0000      -0.710645       -19.3376 
  98   2.0000      -0.697592       -18.9824 
  99   2.0000      -0.690645       -18.7934 
 100   2.0000      -0.683433       -18.5972 
 101   2.0000      -0.681174       -18.5357 
 102   2.0000      -0.679777       -18.4977 
 103   2.0000      -0.672724       -18.3057 
 104   2.0000      -0.668890       -18.2014 
 105   2.0000      -0.668047       -18.1785 
 106   2.0000      -0.661220       -17.9927 
 107   2.0000      -0.659705       -17.9515 
 108   2.0000      -0.657281       -17.8855 
 109   2.0000      -0.654681       -17.8148 
 110   2.0000      -0.651335       -17.7237 
 111   2.0000      -0.650701       -17.7065 
 112   2.0000      -0.648074       -17.6350 
 113   2.0000      -0.646483       -17.5917 
 114   2.0000      -0.633791       -17.2463 
 115   2.0000      -0.623214       -16.9585 
 116   2.0000      -0.616948       -16.7880 
 117   2.0000      -0.616590       -16.7783 
 118   2.0000      -0.610362       -16.6088 
 119   2.0000      -0.607955       -16.5433 
 120   2.0000      -0.607467       -16.5300 
 121   2.0000      -0.606734       -16.5101 
 122   2.0000      -0.602057       -16.3828 
 123   2.0000      -0.594647       -16.1812 
 124   2.0000      -0.585523       -15.9329 
 125   2.0000      -0.584797       -15.9131 
 126   2.0000      -0.577462       -15.7135 
 127   2.0000      -0.577064       -15.7027 
 128   2.0000      -0.568048       -15.4574 
 129   2.0000      -0.564720       -15.3668 
 130   2.0000      -0.553221       -15.0539 
 131   2.0000      -0.541568       -14.7368 
 132   2.0000      -0.541187       -14.7264 
 133   2.0000      -0.534639       -14.5483 
 134   2.0000      -0.533858       -14.5270 
 135   2.0000      -0.529926       -14.4200 
 136   2.0000      -0.524467       -14.2715 
 137   2.0000      -0.522602       -14.2207 
 138   2.0000      -0.517957       -14.0943 
 139   2.0000      -0.514501       -14.0003 
 140   2.0000      -0.509776       -13.8717 
 141   2.0000      -0.507346       -13.8056 
 142   2.0000      -0.503196       -13.6927 
 143   2.0000      -0.501813       -13.6550 
 144   2.0000      -0.497638       -13.5414 
 145   2.0000      -0.497194       -13.5293 
 146   2.0000      -0.496029       -13.4976 
 147   2.0000      -0.494512       -13.4564 
 148   2.0000      -0.490494       -13.3470 
 149   2.0000      -0.467756       -12.7283 
 150   2.0000      -0.459723       -12.5097 
 151   2.0000      -0.451102       -12.2751 
 152   2.0000      -0.445937       -12.1346 
 153   2.0000      -0.445861       -12.1325 
 154   2.0000      -0.444313       -12.0904 
 155   2.0000      -0.439501       -11.9594 
 156   2.0000      -0.434938       -11.8353 
 157   2.0000      -0.429645       -11.6912 
 158   2.0000      -0.388915       -10.5829 
 159   2.0000      -0.383294       -10.4300 
 160   2.0000      -0.375269       -10.2116 
 161   2.0000      -0.373780       -10.1711 
 162   2.0000      -0.360329        -9.8050 
 163   2.0000      -0.360162        -9.8005 
 164   2.0000      -0.351859        -9.5746 
 165   2.0000      -0.351647        -9.5688 
 166   2.0000      -0.337588        -9.1862 
 167   2.0000      -0.332732        -9.0541 
 168   2.0000      -0.326583        -8.8868 
 169   2.0000      -0.300176        -8.1682 
 170   2.0000      -0.291791        -7.9400 
 171   2.0000      -0.291079        -7.9207 
 172   2.0000      -0.287013        -7.8100 
 173   2.0000      -0.255439        -6.9508 
 174   2.0000      -0.245798        -6.6885 
 175   2.0000      -0.187150        -5.0926 
 176   2.0000      -0.176842        -4.8121 
 177   2.0000      -0.064358        -1.7513 
 178   2.0000      -0.053571        -1.4578 
 179   0.0000       0.031992         0.8706 
 180   0.0000       0.070134         1.9084 
 181   0.0000       0.092748         2.5238 
 182   0.0000       0.095573         2.6007 
 183   0.0000       0.133571         3.6347 
 184   0.0000       0.134154         3.6505 
 185   0.0000       0.142823         3.8864 
 186   0.0000       0.143261         3.8983 
 187   0.0000       0.161237         4.3875 
 188   0.0000       0.162080         4.4104 
 189   0.0000       0.162270         4.4156 
 190   0.0000       0.168598         4.5878 
 191   0.0000       0.168823         4.5939 
 192   0.0000       0.201283         5.4772 
 193   0.0000       0.201820         5.4918 
 194   0.0000       0.205631         5.5955 
 195   0.0000       0.205730         5.5982 
 196   0.0000       0.208523         5.6742 
 197   0.0000       0.209051         5.6886 
 198   0.0000       0.211912         5.7664 
 199   0.0000       0.212357         5.7785 
 200   0.0000       0.236509         6.4357 
 201   0.0000       0.236932         6.4472 
 202   0.0000       0.242467         6.5979 
 203   0.0000       0.243349         6.6219 
 204   0.0000       0.253404         6.8955 
 205   0.0000       0.254536         6.9263 
 206   0.0000       0.258427         7.0322 
 207   0.0000       0.260138         7.0787 
 208   0.0000       0.261106         7.1050 
 209   0.0000       0.265040         7.2121 
 210   0.0000       0.266128         7.2417 
 211   0.0000       0.270088         7.3495 
 212   0.0000       0.273362         7.4385 
 213   0.0000       0.275713         7.5025 
 214   0.0000       0.278928         7.5900 
 215   0.0000       0.279372         7.6021 
 216   0.0000       0.281729         7.6662 
 217   0.0000       0.283461         7.7134 
 218   0.0000       0.284117         7.7312 
 219   0.0000       0.288920         7.8619 
 220   0.0000       0.291361         7.9283 
 221   0.0000       0.291945         7.9442 
 222   0.0000       0.293872         7.9967 
 223   0.0000       0.294454         8.0125 
 224   0.0000       0.300326         8.1723 
 225   0.0000       0.301021         8.1912 
 226   0.0000       0.302352         8.2274 
 227   0.0000       0.303066         8.2469 
 228   0.0000       0.303502         8.2587 
 229   0.0000       0.307264         8.3611 
 230   0.0000       0.313782         8.5384 
 231   0.0000       0.318375         8.6634 
 232   0.0000       0.325992         8.8707 
 233   0.0000       0.329271         8.9599 
 234   0.0000       0.329571         8.9681 
 235   0.0000       0.336005         9.1432 
 236   0.0000       0.357032         9.7153 
 237   0.0000       0.385319        10.4851 
 238   0.0000       0.397280        10.8105 
 239   0.0000       0.399367        10.8673 
 240   0.0000       0.404467        11.0061 
 241   0.0000       0.410225        11.1628 
 242   0.0000       0.420278        11.4364 
 243   0.0000       0.425635        11.5821 
 244   0.0000       0.431135        11.7318 
 245   0.0000       0.434517        11.8238 
 246   0.0000       0.436575        11.8798 
 247   0.0000       0.438282        11.9263 
 248   0.0000       0.438644        11.9361 
 249   0.0000       0.444649        12.0995 
 250   0.0000       0.445086        12.1114 
 251   0.0000       0.446003        12.1364 
 252   0.0000       0.454776        12.3751 
 253   0.0000       0.468747        12.7553 
 254   0.0000       0.470228        12.7956 
 255   0.0000       0.476774        12.9737 
 256   0.0000       0.478090        13.0095 
 257   0.0000       0.487827        13.2744 
 258   0.0000       0.488493        13.2926 
 259   0.0000       0.497585        13.5400 
 260   0.0000       0.501408        13.6440 
 261   0.0000       0.503885        13.7114 
 262   0.0000       0.506401        13.7799 
 263   0.0000       0.510192        13.8830 
 264   0.0000       0.511923        13.9301 
 265   0.0000       0.514956        14.0127 
 266   0.0000       0.515995        14.0409 
 267   0.0000       0.521349        14.1866 
 268   0.0000       0.536425        14.5969 
 269   0.0000       0.538525        14.6540 
 270   0.0000       0.541122        14.7247 
 271   0.0000       0.545499        14.8438 
 272   0.0000       0.550090        14.9687 
 273   0.0000       0.550678        14.9847 
 274   0.0000       0.560937        15.2639 
 275   0.0000       0.562255        15.2997 
 276   0.0000       0.573724        15.6118 
 277   0.0000       0.576797        15.6954 
 278   0.0000       0.583403        15.8752 
 279   0.0000       0.584543        15.9062 
 280   0.0000       0.589724        16.0472 
 281   0.0000       0.590740        16.0748 
 282   0.0000       0.593749        16.1567 
 283   0.0000       0.596629        16.2351 
 284   0.0000       0.598726        16.2922 
 285   0.0000       0.604041        16.4368 
 286   0.0000       0.605498        16.4764 
 287   0.0000       0.606972        16.5165 
 288   0.0000       0.609120        16.5750 
 289   0.0000       0.613831        16.7032 
 290   0.0000       0.616613        16.7789 
 291   0.0000       0.627842        17.0844 
 292   0.0000       0.639043        17.3893 
 293   0.0000       0.641139        17.4463 
 294   0.0000       0.646015        17.5789 
 295   0.0000       0.648124        17.6363 
 296   0.0000       0.654538        17.8109 
 297   0.0000       0.660405        17.9705 
 298   0.0000       0.663456        18.0535 
 299   0.0000       0.664224        18.0745 
 300   0.0000       0.670181        18.2366 
 301   0.0000       0.674017        18.3409 
 302   0.0000       0.674204        18.3460 
 303   0.0000       0.680940        18.5293 
 304   0.0000       0.682790        18.5797 
 305   0.0000       0.685109        18.6428 
 306   0.0000       0.689539        18.7633 
 307   0.0000       0.697265        18.9735 
 308   0.0000       0.699388        19.0313 
 309   0.0000       0.702252        19.1092 
 310   0.0000       0.703098        19.1323 
 311   0.0000       0.705856        19.2073 
 312   0.0000       0.707700        19.2575 
 313   0.0000       0.709024        19.2935 
 314   0.0000       0.711745        19.3676 
 315   0.0000       0.712667        19.3927 
 316   0.0000       0.717356        19.5202 
 317   0.0000       0.718596        19.5540 
 318   0.0000       0.719453        19.5773 
 319   0.0000       0.720763        19.6129 
 320   0.0000       0.723843        19.6968 
 321   0.0000       0.726131        19.7590 
 322   0.0000       0.731646        19.9091 
 323   0.0000       0.733929        19.9712 
 324   0.0000       0.737458        20.0673 
 325   0.0000       0.742403        20.2018 
 326   0.0000       0.743164        20.2225 
 327   0.0000       0.745995        20.2995 
 328   0.0000       0.746975        20.3262 
 329   0.0000       0.748873        20.3779 
 330   0.0000       0.752857        20.4863 
 331   0.0000       0.754272        20.5248 
 332   0.0000       0.758142        20.6301 
 333   0.0000       0.759408        20.6645 
 334   0.0000       0.764110        20.7925 
 335   0.0000       0.766552        20.8589 
 336   0.0000       0.771008        20.9802 
 337   0.0000       0.778825        21.1929 
 338   0.0000       0.786381        21.3985 
 339   0.0000       0.789097        21.4724 
 340   0.0000       0.790252        21.5038 
 341   0.0000       0.792779        21.5726 
 342   0.0000       0.795220        21.6390 
 343   0.0000       0.800893        21.7934 
 344   0.0000       0.802731        21.8434 
 345   0.0000       0.807210        21.9653 
 346   0.0000       0.809077        22.0161 
 347   0.0000       0.813020        22.1234 
 348   0.0000       0.813971        22.1493 
 349   0.0000       0.817702        22.2508 
 350   0.0000       0.819029        22.2869 
 351   0.0000       0.821314        22.3491 
 352   0.0000       0.826171        22.4813 
 353   0.0000       0.829550        22.5732 
 354   0.0000       0.830545        22.6003 
 355   0.0000       0.832030        22.6407 
 356   0.0000       0.833302        22.6753 
 357   0.0000       0.834792        22.7158 
 358   0.0000       0.837628        22.7930 
 359   0.0000       0.839136        22.8340 
 360   0.0000       0.840552        22.8726 
 361   0.0000       0.841825        22.9072 
 362   0.0000       0.843623        22.9561 
 363   0.0000       0.845788        23.0151 
 364   0.0000       0.846741        23.0410 
 365   0.0000       0.848152        23.0794 
 366   0.0000       0.848456        23.0877 
 367   0.0000       0.852490        23.1974 
 368   0.0000       0.854761        23.2592 
 369   0.0000       0.860882        23.4258 
 370   0.0000       0.863687        23.5021 
 371   0.0000       0.867005        23.5924 
 372   0.0000       0.871436        23.7130 
 373   0.0000       0.876659        23.8551 
 374   0.0000       0.879535        23.9334 
 375   0.0000       0.882332        24.0095 
 376   0.0000       0.885533        24.0966 
 377   0.0000       0.891910        24.2701 
 378   0.0000       0.892830        24.2951 
 379   0.0000       0.897366        24.4186 
 380   0.0000       0.900645        24.5078 
 381   0.0000       0.900912        24.5151 
 382   0.0000       0.902928        24.5699 
 383   0.0000       0.905647        24.6439 
 384   0.0000       0.907286        24.6885 
 385   0.0000       0.907599        24.6970 
 386   0.0000       0.909467        24.7478 
 387   0.0000       0.909670        24.7534 
 388   0.0000       0.913379        24.8543 
 389   0.0000       0.914679        24.8897 
 390   0.0000       0.916110        24.9286 
 391   0.0000       0.919732        25.0272 
 392   0.0000       0.922877        25.1128 
 393   0.0000       0.923182        25.1211 
 394   0.0000       0.926940        25.2233 
 395   0.0000       0.930738        25.3267 
 396   0.0000       0.933343        25.3975 
 397   0.0000       0.936340        25.4791 
 398   0.0000       0.937744        25.5173 
 399   0.0000       0.941027        25.6066 
 400   0.0000       0.944695        25.7065 
 401   0.0000       0.945583        25.7306 
 402   0.0000       0.947088        25.7716 
 403   0.0000       0.949554        25.8387 
 404   0.0000       0.954132        25.9633 
 405   0.0000       0.954612        25.9763 
 406   0.0000       0.956072        26.0161 
 407   0.0000       0.965632        26.2762 
 408   0.0000       0.967402        26.3243 
 409   0.0000       0.969338        26.3770 
 410   0.0000       0.973344        26.4860 
 411   0.0000       0.977491        26.5989 
 412   0.0000       0.982113        26.7246 
 413   0.0000       0.986224        26.8365 
 414   0.0000       0.990001        26.9393 
 415   0.0000       0.991624        26.9835 
 416   0.0000       0.998442        27.1690 
 417   0.0000       1.002492        27.2792 
 418   0.0000       1.010452        27.4958 
 419   0.0000       1.011871        27.5344 
 420   0.0000       1.024493        27.8779 
 421   0.0000       1.027495        27.9596 
 422   0.0000       1.032343        28.0915 
 423   0.0000       1.040088        28.3022 
 424   0.0000       1.044802        28.4305 
 425   0.0000       1.047827        28.5128 
 426   0.0000       1.052620        28.6432 
 427   0.0000       1.064223        28.9590 
 428   0.0000       1.065673        28.9984 
 429   0.0000       1.075892        29.2765 
 430   0.0000       1.078616        29.3506 
 431   0.0000       1.082002        29.4428 
 432   0.0000       1.082768        29.4636 
 433   0.0000       1.089980        29.6599 
 434   0.0000       1.091965        29.7139 
 435   0.0000       1.104951        30.0672 
 436   0.0000       1.109035        30.1784 
 437   0.0000       1.112696        30.2780 
 438   0.0000       1.115070        30.3426 
 439   0.0000       1.117047        30.3964 
 440   0.0000       1.122574        30.5468 
 441   0.0000       1.124788        30.6070 
 442   0.0000       1.131565        30.7915 
 443   0.0000       1.133828        30.8530 
 444   0.0000       1.134912        30.8825 
 445   0.0000       1.135353        30.8945 
 446   0.0000       1.136985        30.9389 
 447   0.0000       1.138403        30.9775 
 448   0.0000       1.143152        31.1067 
 449   0.0000       1.146690        31.2030 
 450   0.0000       1.149934        31.2913 
 451   0.0000       1.152571        31.3630 
 452   0.0000       1.153701        31.3938 
 453   0.0000       1.159887        31.5621 
 454   0.0000       1.161550        31.6074 
 455   0.0000       1.162601        31.6360 
 456   0.0000       1.178099        32.0577 
 457   0.0000       1.179396        32.0930 
 458   0.0000       1.180567        32.1249 
 459   0.0000       1.183219        32.1970 
 460   0.0000       1.185062        32.2472 
 461   0.0000       1.193577        32.4789 
 462   0.0000       1.195910        32.5424 
 463   0.0000       1.207197        32.8495 
 464   0.0000       1.207885        32.8682 
 465   0.0000       1.210311        32.9342 
 466   0.0000       1.215553        33.0769 
 467   0.0000       1.217875        33.1401 
 468   0.0000       1.223247        33.2862 
 469   0.0000       1.228060        33.4172 
 470   0.0000       1.234449        33.5911 
 471   0.0000       1.236311        33.6417 
 472   0.0000       1.238387        33.6982 
 473   0.0000       1.241149        33.7734 
 474   0.0000       1.242910        33.8213 
 475   0.0000       1.249149        33.9911 
 476   0.0000       1.249998        34.0142 
 477   0.0000       1.251922        34.0665 
 478   0.0000       1.256170        34.1821 
 479   0.0000       1.256376        34.1877 
 480   0.0000       1.259860        34.2825 
 481   0.0000       1.262798        34.3625 
 482   0.0000       1.265914        34.4473 
 483   0.0000       1.270409        34.5696 
 484   0.0000       1.276281        34.7294 
 485   0.0000       1.278982        34.8029 
 486   0.0000       1.281919        34.8828 
 487   0.0000       1.286501        35.0075 
 488   0.0000       1.288878        35.0722 
 489   0.0000       1.291585        35.1458 
 490   0.0000       1.293343        35.1936 
 491   0.0000       1.294181        35.2164 
 492   0.0000       1.304395        35.4944 
 493   0.0000       1.307997        35.5924 
 494   0.0000       1.309811        35.6418 
 495   0.0000       1.317004        35.8375 
 496   0.0000       1.318770        35.8855 
 497   0.0000       1.323607        36.0172 
 498   0.0000       1.328220        36.1427 
 499   0.0000       1.329264        36.1711 
 500   0.0000       1.336085        36.3567 
 501   0.0000       1.336784        36.3757 
 502   0.0000       1.342352        36.5273 
 503   0.0000       1.343562        36.5602 
 504   0.0000       1.347183        36.6587 
 505   0.0000       1.351547        36.7775 
 506   0.0000       1.353549        36.8319 
 507   0.0000       1.355859        36.8948 
 508   0.0000       1.357192        36.9311 
 509   0.0000       1.359129        36.9838 
 510   0.0000       1.367209        37.2036 
[...]
      pz      :     0.021923  p :     0.079501
      px      :     0.043199
      py      :     0.014379
 77 H s       :     0.890599  s :     0.890599
      pz      :     0.047511  p :     0.078760
      px      :     0.015009
      py      :     0.016240
 78 H s       :     0.891021  s :     0.891021
      pz      :     0.025643  p :     0.078689
      px      :     0.020591
      py      :     0.032455
 79 H s       :     0.908496  s :     0.908496
      pz      :     0.022202  p :     0.086835
      px      :     0.021801
      py      :     0.042832
 80 H s       :     0.872894  s :     0.872894
      pz      :     0.038703  p :     0.083897
      px      :     0.029824
      py      :     0.015371
 81 H s       :     0.887342  s :     0.887342
      pz      :     0.037727  p :     0.083749
      px      :     0.016119
      py      :     0.029903
 82 H s       :     0.915056  s :     0.915056
      pz      :     0.022207  p :     0.086916
      px      :     0.031252
      py      :     0.033456
 83 H s       :     0.872441  s :     0.872441
      pz      :     0.039242  p :     0.083933
      px      :     0.015249
      py      :     0.029442
 84 H s       :     0.887343  s :     0.887343
      pz      :     0.035799  p :     0.083850
      px      :     0.031737
      py      :     0.016314
 85 H s       :     0.894053  s :     0.894053
      pz      :     0.022503  p :     0.079708
      px      :     0.014097
      py      :     0.043108
 86 H s       :     0.890656  s :     0.890656
      pz      :     0.024723  p :     0.078875
      px      :     0.033002
      py      :     0.021151
 87 H s       :     0.890265  s :     0.890265
      pz      :     0.047946  p :     0.078692
      px      :     0.015618
      py      :     0.015128
 88 H s       :     0.915060  s :     0.915060
      pz      :     0.022213  p :     0.086935
      px      :     0.042374
      py      :     0.022348
 89 H s       :     0.872501  s :     0.872501
      pz      :     0.037910  p :     0.083951
      px      :     0.030514
      py      :     0.015527


                      *****************************
                      * MAYER POPULATION ANALYSIS *
                      *****************************

  NA   - Mulliken gross atomic population
  ZA   - Total nuclear charge
  QA   - Mulliken gross atomic charge
  VA   - Mayer's total valence
  BVA  - Mayer's bonded valence
  FA   - Mayer's free valence

  ATOM       NA         ZA         QA         VA         BVA        FA
  0 C      5.7905     6.0000     0.2095     3.8248     3.8248    -0.0000
  1 N      7.4375     7.0000    -0.4375     3.3848     3.3848    -0.0000
  2 C      6.0660     6.0000    -0.0660     3.9175     3.9175    -0.0000
  3 N      7.3391     7.0000    -0.3391     3.4407     3.4407     0.0000
  4 C      6.0817     6.0000    -0.0817     3.9832     3.9832     0.0000
  5 N      7.5629     7.0000    -0.5629     3.0824     3.0824     0.0000
  6 C      6.0525     6.0000    -0.0525     3.9888     3.9888     0.0000
  7 N      7.3379     7.0000    -0.3379     3.4415     3.4415     0.0000
  8 C      5.7924     6.0000     0.2076     3.8242     3.8242     0.0000
  9 N      7.5635     7.0000    -0.5635     3.0858     3.0858     0.0000
 10 C      5.8873     6.0000     0.1127     3.8897     3.8897     0.0000
 11 N      7.4372     7.0000    -0.4372     3.3856     3.3856    -0.0000
 12 C      6.0658     6.0000    -0.0658     3.9156     3.9156     0.0000
 13 N      7.4415     7.0000    -0.4415     3.3697     3.3697     0.0000
 14 C      5.7678     6.0000     0.2322     3.7975     3.7975     0.0000
 15 N      7.4407     7.0000    -0.4407     3.3712     3.3712     0.0000
 16 C      5.7610     6.0000     0.2390     3.7932     3.7932     0.0000
 17 C      6.0542     6.0000    -0.0542     3.9901     3.9901    -0.0000
 18 C      6.1910     6.0000    -0.1910     3.7353     3.7353    -0.0000
 19 C      5.7740     6.0000     0.2260     3.8862     3.8862     0.0000
 20 C      5.7939     6.0000     0.2061     3.8241     3.8241    -0.0000
 21 C      6.0721     6.0000    -0.0721     3.9032     3.9032     0.0000
 22 C      6.0853     6.0000    -0.0853     3.9838     3.9838     0.0000
 23 C      6.0518     6.0000    -0.0518     3.9892     3.9892     0.0000
 24 C      5.7908     6.0000     0.2092     3.8242     3.8242    -0.0000
 25 C      5.8864     6.0000     0.1136     3.8894     3.8894     0.0000
 26 C      6.0729     6.0000    -0.0729     3.9029     3.9029    -0.0000
 27 C      5.7730     6.0000     0.2270     3.8873     3.8873    -0.0000
 28 C      6.0498     6.0000    -0.0498     3.9879     3.9879    -0.0000
 29 C      6.1870     6.0000    -0.1870     3.7327     3.7327    -0.0000
 30 C      5.7669     6.0000     0.2331     3.7906     3.7906     0.0000
 31 C      5.7924     6.0000     0.2076     3.8283     3.8283    -0.0000
 32 C      6.0650     6.0000    -0.0650     3.9169     3.9169     0.0000
 33 C      6.0847     6.0000    -0.0847     3.9849     3.9849    -0.0000
 34 C      6.0497     6.0000    -0.0497     3.9932     3.9932     0.0000
 35 C      5.8002     6.0000     0.1998     3.8258     3.8258    -0.0000
 36 C      5.8848     6.0000     0.1152     3.8945     3.8945     0.0000
 37 C      6.0671     6.0000    -0.0671     3.9172     3.9172    -0.0000
 38 C      5.7614     6.0000     0.2386     3.7991     3.7991    -0.0000
 39 C      6.0624     6.0000    -0.0624     3.9924     3.9924    -0.0000
 40 C      6.1913     6.0000    -0.1913     3.7428     3.7428    -0.0000
 41 C      5.7807     6.0000     0.2193     3.8798     3.8798    -0.0000
 42 C      5.7952     6.0000     0.2048     3.8282     3.8282     0.0000
 43 C      6.0744     6.0000    -0.0744     3.9037     3.9037    -0.0000
 44 C      6.0888     6.0000    -0.0888     3.9853     3.9853     0.0000
 45 C      6.0505     6.0000    -0.0505     3.9929     3.9929    -0.0000
 46 C      5.7993     6.0000     0.2007     3.8248     3.8248    -0.0000
 47 C      5.8843     6.0000     0.1157     3.8941     3.8941     0.0000
 48 C      6.0765     6.0000    -0.0765     3.9025     3.9025     0.0000
 49 C      5.7771     6.0000     0.2229     3.8812     3.8812    -0.0000
 50 C      6.0548     6.0000    -0.0548     3.9901     3.9901    -0.0000
 51 C      6.1903     6.0000    -0.1903     3.7373     3.7373     0.0000
 52 H      0.9419     1.0000     0.0581     0.9848     0.9848     0.0000
 53 H      1.0134     1.0000    -0.0134     0.9996     0.9996     0.0000
 54 H      0.9513     1.0000     0.0487     1.0069     1.0069     0.0000
 55 H      0.9432     1.0000     0.0568     0.9854     0.9854     0.0000
 56 H      0.9369     1.0000     0.0631     0.9718     0.9718    -0.0000
 57 H      0.9406     1.0000     0.0594     0.9832     0.9832    -0.0000
 58 H      0.9414     1.0000     0.0586     0.9863     0.9863     0.0000
 59 H      1.0159     1.0000    -0.0159     0.9985     0.9985    -0.0000
 60 H      0.9536     1.0000     0.0464     1.0092     1.0092     0.0000
 61 H      0.8267     1.0000     0.1733     1.0427     1.0427     0.0000
 62 H      0.8278     1.0000     0.1722     1.0435     1.0435     0.0000
 63 H      0.9429     1.0000     0.0571     0.9855     0.9855    -0.0000
 64 H      1.0231     1.0000    -0.0231     0.9948     0.9948     0.0000
 65 H      0.9538     1.0000     0.0462     1.0091     1.0091     0.0000
 66 H      0.9420     1.0000     0.0580     0.9848     0.9848     0.0000
 67 H      0.9370     1.0000     0.0630     0.9719     0.9719     0.0000
 68 H      0.9417     1.0000     0.0583     0.9867     0.9867    -0.0000
 69 H      0.9405     1.0000     0.0595     0.9830     0.9830    -0.0000
 70 H      1.0233     1.0000    -0.0233     0.9945     0.9945     0.0000
 71 H      0.9512     1.0000     0.0488     1.0068     1.0068    -0.0000
 72 H      0.9466     1.0000     0.0534     0.9852     0.9852     0.0000
 73 H      1.0152     1.0000    -0.0152     0.9982     0.9982     0.0000
 74 H      0.9560     1.0000     0.0440     1.0099     1.0099     0.0000
 75 H      0.9477     1.0000     0.0523     0.9858     0.9858     0.0000
 76 H      0.9405     1.0000     0.0595     0.9714     0.9714     0.0000
 77 H      0.9438     1.0000     0.0562     0.9850     0.9850     0.0000
 78 H      0.9446     1.0000     0.0554     0.9845     0.9845     0.0000
 79 H      1.0133     1.0000    -0.0133     0.9999     0.9999     0.0000
 80 H      0.9559     1.0000     0.0441     1.0069     1.0069    -0.0000
 81 H      0.9467     1.0000     0.0533     0.9854     0.9854    -0.0000
 82 H      1.0238     1.0000    -0.0238     0.9943     0.9943    -0.0000
 83 H      0.9569     1.0000     0.0431     1.0096     1.0096    -0.0000
 84 H      0.9474     1.0000     0.0526     0.9857     0.9857     0.0000
 85 H      0.9416     1.0000     0.0584     0.9715     0.9715    -0.0000
 86 H      0.9436     1.0000     0.0564     0.9840     0.9840     0.0000
 87 H      0.9435     1.0000     0.0565     0.9855     0.9855     0.0000
 88 H      1.0237     1.0000    -0.0237     0.9939     0.9939     0.0000
 89 H      0.9555     1.0000     0.0445     1.0066     1.0066     0.0000

  Mayer bond orders larger than 0.100000
B(  0-C ,  1-N ) :   1.1278 B(  0-C , 17-C ) :   1.6205 B(  0-C , 52-H ) :   0.9690 
B(  1-N ,  8-C ) :   1.1219 B(  1-N , 10-C ) :   0.9579 B(  2-C , 12-C ) :   1.5413 
B(  2-C , 16-C ) :   1.3163 B(  2-C , 53-H ) :   0.9781 B(  3-N , 14-C ) :   1.1982 
B(  3-N , 16-C ) :   1.1965 B(  3-N , 61-H ) :   0.8981 B(  4-C ,  6-C ) :   1.2748 
B(  4-C , 17-C ) :   1.2788 B(  4-C , 18-C ) :   1.2385 B(  5-N , 19-C ) :   1.4113 
B(  5-N , 27-C ) :   1.4117 B(  6-C ,  8-C ) :   1.6248 B(  6-C , 54-H ) :   0.9712 
B(  7-N , 30-C ) :   1.1908 B(  7-N , 38-C ) :   1.2042 B(  7-N , 62-H ) :   0.8987 
B(  8-C , 55-H ) :   0.9701 B(  9-N , 41-C ) :   1.4112 B(  9-N , 49-C ) :   1.4139 
B( 10-C , 56-H ) :   0.9763 B( 10-C , 57-H ) :   0.9822 B( 10-C , 58-H ) :   0.9829 
B( 11-N , 20-C ) :   1.1228 B( 11-N , 24-C ) :   1.1276 B( 11-N , 25-C ) :   0.9576 
B( 12-C , 14-C ) :   1.3175 B( 12-C , 59-H ) :   0.9777 B( 13-N , 31-C ) :   1.1180 
B( 13-N , 35-C ) :   1.1095 B( 13-N , 36-C ) :   0.9631 B( 14-C , 18-C ) :   1.2066 
B( 15-N , 42-C ) :   1.1177 B( 15-N , 46-C ) :   1.1114 B( 15-N , 47-C ) :   0.9627 
B( 16-C , 51-C ) :   1.2073 B( 17-C , 60-H ) :   0.9711 B( 18-C , 19-C ) :   1.2264 
B( 19-C , 21-C ) :   1.2070 B( 20-C , 28-C ) :   1.6213 B( 20-C , 63-H ) :   0.9703 
B( 21-C , 26-C ) :   1.6455 B( 21-C , 64-H ) :   0.9737 B( 22-C , 23-C ) :   1.2811 
B( 22-C , 28-C ) :   1.2779 B( 22-C , 29-C ) :   1.2303 B( 23-C , 24-C ) :   1.6182 
B( 23-C , 65-H ) :   0.9711 B( 24-C , 66-H ) :   0.9690 B( 25-C , 67-H ) :   0.9762 
B( 25-C , 68-H ) :   0.9830 B( 25-C , 69-H ) :   0.9820 B( 26-C , 27-C ) :   1.2054 
B( 26-C , 70-H ) :   0.9735 B( 27-C , 29-C ) :   1.2297 B( 28-C , 71-H ) :   0.9713 
B( 29-C , 30-C ) :   1.2090 B( 30-C , 32-C ) :   1.3158 B( 31-C , 39-C ) :   1.6384 
B( 31-C , 72-H ) :   0.9698 B( 32-C , 37-C ) :   1.5426 B( 32-C , 73-H ) :   0.9776 
B( 33-C , 34-C ) :   1.2692 B( 33-C , 39-C ) :   1.2614 B( 33-C , 40-C ) :   1.2640 
B( 34-C , 35-C ) :   1.6355 B( 34-C , 74-H ) :   0.9705 B( 35-C , 75-H ) :   0.9699 
B( 36-C , 76-H ) :   0.9762 B( 36-C , 77-H ) :   0.9822 B( 36-C , 78-H ) :   0.9832 
B( 37-C , 38-C ) :   1.3163 B( 37-C , 79-H ) :   0.9780 B( 38-C , 40-C ) :   1.2054 
B( 39-C , 80-H ) :   0.9716 B( 40-C , 41-C ) :   1.2099 B( 41-C , 43-C ) :   1.2222 
B( 42-C , 50-C ) :   1.6344 B( 42-C , 81-H ) :   0.9696 B( 43-C , 48-C ) :   1.6291 
B( 43-C , 82-H ) :   0.9739 B( 44-C , 45-C ) :   1.2723 B( 44-C , 50-C ) :   1.2648 
B( 44-C , 51-C ) :   1.2553 B( 45-C , 46-C ) :   1.6322 B( 45-C , 83-H ) :   0.9710 
B( 46-C , 84-H ) :   0.9703 B( 47-C , 85-H ) :   0.9761 B( 47-C , 86-H ) :   0.9828 
B( 47-C , 87-H ) :   0.9826 B( 48-C , 49-C ) :   1.2210 B( 48-C , 88-H ) :   0.9736 
B( 49-C , 51-C ) :   1.2123 B( 50-C , 89-H ) :   0.9714 

-------
TIMINGS
-------

Total SCF time: 0 days 0 hours 29 min 41 sec 

Total time                  ....    1781.229 sec
Sum of individual times     ....    1776.729 sec  ( 99.7%)

Fock matrix formation       ....    1754.102 sec  ( 98.5%)
Diagonalization             ....       6.896 sec  (  0.4%)
Density matrix formation    ....       0.684 sec  (  0.0%)
Population analysis         ....       0.517 sec  (  0.0%)
Initial guess               ....       2.064 sec  (  0.1%)
Orbital Transformation      ....       0.000 sec  (  0.0%)
Orbital Orthonormalization  ....       0.000 sec  (  0.0%)
DIIS solution               ....       3.485 sec  (  0.2%)
SOSCF solution              ....       7.928 sec  (  0.4%)

Maximum memory used throughout the entire SCF-calculation: 302.6 MB


           ************************************************************
           *        Program running with 16 parallel MPI-processes    *
           *              working on a common directory               *
           ************************************************************

------------------------------------------------------------------------------
                                ORCA  MP2 
------------------------------------------------------------------------------

Freezing NCore=104 chemical core electrons

----------
MP2 ENERGY (disk based algorithm)
----------

Dimension of the basis                    ...  918
Memory devoted to MP2                     ... 2000 MB   
Data format for buffers                   ... DOUBLE
Compression type for matrix containers    ... UNCOMPRESSED

-------------------------------
PARTIAL EXCHANGE TRANSFORMATION
-------------------------------

Transformation type                        ... one-operator
Generation of integrals (i,mue|j,nue)      ... ON
Generation of integrals (mue,kappa|nue,tau)... OFF
Generation of integrals (i,mue|a,nue)      ... OFF
Dimension of the basis                     ...  918
Number of internal MOs                     ...  127 (  52- 178)
Pair cutoff                                ... 2.500e-12 Eh
Number of AO pairs in the trafo            ... 421821
Total Number of distinct AO pairs          ... 421821
Memory devoted for trafo                   ... 2000.0 MB 
Max. Number of MO pairs treated together   ...  311      
Number Format for Storage                  ... Double (8 Byte)
Integral package used                      ... LIBINT

Starting integral evaluation:
    ... done with AO integral generation
Closing buffer AOK     (38.40 GB; CompressionRatio= 1.32)
Collecting buffer AOK 
Number of MO pairs included in the trafo   ... 8128
------------------------
SORTING OF (i,mue|j,nue)
------------------------

IBATCH = 1 of  2
IBATCH = 2 of  2
Closing buffer KAO     (51.03 GB; CompressionRatio= 1.00)
Collecting buffer KAO 
N(AO-Batches) Done                         ...  84346561 
N(AO-Batches) Skipped                      ...  83472050 
N(IJ)-pairs Skipped                        ...         0 
TOTAL TIME for half transformation         ...  3360.845 sec
AO-integral generation                     ...   209.979 sec
Half transformation                        ...   374.088 sec
K-integral sorting                         ...  2587.970 sec
Process 13:   Internal MO 156
Process 10:   Internal MO 132
Process  4:   Internal MO  84
Process  1:   Internal MO  60

Finished integral transformation - now doing MP2 part

OPERATOR COMBINATION   0   0: ij=( 52..178, 52..178)
Process  7:   Internal MO 108
Process  0:   Internal MO  54
Process  2:   Internal MO  69
Process  0:   Internal MO  57
Process  1:   Internal MO  63
Process  5:   Internal MO  93
Process  3:   Internal MO  78
Process  8:   Internal MO 117
Process  2:   Internal MO  72
Process  1:   Internal MO  66
Process 11:   Internal MO 141
Process  4:   Internal MO  87
Process  6:   Internal MO 102
Process 14:   Internal MO 165
Process  2:   Internal MO  75
Process  3:   Internal MO  81
Process  9:   Internal MO 126
Process  5:   Internal MO  96
Process  7:   Internal MO 111
Process 12:   Internal MO 150
Process  4:   Internal MO  90
Process 10:   Internal MO 135
Process 15:   Internal MO 174
Process  6:   Internal MO 105
Process  8:   Internal MO 120
Process 13:   Internal MO 159
Process  5:   Internal MO  99
Process  7:   Internal MO 114
Process 11:   Internal MO 144
Process  9:   Internal MO 129
Process 14:   Internal MO 168
Process  8:   Internal MO 123
Process 10:   Internal MO 138
Process 12:   Internal MO 153
Process 15:   Internal MO 177
Process 13:   Internal MO 162
Process 11:   Internal MO 147
Process 14:   Internal MO 171
-----------------------------------------------
 MP2 CORRELATION ENERGY   :     -7.289874414 Eh
-----------------------------------------------


-------
TIMINGS
-------
Total time                : 3895.722 sec
Integral trafo            : 3363.032 sec ( 86.3%)
K(i,j)                    :    7.670 sec (  0.2%)
T(i,j)                    :    0.089 sec (  0.0%)

---------------------------------------
MP2 TOTAL ENERGY:    -2130.911901102 Eh
---------------------------------------

Maximum memory used throughout the entire MP2-calculation: 2275.2 MB

-------------------------   --------------------
FINAL SINGLE POINT ENERGY     -2130.911901102355
-------------------------   --------------------


                            ***************************************
                            *     ORCA property calculations      *
                            ***************************************


  WARNING: The energy has been calculated at the MP2 level but the densities
           used in the property calculations are still SCF densities
           MP2 response densities have not been calculated 
           use %mp2 Density relaxed end
           or  %mp2 Density unrelaxed end

                                    ---------------------
                                    Active property flags
                                    ---------------------
   (+) Dipole Moment


------------------------------------------------------------------------------
                       ORCA ELECTRIC PROPERTIES CALCULATION
------------------------------------------------------------------------------

Dipole Moment Calculation                       ... on
Quadrupole Moment Calculation                   ... off
Polarizability Calculation                      ... off
GBWName                                         ... /scratch/allen/tmpyp4_amber_gaff2/conf1/conf1/Conf116.orca.gbw
Electron density                                ... /scratch/allen/tmpyp4_amber_gaff2/conf1/conf1/Conf116.orca.scfp
The origin for moment calculation is the CENTER OF MASS  = ( 0.002650, -0.002351  0.003369)

-------------
DIPOLE MOMENT
-------------
                                X             Y             Z
Electronic contribution:     -0.92808       0.00870      -0.19694
Nuclear contribution   :     -0.00205       0.18407       0.22445
                        -----------------------------------------
Total Dipole Moment    :     -0.93013       0.19277       0.02752
                        -----------------------------------------
Magnitude (a.u.)       :      0.95029
Magnitude (Debye)      :      2.41545



--------------------
Rotational spectrum 
--------------------
 
Rotational constants in cm-1:     0.001498     0.001474     0.000762 
Rotational constants in MHz :    44.909423    44.185413    22.853964 

 Dipole components along the rotational axes: 
x,y,z [a.u.] :    -0.937288    -0.154054     0.028476 
x,y,z [Debye]:    -2.382398    -0.391574     0.072380 

 

Timings for individual modules:

Sum of individual times         ...     5705.793 sec (=  95.097 min)
GTO integral calculation        ...        3.281 sec (=   0.055 min)   0.1 %
SCF iterations                  ...     1782.302 sec (=  29.705 min)  31.2 %
MP2 module                      ...     3920.210 sec (=  65.337 min)  68.7 %
                             ****ORCA TERMINATED NORMALLY****
TOTAL RUN TIME: 0 days 1 hours 35 minutes 9 seconds 266 msec
# of primitive gaussian functions

