
                                 *****************
                                 * O   R   C   A *
                                 *****************

                                            #,                                       
                                            ###                                      
                                            ####                                     
                                            #####                                    
                                            ######                                   
                                           ########,                                 
                                     ,,################,,,,,                         
                               ,,#################################,,                 
                          ,,##########################################,,             
                       ,#########################################, ''#####,          
                    ,#############################################,,   '####,        
                  ,##################################################,,,,####,       
                ,###########''''           ''''###############################       
              ,#####''   ,,,,##########,,,,          '''####'''          '####       
            ,##' ,,,,###########################,,,                        '##       
           ' ,,###''''                  '''############,,,                           
         ,,##''                                '''############,,,,        ,,,,,,###''
      ,#''                                            '''#######################'''  
     '                                                          ''''####''''         
             ,#######,   #######,   ,#######,      ##                                
            ,#'     '#,  ##    ##  ,#'     '#,    #''#        ######   ,####,        
            ##       ##  ##   ,#'  ##            #'  '#       #        #'  '#        
            ##       ##  #######   ##           ,######,      #####,   #    #        
            '#,     ,#'  ##    ##  '#,     ,#' ,#      #,         ##   #,  ,#        
             '#######'   ##     ##  '#######'  #'      '#     #####' # '####'        



                  #######################################################
                  #                        -***-                        #
                  #          Department of theory and spectroscopy      #
                  #    Directorship and core code : Frank Neese         #
                  #        Max Planck Institute fuer Kohlenforschung    #
                  #                Kaiser Wilhelm Platz 1               #
                  #                 D-45470 Muelheim/Ruhr               #
                  #                      Germany                        #
                  #                                                     #
                  #                  All rights reserved                #
                  #                        -***-                        #
                  #######################################################


                         Program Version 5.0.4 -  RELEASE  -


 With contributions from (in alphabetic order):
   Daniel Aravena         : Magnetic Suceptibility
   Michael Atanasov       : Ab Initio Ligand Field Theory (pilot matlab implementation)
   Alexander A. Auer      : GIAO ZORA, VPT2 properties, NMR spectrum
   Ute Becker             : Parallelization
   Giovanni Bistoni       : ED, misc. LED, open-shell LED, HFLD
   Martin Brehm           : Molecular dynamics
   Dmytro Bykov           : SCF Hessian
   Vijay G. Chilkuri      : MRCI spin determinant printing, contributions to CSF-ICE
   Dipayan Datta          : RHF DLPNO-CCSD density
   Achintya Kumar Dutta   : EOM-CC, STEOM-CC
   Dmitry Ganyushin       : Spin-Orbit,Spin-Spin,Magnetic field MRCI
   Miquel Garcia          : C-PCM and meta-GGA Hessian, CC/C-PCM, Gaussian charge scheme
   Yang Guo               : DLPNO-NEVPT2, F12-NEVPT2, CIM, IAO-localization
   Andreas Hansen         : Spin unrestricted coupled pair/coupled cluster methods
   Benjamin Helmich-Paris : MC-RPA, TRAH-SCF, COSX integrals
   Lee Huntington         : MR-EOM, pCC
   Robert Izsak           : Overlap fitted RIJCOSX, COSX-SCS-MP3, EOM
   Marcus Kettner         : VPT2
   Christian Kollmar      : KDIIS, OOCD, Brueckner-CCSD(T), CCSD density, CASPT2, CASPT2-K
   Simone Kossmann        : Meta GGA functionals, TD-DFT gradient, OOMP2, MP2 Hessian
   Martin Krupicka        : Initial AUTO-CI
   Lucas Lang             : DCDCAS
   Marvin Lechner         : AUTO-CI (C++ implementation), FIC-MRCC
   Dagmar Lenk            : GEPOL surface, SMD
   Dimitrios Liakos       : Extrapolation schemes; Compound Job, initial MDCI parallelization
   Dimitrios Manganas     : Further ROCIS development; embedding schemes
   Dimitrios Pantazis     : SARC Basis sets
   Anastasios Papadopoulos: AUTO-CI, single reference methods and gradients
   Taras Petrenko         : DFT Hessian,TD-DFT gradient, ASA, ECA, R-Raman, ABS, FL, XAS/XES, NRVS
   Peter Pinski           : DLPNO-MP2, DLPNO-MP2 Gradient
   Christoph Reimann      : Effective Core Potentials
   Marius Retegan         : Local ZFS, SOC
   Christoph Riplinger    : Optimizer, TS searches, QM/MM, DLPNO-CCSD(T), (RO)-DLPNO pert. Triples
   Tobias Risthaus        : Range-separated hybrids, TD-DFT gradient, RPA, STAB
   Michael Roemelt        : Original ROCIS implementation
   Masaaki Saitow         : Open-shell DLPNO-CCSD energy and density
   Barbara Sandhoefer     : DKH picture change effects
   Avijit Sen             : IP-ROCIS
   Kantharuban Sivalingam : CASSCF convergence, NEVPT2, FIC-MRCI
   Bernardo de Souza      : ESD, SOC TD-DFT
   Georgi Stoychev        : AutoAux, RI-MP2 NMR, DLPNO-MP2 response
   Willem Van den Heuvel  : Paramagnetic NMR
   Boris Wezisla          : Elementary symmetry handling
   Frank Wennmohs         : Technical directorship


 We gratefully acknowledge several colleagues who have allowed us to
 interface, adapt or use parts of their codes:
   Stefan Grimme, W. Hujo, H. Kruse, P. Pracht,  : VdW corrections, initial TS optimization,
                  C. Bannwarth, S. Ehlert          DFT functionals, gCP, sTDA/sTD-DF
   Ed Valeev, F. Pavosevic, A. Kumar             : LibInt (2-el integral package), F12 methods
   Garnet Chan, S. Sharma, J. Yang, R. Olivares  : DMRG
   Ulf Ekstrom                                   : XCFun DFT Library
   Mihaly Kallay                                 : mrcc  (arbitrary order and MRCC methods)
   Jiri Pittner, Ondrej Demel                    : Mk-CCSD
   Frank Weinhold                                : gennbo (NPA and NBO analysis)
   Christopher J. Cramer and Donald G. Truhlar   : smd solvation model
   Lars Goerigk                                  : TD-DFT with DH, B97 family of functionals
   V. Asgeirsson, H. Jonsson                     : NEB implementation
   FAccTs GmbH                                   : IRC, NEB, NEB-TS, DLPNO-Multilevel, CI-OPT
                                                   MM, QMMM, 2- and 3-layer-ONIOM, Crystal-QMMM,
                                                   LR-CPCM, SF, NACMEs, symmetry and pop. for TD-DFT,
                                                   nearIR, NL-DFT gradient (VV10), updates on ESD,
                                                   ML-optimized integration grids
   S Lehtola, MJT Oliveira, MAL Marques          : LibXC Library
   Liviu Ungur et al                             : ANISO software


 Your calculation uses the libint2 library for the computation of 2-el integrals
 For citations please refer to: http://libint.valeyev.net

 Your ORCA version has been built with support for libXC version: 5.1.0
 For citations please refer to: https://tddft.org/programs/libxc/

 This ORCA versions uses:
   CBLAS   interface :  Fast vector & matrix operations
   LAPACKE interface :  Fast linear algebra routines
   SCALAPACK package :  Parallel linear algebra routines
   Shared memory     :  Shared parallel matrices
   BLAS/LAPACK       :  OpenBLAS 0.3.15  USE64BITINT DYNAMIC_ARCH NO_AFFINITY Sandybridge SINGLE_THREADED
        Core in use  :  Sandybridge
   Copyright (c) 2011-2014, The OpenBLAS Project


================================================================================

----- Orbital basis set information -----
Your calculation utilizes the basis: cc-pVDZ 
       H, B-Ne : Obtained from the ccRepo (grant-hill.group.shef.ac.uk/ccrepo) Feb. 2017
                 T. H. Dunning, Jr., J. Chem. Phys. 90, 1007 (1989)
            He : Obtained from the ccRepo (grant-hill.group.shef.ac.uk/ccrepo) Feb. 2017
                 D. E. Woon, T. H. Dunning, Jr., J. Chem. Phys. 100, 2975 (1994)
  Li-Be, Na-Mg : Obtained from the ccRepo (grant-hill.group.shef.ac.uk/ccrepo) Feb. 2017
                 B. P. Prascher, D. E. Woon, K. A. Peterson, T. H. Dunning, Jr., A. K. Wilson, Theor. Chem. Acc. 128, 69 (2011)
         Al-Ar : Obtained from the ccRepo (grant-hill.group.shef.ac.uk/ccrepo) Feb. 2017
                 D. E. Woon, T. H. Dunning, Jr., J. Chem. Phys. 98, 1358 (1993)
            Ca : Obtained from the Peterson Research Group Website (tyr0.chem.wsu.edu/~kipeters) Feb. 2017
                 J. Koput, K. A. Peterson, J. Phys. Chem. 106, 9595 (2002)
         Sc-Zn : Obtained from the ccRepo (grant-hill.group.shef.ac.uk/ccrepo) Feb. 2017
                 N. B. Balabanov, K. A. Peterson, J. Chem. Phys. 123, 064107 (2005)
                 N. B. Balabanov, K. A. Peterson, J. Chem. Phys. 125, 074110 (2006)
         Ga-Kr : Obtained from the ccRepo (grant-hill.group.shef.ac.uk/ccrepo) Feb. 2017
                 A. K. Wilson, D. E. Woon, K. A. Peterson, T. H. Dunning, Jr., J. Chem. Phys. 110, 7667 (1999)

================================================================================
                                        WARNINGS
                       Please study these warnings very carefully!
================================================================================


WARNING: No MP2 level density has been requested!
         To caclulate MP2 level properties use
         %mp2 Density relaxed end
         or
         %mp2 Density unrelaxed end

WARNING: Post HF methods need fully converged wavefunctions
  ===> : Setting SCFConvForced true
         You can overwrite this default with %scf ConvForced false 


INFO   : the flag for use of the SHARK integral package has been found!

================================================================================
                                       INPUT FILE
================================================================================
NAME = /scratch/allen/tmpyp4_amber_gaff2/2.Mdgx/conf11/conf11/Conf245.orca
|  1> ! PAL2
|  2> ! mp2 cc-pvdz TightSCF  NoKeepInts
|  3> 
|  4> %scf
|  5>   MaxCore 2000
|  6> end
|  7> %mp2
|  8>   MaxCore 2000
|  9> end
| 10> * xyz 0 1
| 11>    C       -4.42500         5.52300         1.11900
| 12>    C        1.47400         4.04100         0.05700
| 13>    C       -2.80200         4.09300         0.04900
| 14>    C       -2.77600         5.00600        -1.01700
| 15>    C       -3.56500         6.13800        -0.97900
| 16>    C       -5.18200         7.62300         0.10300
| 17>    C        0.13200         4.30700         0.06100
| 18>    C       -0.56900         3.05600         0.04700
| 19>    C        1.64900         2.61800         0.02300
| 20>    C       -3.65000         4.38000         1.13000
| 21>    N       -4.37700         6.38200         0.07600
| 22>    N        0.38800         2.06700         0.02500
| 23>    N       -2.01000         0.39500        -0.07500
| 24>    N       -0.38800        -2.07400        -0.02700
| 25>    N        2.01000        -0.40100         0.06500
| 26>    C       -1.96000         2.86100         0.02400
| 27>    C       -2.62300         1.61500        -0.01800
| 28>    C       -5.57300        -4.32900         1.06600
| 29>    C       -4.07300         1.47100         0.05600
| 30>    C       -4.10600        -2.75600        -0.02600
| 31>    C       -4.99500        -2.75700        -1.11100
| 32>    C       -6.13200        -3.54200        -1.07600
| 33>    C       -7.65100        -5.11300         0.04000
| 34>    C       -4.32400         0.14100         0.03700
| 35>    C       -3.02500        -0.52000        -0.04800
| 36>    C       -4.42200        -3.56600         1.07500
| 37>    N       -6.40700        -4.31300         0.00100
| 38>    C       -2.86700        -1.92200        -0.04000
| 39>    C       -1.65000        -2.62400        -0.02700
| 40>    C        3.56800        -6.14200        -1.04000
| 41>    C       -1.47600        -4.04900        -0.03400
| 42>    C        2.80300        -4.09900        -0.00800
| 43>    C        3.65700        -4.38400         1.06900
| 44>    C        4.42700        -5.53000         1.05900
| 45>    C        5.24500        -7.58800         0.01400
| 46>    C       -0.13400        -4.31500        -0.02200
| 47>    C        0.56800        -3.06400        -0.02700
| 48>    C        2.77500        -5.01200        -1.07400
| 49>    N        4.37600        -6.39100         0.01700
| 50>    C        1.95900        -2.86900        -0.00900
| 51>    C        2.62100        -1.62200         0.00900
| 52>    C        5.54300         4.33900        -1.13000
| 53>    C        4.07000        -1.47900        -0.09400
| 54>    C        4.10400         2.75100        -0.02100
| 55>    C        5.02700         2.72900         1.03600
| 56>    C        6.16600         3.50900         0.97800
| 57>    C        7.61900         5.15300        -0.11500
| 58>    C        4.32100        -0.14800        -0.09200
| 59>    C        3.02500         0.51400         0.01500
| 60>    C        4.38700         3.58200        -1.11500
| 61>    C        2.86600         1.91600         0.01300
| 62>    N        6.41300         4.29600        -0.09500
| 63>    H       -5.10200         5.77800         1.92500
| 64>    H        2.27400         4.76600         0.08100
| 65>    H       -2.13500         4.84500        -1.87500
| 66>    H       -3.57200         6.87500        -1.77200
| 67>    H       -4.57500         8.43200         0.51600
| 68>    H       -5.48700         7.86600        -0.91500
| 69>    H       -6.06000         7.45800         0.72600
| 70>    H       -0.33200         5.28200         0.06900
| 71>    H       -3.72500         3.70700         1.97600
| 72>    H        0.18200         1.07200         0.00500
| 73>    H       -0.18300        -1.08000        -0.02100
| 74>    H       -5.86400        -4.96200         1.89500
| 75>    H       -4.79400         2.27200         0.13900
| 76>    H       -4.80000        -2.16000        -1.99400
| 77>    H       -6.84100        -3.58200        -1.89300
| 78>    H       -8.42800        -4.53600         0.54600
| 79>    H       -7.95600        -5.33700        -0.98100
| 80>    H       -7.45600        -6.03700         0.58400
| 81>    H       -5.28700        -0.34400         0.10000
| 82>    H       -3.78000        -3.60100         1.94700
| 83>    H        3.58700        -6.86800        -1.84300
| 84>    H       -2.27600        -4.77400        -0.05000
| 85>    H        3.71400        -3.72400         1.92600
| 86>    H        5.09200        -5.79500         1.87100
| 87>    H        6.20500        -7.32900        -0.43900
| 88>    H        5.39300        -7.91700         1.04200
| 89>    H        4.75900        -8.37300        -0.56400
| 90>    H        0.32900        -5.29000        -0.00800
| 91>    H        2.14600        -4.84200        -1.94000
| 92>    H        5.80800         4.98600        -1.95600
| 93>    H        4.78800        -2.28100        -0.18500
| 94>    H        4.86000         2.11400         1.91200
| 95>    H        6.90100         3.53100         1.77200
| 96>    H        7.38300         6.10900         0.35600
| 97>    H        8.41400         4.65200         0.43500
| 98>    H        7.92100         5.31000        -1.15000
| 99>    H        5.28300         0.33600        -0.17900
|100>    H        3.72000         3.63200        -1.96700
|101> *
|102> 
|103>                          ****END OF INPUT****
================================================================================

                       ****************************
                       * Single Point Calculation *
                       ****************************

---------------------------------
CARTESIAN COORDINATES (ANGSTROEM)
---------------------------------
  C     -4.425000    5.523000    1.119000
  C      1.474000    4.041000    0.057000
  C     -2.802000    4.093000    0.049000
  C     -2.776000    5.006000   -1.017000
  C     -3.565000    6.138000   -0.979000
  C     -5.182000    7.623000    0.103000
  C      0.132000    4.307000    0.061000
  C     -0.569000    3.056000    0.047000
  C      1.649000    2.618000    0.023000
  C     -3.650000    4.380000    1.130000
  N     -4.377000    6.382000    0.076000
  N      0.388000    2.067000    0.025000
  N     -2.010000    0.395000   -0.075000
  N     -0.388000   -2.074000   -0.027000
  N      2.010000   -0.401000    0.065000
  C     -1.960000    2.861000    0.024000
  C     -2.623000    1.615000   -0.018000
  C     -5.573000   -4.329000    1.066000
  C     -4.073000    1.471000    0.056000
  C     -4.106000   -2.756000   -0.026000
  C     -4.995000   -2.757000   -1.111000
  C     -6.132000   -3.542000   -1.076000
  C     -7.651000   -5.113000    0.040000
  C     -4.324000    0.141000    0.037000
  C     -3.025000   -0.520000   -0.048000
  C     -4.422000   -3.566000    1.075000
  N     -6.407000   -4.313000    0.001000
  C     -2.867000   -1.922000   -0.040000
  C     -1.650000   -2.624000   -0.027000
  C      3.568000   -6.142000   -1.040000
  C     -1.476000   -4.049000   -0.034000
  C      2.803000   -4.099000   -0.008000
  C      3.657000   -4.384000    1.069000
  C      4.427000   -5.530000    1.059000
  C      5.245000   -7.588000    0.014000
  C     -0.134000   -4.315000   -0.022000
  C      0.568000   -3.064000   -0.027000
  C      2.775000   -5.012000   -1.074000
  N      4.376000   -6.391000    0.017000
  C      1.959000   -2.869000   -0.009000
  C      2.621000   -1.622000    0.009000
  C      5.543000    4.339000   -1.130000
  C      4.070000   -1.479000   -0.094000
  C      4.104000    2.751000   -0.021000
  C      5.027000    2.729000    1.036000
  C      6.166000    3.509000    0.978000
  C      7.619000    5.153000   -0.115000
  C      4.321000   -0.148000   -0.092000
  C      3.025000    0.514000    0.015000
  C      4.387000    3.582000   -1.115000
  C      2.866000    1.916000    0.013000
  N      6.413000    4.296000   -0.095000
  H     -5.102000    5.778000    1.925000
  H      2.274000    4.766000    0.081000
  H     -2.135000    4.845000   -1.875000
  H     -3.572000    6.875000   -1.772000
  H     -4.575000    8.432000    0.516000
  H     -5.487000    7.866000   -0.915000
  H     -6.060000    7.458000    0.726000
  H     -0.332000    5.282000    0.069000
  H     -3.725000    3.707000    1.976000
  H      0.182000    1.072000    0.005000
  H     -0.183000   -1.080000   -0.021000
  H     -5.864000   -4.962000    1.895000
  H     -4.794000    2.272000    0.139000
  H     -4.800000   -2.160000   -1.994000
  H     -6.841000   -3.582000   -1.893000
  H     -8.428000   -4.536000    0.546000
  H     -7.956000   -5.337000   -0.981000
  H     -7.456000   -6.037000    0.584000
  H     -5.287000   -0.344000    0.100000
  H     -3.780000   -3.601000    1.947000
  H      3.587000   -6.868000   -1.843000
  H     -2.276000   -4.774000   -0.050000
  H      3.714000   -3.724000    1.926000
  H      5.092000   -5.795000    1.871000
  H      6.205000   -7.329000   -0.439000
  H      5.393000   -7.917000    1.042000
  H      4.759000   -8.373000   -0.564000
  H      0.329000   -5.290000   -0.008000
  H      2.146000   -4.842000   -1.940000
  H      5.808000    4.986000   -1.956000
  H      4.788000   -2.281000   -0.185000
  H      4.860000    2.114000    1.912000
  H      6.901000    3.531000    1.772000
  H      7.383000    6.109000    0.356000
  H      8.414000    4.652000    0.435000
  H      7.921000    5.310000   -1.150000
  H      5.283000    0.336000   -0.179000
  H      3.720000    3.632000   -1.967000

----------------------------
CARTESIAN COORDINATES (A.U.)
----------------------------
  NO LB      ZA    FRAG     MASS         X           Y           Z
   0 C     6.0000    0    12.011   -8.362038   10.436957    2.114604
   1 C     6.0000    0    12.011    2.785456    7.636383    0.107714
   2 C     6.0000    0    12.011   -5.295013    7.734649    0.092597
   3 C     6.0000    0    12.011   -5.245880    9.459969   -1.921851
   4 C     6.0000    0    12.011   -6.736874   11.599139   -1.850042
   5 C     6.0000    0    12.011   -9.792561   14.405382    0.194642
   6 C     6.0000    0    12.011    0.249444    8.139050    0.115273
   7 C     6.0000    0    12.011   -1.075254    5.775003    0.088817
   8 C     6.0000    0    12.011    3.116158    4.947303    0.043464
   9 C     6.0000    0    12.011   -6.897500    8.277000    2.135391
  10 N     7.0000    0    14.007   -8.271331   12.060232    0.143619
  11 N     7.0000    0    14.007    0.733214    3.906064    0.047243
  12 N     7.0000    0    14.007   -3.798350    0.746442   -0.141729
  13 N     7.0000    0    14.007   -0.733214   -3.919292   -0.051023
  14 N     7.0000    0    14.007    3.798350   -0.757780    0.122832
  15 C     6.0000    0    12.011   -3.703863    5.406506    0.045353
  16 C     6.0000    0    12.011   -4.956752    3.051908   -0.034015
  17 C     6.0000    0    12.011  -10.531444   -8.180624    2.014448
  18 C     6.0000    0    12.011   -7.696855    2.779787    0.105825
  19 C     6.0000    0    12.011   -7.759216   -5.208085   -0.049133
  20 C     6.0000    0    12.011   -9.439182   -5.209975   -2.099486
  21 C     6.0000    0    12.011  -11.587801   -6.693410   -2.033345
  22 C     6.0000    0    12.011  -14.458295   -9.662170    0.075589
  23 C     6.0000    0    12.011   -8.171176    0.266451    0.069920
  24 C     6.0000    0    12.011   -5.716422   -0.982658   -0.090707
  25 C     6.0000    0    12.011   -8.356369   -6.738763    2.031456
  26 N     7.0000    0    14.007  -12.107475   -8.150389    0.001890
  27 C     6.0000    0    12.011   -5.417845   -3.632054   -0.075589
  28 C     6.0000    0    12.011   -3.118048   -4.958641   -0.051023
  29 C     6.0000    0    12.011    6.742543  -11.606698   -1.965315
  30 C     6.0000    0    12.011   -2.789236   -7.651501   -0.064251
  31 C     6.0000    0    12.011    5.296902   -7.745987   -0.015118
  32 C     6.0000    0    12.011    6.910728   -8.284559    2.020117
  33 C     6.0000    0    12.011    8.365818  -10.450186    2.001220
  34 C     6.0000    0    12.011    9.911614  -14.339242    0.026456
  35 C     6.0000    0    12.011   -0.253223   -8.154168   -0.041574
  36 C     6.0000    0    12.011    1.073364   -5.790121   -0.051023
  37 C     6.0000    0    12.011    5.243990   -9.471307   -2.029566
  38 N     7.0000    0    14.007    8.269442  -12.077240    0.032125
  39 C     6.0000    0    12.011    3.701973   -5.421624   -0.017008
  40 C     6.0000    0    12.011    4.952972   -3.065136    0.017008
  41 C     6.0000    0    12.011   10.474752    8.199522   -2.135391
  42 C     6.0000    0    12.011    7.691185   -2.794905   -0.177634
  43 C     6.0000    0    12.011    7.755436    5.198637   -0.039684
  44 C     6.0000    0    12.011    9.499653    5.157063    1.957756
  45 C     6.0000    0    12.011   11.652051    6.631049    1.848152
  46 C     6.0000    0    12.011   14.397823    9.737759   -0.217319
  47 C     6.0000    0    12.011    8.165507   -0.279679   -0.173855
  48 C     6.0000    0    12.011    5.716422    0.971319    0.028346
  49 C     6.0000    0    12.011    8.290229    6.768999   -2.107045
  50 C     6.0000    0    12.011    5.415955    3.620715    0.024566
  51 N     7.0000    0    14.007   12.118814    8.118263   -0.179524
  52 H     1.0000    0     1.008   -9.641383   10.918838    3.637723
  53 H     1.0000    0     1.008    4.297237    9.006435    0.153068
  54 H     1.0000    0     1.008   -4.034565    9.155723   -3.543237
  55 H     1.0000    0     1.008   -6.750102   12.991867   -3.348595
  56 H     1.0000    0     1.008   -8.645497   15.934171    0.975099
  57 H     1.0000    0     1.008  -10.368927   14.864586   -1.729099
  58 H     1.0000    0     1.008  -11.451740   14.093578    1.371941
  59 H     1.0000    0     1.008   -0.627389    9.981533    0.130391
  60 H     1.0000    0     1.008   -7.039230    7.005215    3.734099
  61 H     1.0000    0     1.008    0.343930    2.025786    0.009449
  62 H     1.0000    0     1.008   -0.345820   -2.040904   -0.039684
  63 H     1.0000    0     1.008  -11.081354   -9.376821    3.581031
  64 H     1.0000    0     1.008   -9.059347    4.293458    0.262672
  65 H     1.0000    0     1.008   -9.070685   -4.081808   -3.768114
  66 H     1.0000    0     1.008  -12.927616   -6.768999   -3.577252
  67 H     1.0000    0     1.008  -15.926612   -8.571798    1.031790
  68 H     1.0000    0     1.008  -15.034661  -10.085468   -1.853821
  69 H     1.0000    0     1.008  -14.089798  -11.408277    1.103600
  70 H     1.0000    0     1.008   -9.990982   -0.650066    0.188973
  71 H     1.0000    0     1.008   -7.143165   -6.804904    3.679297
  72 H     1.0000    0     1.008    6.778448  -12.978639   -3.482765
  73 H     1.0000    0     1.008   -4.301017   -9.021553   -0.094486
  74 H     1.0000    0     1.008    7.018443   -7.037340    3.639613
  75 H     1.0000    0     1.008    9.622485  -10.950963    3.535678
  76 H     1.0000    0     1.008   11.725751  -13.849803   -0.829590
  77 H     1.0000    0     1.008   10.191293  -14.960962    1.969095
  78 H     1.0000    0     1.008    8.993207  -15.822677   -1.065806
  79 H     1.0000    0     1.008    0.621720   -9.996651   -0.015118
  80 H     1.0000    0     1.008    4.055352   -9.150054   -3.666069
  81 H     1.0000    0     1.008   10.975529    9.422175   -3.696304
  82 H     1.0000    0     1.008    9.048009   -4.310465   -0.349599
  83 H     1.0000    0     1.008    9.184069    3.994881    3.613156
  84 H     1.0000    0     1.008   13.041000    6.672623    3.348595
  85 H     1.0000    0     1.008   13.951848   11.544337    0.672743
  86 H     1.0000    0     1.008   15.900156    8.791006    0.822031
  87 H     1.0000    0     1.008   14.968521   10.034446   -2.173185
  88 H     1.0000    0     1.008    9.983423    0.634948   -0.338261
  89 H     1.0000    0     1.008    7.029781    6.863485   -3.717091

--------------------------------
INTERNAL COORDINATES (ANGSTROEM)
--------------------------------
 C      0   0   0     0.000000000000     0.00000000     0.00000000
 C      1   0   0     6.174331461786     0.00000000     0.00000000
 C      1   2   0     2.413281790426    30.56769127     0.00000000
 C      3   1   2     1.403780965821    87.92312821   272.63951783
 C      4   3   1     1.380358286823   120.12414140     0.15882713
 C      5   4   3     2.447577986500   152.54234900     1.55856490
 C      2   1   3     1.368114030335    10.15273361    37.25807817
 C      7   2   3     1.434084376876   108.05010202     0.84668783
 C      2   1   3     1.434123425651   111.02813677   321.51562724
 C      1   2   3     1.381012309865    42.82391950    47.66923658
 N      1   2   3     1.352048076068    89.19159961   267.44051785
 N      9   2   1     1.376127174356   106.58526707     9.59926052
 N     12   9   2     2.925062050624   168.53581413   171.12065651
 N     13  12   9     2.954513327098    91.55032014    11.12112580
 N     14  13  12     2.925371258490    88.43092389   359.84326247
 C      8   7   2     1.404790019896   127.24786865   181.11170171
 C     13  12   9     1.366535034311    81.72106996   188.00453233
 C     14  13  12     5.758810554272    80.56209567   166.76250791
 C     17  13  12     1.459010623676   111.08861209   183.82872609
 C     18  14  13     2.412235892279    27.27532823    36.33507194
 C     20  18  14     1.402692767501    87.95206320   148.94598259
 C     21  20  18     1.382106725257   120.14573887   359.70382047
 C     18  14  13     2.446510985056   144.15733107    82.80075377
 C     19  17  13     1.353610726908   106.29293361   359.75308708
 C     13  12   9     1.366813447402   172.21332906    33.46711076
 C     18  14  13     1.380960173213    15.08449437   309.23336894
 N     22  21  20     1.352773077792   120.73759875     0.27865223
 C     25  13  17     1.410897586645   125.60330303   182.37774668
 C     14  13  12     1.376642291955    80.24689249   177.85461986
 C     14  13  12     5.764089607215   164.51507311   312.20821879
 C     29  14  13     1.435600919476   106.58649366   178.76395472
 C     30  14  13     2.413316804732    27.10625047    82.12560436
 C     32  30  14     1.403734305344    87.90059683   149.76154742
 C     33  32  30     1.380694028378   120.14881443   359.74174632
 C     34  33  32     2.448777858443   152.49203239     2.45173620
 C     31  29  14     1.368160809262   108.16950133     0.70383075
 C     14  13  12     1.376239804685   169.26375223   353.09862627
 C     30  14  13     1.380907310430    14.68948582   353.70041132
 N     34  33  32     1.352658863128   120.85575621     0.19603406
 C     37  14  29     1.404717053360   126.01551127   180.90772073
 C     15  14  13     1.366491126938    81.61824056   183.09049352
 C      2   1   3     4.249062720177   161.10893237   122.43805470
 C     41  15  14     1.459677704153   111.05201287   175.08990246
 C     42   2   1     2.412953791518    41.78584867   174.14548078
 C     44  42   2     1.403446472082    87.95153797   233.97558675
 C     45  44  42     1.381696421071   120.11137308     0.19721020
 C     42   2   1     2.450019795838   135.97209175    84.46032988
 C     43  41  15     1.354461516618   106.26758155     0.30894352
 C     15  14  13     1.367461151185   171.87382904   332.35056460
 C     42   2   1     1.381886391857    32.59078432   223.00075997
 C      9   2   1     1.404988612053   126.98745415   190.60359805
 N     42   2   1     1.352765315936   113.57249190   112.19691908
 H      1   2   3     1.083046628728   141.41934299   133.11919337
 H      2   1   3     1.079907866440   122.87475291   151.91591733
 H      4   3   1     1.083035548816   121.05565929   179.52622516
 H      5   4   3     1.082620432100   122.80647891   179.40373799
 H      6   5   4     1.092473798313   104.43841773   100.17120113
 H      6   5   4     1.090136688677    84.67900962   209.57137621
 H      6   5   4     1.089145536648   133.91008750   322.37963626
 H      7   2  54     1.079807853278   126.66122480     1.30600390
 H     10   1   2     1.083637393227   118.77674361   132.74844731
 H     12   9   2     1.016297692608   125.29023241   180.00180175
 H     14  13  12     1.014936943854    44.97226959   359.42596618
 H     18  14  13     1.082871645210   128.03556573   234.20482432
 H     19  17  13     1.080893611786   126.41830519   178.11313280
 H     21  20  18     1.083569563987   121.05669627   180.67006309
 H     22  21  20     1.082483256222   122.73097286   180.59748951
 H     23  18  14     1.092105306278   103.92715769   234.93429879
 H     23  18  14     1.088871893291   134.19244188    12.25587044
 H     23  18  14     1.089833473518    84.85857450   125.45241208
 H     24  19  17     1.080075460327   127.28078426   178.44613241
 H     26  18  14     1.083408048706   118.76995697   244.94906660
 H     30  14  13     1.082703098730   127.99711412   279.66882698
 H     31  29  14     1.079759695488   125.22293469   180.92530585
 H     33  32  30     1.083188810873   121.01964473   180.74284758
 H     34  33  32     1.082494341787   122.70821597   180.59516895
 H     35  34  33     1.092652735319   105.73575241    97.19771933
 H     35  34  33     1.089462711615    84.05943581   206.43036958
 H     35  34  33     1.089268102902   133.08365142   318.50306270
 H     36  31  29     1.079439669458   126.61599965   178.98859863
 H     38  30  73     1.083742127999   118.77264435   359.90091293
 H     42   2   1     1.082178358682   119.31790784   328.82844953
 H     43  41  15     1.080281907652   126.36969097   182.06329380
 H     45  44  42     1.083277434455   121.10105945   179.58025624
 H     46  45  44     1.082194529648   122.72144639   179.46906377
 H     47  42   2     1.091546151109   106.65128841   315.16475048
 H     47  42   2     1.088818625851   132.46019523    94.52397119
 H     47  42   2     1.089531091801    83.63838232   206.04504406
 H     48  43  41     1.080402239909   127.23657387   181.62955349
 H     50  42   2     1.083186502870   118.77001737    94.71359229

---------------------------
INTERNAL COORDINATES (A.U.)
---------------------------
 C      0   0   0     0.000000000000     0.00000000     0.00000000
 C      1   0   0    11.667795522829     0.00000000     0.00000000
 C      1   2   0     4.560441667884    30.56769127     0.00000000
 C      3   1   2     2.652761577412    87.92312821   272.63951783
 C      4   3   1     2.608499128784   120.12414140     0.15882713
 C      5   4   3     4.625252085900   152.54234900     1.55856490
 C      2   1   3     2.585360837309    10.15273361    37.25807817
 C      7   2   3     2.710026725231   108.05010202     0.84668783
 C      2   1   3     2.710100516721   111.02813677   321.51562724
 C      1   2   3     2.609735053220    42.82391950    47.66923658
 N      1   2   3     2.555000583664    89.19159961   267.44051785
 N      9   2   1     2.600503484979   106.58526707     9.59926052
 N     12   9   2     5.527566200405   168.53581413   171.12065651
 N     13  12   9     5.583221047236    91.55032014    11.12112580
 N     14  13  12     5.528150518591    88.43092389   359.84326247
 C      8   7   2     2.654668413270   127.24786865   181.11170171
 C     13  12   9     2.582376967257    81.72106996   188.00453233
 C     14  13  12    10.882574804710    80.56209567   166.76250791
 C     17  13  12     2.757130505230   111.08861209   183.82872609
 C     18  14  13     4.558465206823    27.27532823    36.33507194
 C     20  18  14     2.650705180609    87.95206320   148.94598259
 C     21  20  18     2.611803198586   120.14573887   359.70382047
 C     18  14  13     4.623235745386   144.15733107    82.80075377
 C     19  17  13     2.557953565794   106.29293361   359.75308708
 C     13  12   9     2.582903091751   172.21332906    33.46711076
 C     18  14  13     2.609636529225    15.08449437   309.23336894
 N     22  21  20     2.556370638369   120.73759875     0.27865223
 C     25  13  17     2.666210041769   125.60330303   182.37774668
 C     14  13  12     2.601476916169    80.24689249   177.85461986
 C     14  13  12    10.892550769017   164.51507311   312.20821879
 C     29  14  13     2.712892575415   106.58649366   178.76395472
 C     30  14  13     4.560507835333    27.10625047    82.12560436
 C     32  30  14     2.652673401891    87.90059683   149.76154742
 C     33  32  30     2.609133588376   120.14881443   359.74174632
 C     34  33  32     4.627519515267   152.49203239     2.45173620
 C     31  29  14     2.585449236669   108.16950133     0.70383075
 C     14  13  12     2.600716325456   169.26375223   353.09862627
 C     30  14  13     2.609536633043    14.68948582   353.70041132
 N     34  33  32     2.556154803934   120.85575621     0.19603406
 C     37  14  29     2.654530526499   126.01551127   180.90772073
 C     15  14  13     2.582293994346    81.61824056   183.09049352
 C      2   1   3     8.029564866989   161.10893237   122.43805470
 C     41  15  14     2.758391104639   111.05201287   175.08990246
 C     42   2   1     4.559821839776    41.78584867   174.14548078
 C     44  42   2     2.652129475853    87.95153797   233.97558675
 C     45  44  42     2.611027836043   120.11137308     0.19721020
 C     42   2   1     4.629866436820   135.97209175    84.46032988
 C     43  41  15     2.559561325344   106.26758155     0.30894352
 C     15  14  13     2.584127074516   171.87382904   332.35056460
 C     42   2   1     2.611386828803    32.59078432   223.00075997
 C      9   2   1     2.655043698059   126.98745415   190.60359805
 N     42   2   1     2.556355970587   113.57249190   112.19691908
 H      1   2   3     2.046661518563   141.41934299   133.11919337
 H      2   1   3     2.040730117440   122.87475291   151.91591733
 H      4   3   1     2.046640580564   121.05565929   179.52622516
 H      5   4   3     2.045856123656   122.80647891   179.40373799
 H      6   5   4     2.064476287296   104.43841773   100.17120113
 H      6   5   4     2.060059790140    84.67900962   209.57137621
 H      6   5   4     2.058186784247   133.91008750   322.37963626
 H      7   2  54     2.040541119952   126.66122480     1.30600390
 H     10   1   2     2.047777901676   118.77674361   132.74844731
 H     12   9   2     1.920524309565   125.29023241   180.00180175
 H     14  13  12     1.917952867083    44.97226959   359.42596618
 H     18  14  13     2.046330847636   128.03556573   234.20482432
 H     19  17  13     2.042592906181   126.41830519   178.11313280
 H     21  20  18     2.047649722989   121.05669627   180.67006309
 H     22  21  20     2.045596898814   122.73097286   180.59748951
 H     23  18  14     2.063779938267   103.92715769   234.93429879
 H     23  18  14     2.057669673245   134.19244188    12.25587044
 H     23  18  14     2.059486796529    84.85857450   125.45241208
 H     24  19  17     2.041046823986   127.28078426   178.44613241
 H     26  18  14     2.047344503340   118.76995697   244.94906660
 H     30  14  13     2.046012340948   127.99711412   279.66882698
 H     31  29  14     2.040450114918   125.22293469   180.92530585
 H     33  32  30     2.046930203877   121.01964473   180.74284758
 H     34  33  32     2.045617847496   122.70821597   180.59516895
 H     35  34  33     2.064814429233   105.73575241    97.19771933
 H     35  34  33     2.058786158072    84.05943581   206.43036958
 H     35  34  33     2.058418400901   133.08365142   318.50306270
 H     36  31  29     2.039845353366   126.61599965   178.98859863
 H     38  30  73     2.047975821711   118.77264435   359.90091293
 H     42   2   1     2.045020725966   119.31790784   328.82844953
 H     43  41  15     2.041436952892   126.36969097   182.06329380
 H     45  44  42     2.047097678177   121.10105945   179.58025624
 H     46  45  44     2.045051284662   122.72144639   179.46906377
 H     47  42   2     2.062723288131   106.65128841   315.16475048
 H     47  42   2     2.057569012371   132.46019523    94.52397119
 H     47  42   2     2.058915377895    83.63838232   206.04504406
 H     48  43  41     2.041664347903   127.23657387   181.62955349
 H     50  42   2     2.046925842384   118.77001737    94.71359229

---------------------
BASIS SET INFORMATION
---------------------
There are 3 groups of distinct atoms

 Group   1 Type C   : 17s4p1d contracted to 3s2p1d pattern {881/31/1}
 Group   2 Type N   : 17s4p1d contracted to 3s2p1d pattern {881/31/1}
 Group   3 Type H   : 4s1p contracted to 2s1p pattern {31/1}

Atom   0C    basis set group =>   1
Atom   1N    basis set group =>   2
Atom   2C    basis set group =>   1
Atom   3N    basis set group =>   2
Atom   4C    basis set group =>   1
Atom   5N    basis set group =>   2
Atom   6C    basis set group =>   1
Atom   7N    basis set group =>   2
Atom   8C    basis set group =>   1
Atom   9N    basis set group =>   2
Atom  10C    basis set group =>   1
Atom  11N    basis set group =>   2
Atom  12C    basis set group =>   1
Atom  13N    basis set group =>   2
Atom  14C    basis set group =>   1
Atom  15N    basis set group =>   2
Atom  16C    basis set group =>   1
Atom  17C    basis set group =>   1
Atom  18C    basis set group =>   1
Atom  19C    basis set group =>   1
Atom  20C    basis set group =>   1
Atom  21C    basis set group =>   1
Atom  22C    basis set group =>   1
Atom  23C    basis set group =>   1
Atom  24C    basis set group =>   1
Atom  25C    basis set group =>   1
Atom  26C    basis set group =>   1
Atom  27C    basis set group =>   1
Atom  28C    basis set group =>   1
Atom  29C    basis set group =>   1
Atom  30C    basis set group =>   1
Atom  31C    basis set group =>   1
Atom  32C    basis set group =>   1
Atom  33C    basis set group =>   1
Atom  34C    basis set group =>   1
Atom  35C    basis set group =>   1
Atom  36C    basis set group =>   1
Atom  37C    basis set group =>   1
Atom  38C    basis set group =>   1
Atom  39C    basis set group =>   1
Atom  40C    basis set group =>   1
Atom  41C    basis set group =>   1
Atom  42C    basis set group =>   1
Atom  43C    basis set group =>   1
Atom  44C    basis set group =>   1
Atom  45C    basis set group =>   1
Atom  46C    basis set group =>   1
Atom  47C    basis set group =>   1
Atom  48C    basis set group =>   1
Atom  49C    basis set group =>   1
Atom  50C    basis set group =>   1
Atom  51C    basis set group =>   1
Atom  52H    basis set group =>   3
Atom  53H    basis set group =>   3
Atom  54H    basis set group =>   3
Atom  55H    basis set group =>   3
Atom  56H    basis set group =>   3
Atom  57H    basis set group =>   3
Atom  58H    basis set group =>   3
Atom  59H    basis set group =>   3
Atom  60H    basis set group =>   3
Atom  61H    basis set group =>   3
Atom  62H    basis set group =>   3
Atom  63H    basis set group =>   3
Atom  64H    basis set group =>   3
Atom  65H    basis set group =>   3
Atom  66H    basis set group =>   3
Atom  67H    basis set group =>   3
Atom  68H    basis set group =>   3
Atom  69H    basis set group =>   3
Atom  70H    basis set group =>   3
Atom  71H    basis set group =>   3
Atom  72H    basis set group =>   3
Atom  73H    basis set group =>   3
Atom  74H    basis set group =>   3
Atom  75H    basis set group =>   3
Atom  76H    basis set group =>   3
Atom  77H    basis set group =>   3
Atom  78H    basis set group =>   3
Atom  79H    basis set group =>   3
Atom  80H    basis set group =>   3
Atom  81H    basis set group =>   3
Atom  82H    basis set group =>   3
Atom  83H    basis set group =>   3
Atom  84H    basis set group =>   3
Atom  85H    basis set group =>   3
Atom  86H    basis set group =>   3
Atom  87H    basis set group =>   3
Atom  88H    basis set group =>   3
Atom  89H    basis set group =>   3


           ************************************************************
           *        Program running with 16 parallel MPI-processes    *
           *              working on a common directory               *
           ************************************************************
------------------------------------------------------------------------------
                           ORCA GTO INTEGRAL CALCULATION
------------------------------------------------------------------------------
------------------------------------------------------------------------------
                   ___                                                        
                  /   \      - P O W E R E D   B Y -                         
                 /     \                                                     
                 |  |  |   _    _      __       _____    __    __             
                 |  |  |  | |  | |    /  \     |  _  \  |  |  /  |          
                  \  \/   | |  | |   /    \    | | | |  |  | /  /          
                 / \  \   | |__| |  /  /\  \   | |_| |  |  |/  /          
                |  |  |   |  __  | /  /__\  \  |    /   |      \           
                |  |  |   | |  | | |   __   |  |    \   |  |\   \          
                \     /   | |  | | |  |  |  |  | |\  \  |  | \   \       
                 \___/    |_|  |_| |__|  |__|  |_| \__\ |__|  \__/        
                                                                              
                      - O R C A' S   B I G   F R I E N D -                    
                                      &                                       
                       - I N T E G R A L  F E E D E R -                       
                                                                              
 v1 FN, 2020, v2 2021                                                         
------------------------------------------------------------------------------


Reading SHARK input file /scratch/allen/tmpyp4_amber_gaff2/conf1/conf1/Conf245.orca.SHARKINP.tmp ... ok
----------------------
SHARK INTEGRAL PACKAGE
----------------------

Number of atoms                             ...     90
Number of basis functions                   ...   1230
Number of shells                            ...    738
Maximum angular momentum                    ...      2
Integral batch strategy                     ... SHARK/LIBINT Hybrid
RI-J (if used) integral strategy            ... SPLIT-RIJ (Revised 2003 algorithm where possible)
Printlevel                                  ...      1
Contraction scheme used                     ... PARTIAL GENERAL contraction
Coulomb Range Separation                    ... NOT USED
Exchange Range Separation                   ... NOT USED
Finite Nucleus Model                        ... NOT USED
Auxiliary Coulomb fitting basis             ... NOT available
Auxiliary J/K fitting basis                 ... NOT available
Auxiliary Correlation fitting basis         ... NOT available
Auxiliary 'external' fitting basis          ... NOT available
Integral threshold                          ...     2.500000e-11
Primitive cut-off                           ...     2.500000e-12
Primitive pair pre-selection threshold      ...     2.500000e-12

Calculating pre-screening integrals         ... done (  0.1 sec) Dimension = 738
Calculating pre-screening integrals (ORCA)  ... done (  0.3 sec) Dimension = 426
Organizing shell pair data                  ... done (  0.7 sec)
Shell pair information
Total number of shell pairs                 ...    272691
Shell pairs after pre-screening             ...     71597
Total number of primitive shell pairs       ...    422091
Primitive shell pairs kept                  ...     92349
          la=0 lb=0:  29410 shell pairs
          la=1 lb=0:  25964 shell pairs
          la=1 lb=1:   4692 shell pairs
          la=2 lb=0:   7877 shell pairs
          la=2 lb=1:   3123 shell pairs
          la=2 lb=2:    531 shell pairs

Calculating one electron integrals          ... done (  0.2 sec)
Calculating Nuclear repulsion               ... done (  0.0 sec) ENN=   6224.164726820245 Eh

SHARK setup successfully completed in   2.5 seconds

Maximum memory used throughout the entire GTOINT-calculation: 99.0 MB


           ************************************************************
           *        Program running with 16 parallel MPI-processes    *
           *              working on a common directory               *
           ************************************************************
-------------------------------------------------------------------------------
                                 ORCA SCF
-------------------------------------------------------------------------------

------------
SCF SETTINGS
------------
Hamiltonian:
 Ab initio Hamiltonian  Method          .... Hartree-Fock(GTOs)


General Settings:
 Integral files         IntName         .... /scratch/allen/tmpyp4_amber_gaff2/conf1/conf1/Conf245.orca
 Hartree-Fock type      HFTyp           .... RHF
 Total Charge           Charge          ....    0
 Multiplicity           Mult            ....    1
 Number of Electrons    NEL             ....  358
 Basis Dimension        Dim             ....  918
 Nuclear Repulsion      ENuc            ....   6224.1647268202 Eh

Convergence Acceleration:
 DIIS                   CNVDIIS         .... on
   Start iteration      DIISMaxIt       ....    12
   Startup error        DIISStart       ....  0.200000
   # of expansion vecs  DIISMaxEq       ....     5
   Bias factor          DIISBfac        ....   1.050
   Max. coefficient     DIISMaxC        ....  10.000
 Trust-Rad. Augm. Hess. CNVTRAH         .... auto
   Auto Start mean grad. ratio tolernc. ....  1.125000
   Auto Start start iteration           ....    20
   Auto Start num. interpolation iter.  ....    10
   Max. Number of Micro iterations      ....    16
   Max. Number of Macro iterations      .... Maxiter - #DIIS iter
   Number of Davidson start vectors     ....     2
   Converg. threshold I  (grad. norm)   ....   1.000e-05
   Converg. threshold II (energy diff.) ....   1.000e-08
   Grad. Scal. Fac. for Micro threshold ....   0.100
   Minimum threshold for Micro iter.    ....   0.010
   NR start threshold (gradient norm)   ....   0.001
   Initial trust radius                 ....   0.400
   Minimum AH scaling param. (alpha)    ....   1.000
   Maximum AH scaling param. (alpha)    .... 1000.000
   Orbital update algorithm             .... Taylor
   White noise on init. David. guess    .... on
   Maximum white noise                  ....   0.010
   Quad. conv. algorithm                .... NR
 SOSCF                  CNVSOSCF        .... on
   Start iteration      SOSCFMaxIt      ....   150
   Startup grad/error   SOSCFStart      ....  0.003300
 Level Shifting         CNVShift        .... on
   Level shift para.    LevelShift      ....    0.2500
   Turn off err/grad.   ShiftErr        ....    0.0010
 Zerner damping         CNVZerner       .... off
 Static damping         CNVDamp         .... on
   Fraction old density DampFac         ....    0.7000
   Max. Damping (<1)    DampMax         ....    0.9800
   Min. Damping (>=0)   DampMin         ....    0.0000
   Turn off err/grad.   DampErr         ....    0.1000
 Fernandez-Rico         CNVRico         .... off

SCF Procedure:
 Maximum # iterations   MaxIter         ....   125
 SCF integral mode      SCFMode         .... Direct
   Integral package                     .... SHARK and LIBINT hybrid scheme
 Reset frequency        DirectResetFreq ....    20
 Integral Threshold     Thresh          ....  2.500e-11 Eh
 Primitive CutOff       TCut            ....  2.500e-12 Eh

Convergence Tolerance:
 Convergence Check Mode ConvCheckMode   .... Total+1el-Energy
 Convergence forced     ConvForced      .... 1
 Energy Change          TolE            ....  1.000e-08 Eh
 1-El. energy change                    ....  1.000e-05 Eh
 Orbital Gradient       TolG            ....  1.000e-05
 Orbital Rotation angle TolX            ....  1.000e-05
 DIIS Error             TolErr          ....  5.000e-07


Diagonalization of the overlap matrix:
Smallest eigenvalue                        ... 2.253e-04
Time for diagonalization                   ...    0.475 sec
Threshold for overlap eigenvalues          ... 1.000e-08
Number of eigenvalues below threshold      ... 0
Time for construction of square roots      ...    0.270 sec
Total time needed                          ...    0.752 sec

Time for model grid setup =    1.298 sec

------------------------------
INITIAL GUESS: MODEL POTENTIAL
------------------------------
Loading Hartree-Fock densities                     ... done
Calculating cut-offs                               ... done
Initializing the effective Hamiltonian             ... done
Setting up the integral package (SHARK)            ... done
Starting the Coulomb interaction                   ... done (   1.5 sec)
Reading the grid                                   ... done
Mapping shells                                     ... done
Starting the XC term evaluation                    ... done (   0.2 sec)
Transforming the Hamiltonian                       ... done (   0.3 sec)
Diagonalizing the Hamiltonian                      ... done (   0.4 sec)
Back transforming the eigenvectors                 ... done (   0.1 sec)
Now organizing SCF variables                       ... done
                      ------------------
                      INITIAL GUESS DONE (   3.8 sec)
                      ------------------
--------------
SCF ITERATIONS
--------------
ITER       Energy         Delta-E        Max-DP      RMS-DP      [F,P]     Damp
               ***  Starting incremental Fock matrix formation  ***
  0  -2121.6608608596   0.000000000000 0.06916324  0.00121263  0.2335366 0.7000
  1  -2122.3282211845  -0.667360324969 0.05250404  0.00098396  0.1444057 0.7000
                               ***Turning on DIIS***
  2  -2122.7428690660  -0.414647881449 0.11662278  0.00222713  0.0803012 0.0000
  3  -2117.6970628914   5.045806174623 0.03115666  0.00068847  0.0443590 0.0000
  4  -2123.4033149876  -5.706252096219 0.00883616  0.00023019  0.0069872 0.0000
  5  -2123.5857461711  -0.182431183501 0.00508156  0.00013731  0.0049441 0.0000
  6  -2123.5685482200   0.017197951060 0.00325991  0.00009044  0.0019732 0.0000
  7  -2123.6755922747  -0.107044054719 0.00274305  0.00007283  0.0014729 0.0000
  8  -2123.6993901654  -0.023797890661 0.00258649  0.00007004  0.0013751 0.0000
  9  -2123.6605629629   0.038827202516 0.00213126  0.00004841  0.0010788 0.0000
 10  -2123.6794344103  -0.018871447404 0.00467619  0.00009898  0.0008147 0.0000
                      *** Initiating the SOSCF procedure ***
                           *** Shutting down DIIS ***
                      *** Re-Reading the Fockian *** 
                      *** Removing any level shift *** 
ITER      Energy       Delta-E        Grad      Rot      Max-DP    RMS-DP
 11  -2123.54433511   0.1350993046  0.000369  0.000369  0.000287  0.000007
               *** Restarting incremental Fock matrix formation ***
 12  -2123.61920281  -0.0748677016  0.001091  0.007524  0.001205  0.000029
 13  -2123.61928067  -0.0000778620  0.001150  0.028870  0.003732  0.000091
 14  -2123.61937065  -0.0000899798  0.000444  0.003050  0.000434  0.000012
 15  -2123.61938220  -0.0000115488  0.000155  0.001950  0.000319  0.000008
 16  -2123.61938527  -0.0000030750  0.000105  0.001486  0.000376  0.000009
 17  -2123.61938757  -0.0000022956  0.000117  0.002309  0.000377  0.000008
 18  -2123.61938894  -0.0000013730  0.000060  0.002450  0.000311  0.000009
 19  -2123.61939021  -0.0000012711  0.000075  0.002603  0.000349  0.000009
 20  -2123.61939106  -0.0000008438  0.000047  0.001170  0.000171  0.000004
 21  -2123.61939133  -0.0000002739  0.000032  0.000941  0.000130  0.000003
 22  -2123.61939151  -0.0000001787  0.000033  0.000365  0.000088  0.000002
 23  -2123.61939161  -0.0000001050  0.000022  0.000302  0.000091  0.000001
 24  -2123.61939166  -0.0000000419  0.000008  0.000139  0.000029  0.000001
 25  -2123.61939167  -0.0000000138  0.000005  0.000144  0.000024  0.000001
 26  -2123.61939168  -0.0000000055  0.000004  0.000076  0.000019  0.000000
 27  -2123.61939167   0.0000000075  0.000003  0.000103  0.000023  0.000000
                  ***Gradient check signals convergence***
              ***Rediagonalizing the Fockian in SOSCF/NRSCF***

               *****************************************************
               *                     SUCCESS                       *
               *           SCF CONVERGED AFTER  28 CYCLES          *
               *****************************************************


----------------
TOTAL SCF ENERGY
----------------

Total Energy       :        -2123.61939166 Eh          -57786.62146 eV

Components:
Nuclear Repulsion  :         6224.16472682 Eh          169368.13273 eV
Electronic Energy  :        -8347.78411848 Eh         -227154.75419 eV
One Electron Energy:       -15289.58866635 Eh         -416050.85923 eV
Two Electron Energy:         6941.80454787 Eh          188896.10504 eV

Virial components:
Potential Energy   :        -4245.61669814 Eh         -115529.10374 eV
Kinetic Energy     :         2121.99730648 Eh           57742.48228 eV
Virial Ratio       :            2.00076441


---------------
SCF CONVERGENCE
---------------

  Last Energy change         ...    6.2500e-09  Tolerance :   1.0000e-08
  Last MAX-Density change    ...    1.9687e-05  Tolerance :   1.0000e-07
  Last RMS-Density change    ...    4.0172e-07  Tolerance :   5.0000e-09
  Last Orbital Gradient      ...    2.2915e-06  Tolerance :   1.0000e-05
  Last Orbital Rotation      ...    1.1961e-04  Tolerance :   1.0000e-05

             **** THE GBW FILE WAS UPDATED (/scratch/allen/tmpyp4_amber_gaff2/conf1/conf1/Conf245.orca.gbw) ****
             **** DENSITY /scratch/allen/tmpyp4_amber_gaff2/conf1/conf1/Conf245.orca.scfp WAS UPDATED ****
             **** ENERGY FILE WAS UPDATED (/scratch/allen/tmpyp4_amber_gaff2/conf1/conf1/Conf245.orca.en.tmp) ****
             **** THE GBW FILE WAS UPDATED (/scratch/allen/tmpyp4_amber_gaff2/conf1/conf1/Conf245.orca.gbw) ****
             **** DENSITY /scratch/allen/tmpyp4_amber_gaff2/conf1/conf1/Conf245.orca.scfp WAS UPDATED ****
----------------
ORBITAL ENERGIES
----------------

  NO   OCC          E(Eh)            E(eV) 
   0   2.0000     -15.644641      -425.7123 
   1   2.0000     -15.638977      -425.5582 
   2   2.0000     -15.627773      -425.2533 
   3   2.0000     -15.622791      -425.1178 
   4   2.0000     -15.517053      -422.2405 
   5   2.0000     -15.515243      -422.1912 
   6   2.0000     -15.445392      -420.2905 
   7   2.0000     -15.439841      -420.1394 
   8   2.0000     -11.306004      -307.6520 
   9   2.0000     -11.302380      -307.5534 
  10   2.0000     -11.299569      -307.4769 
  11   2.0000     -11.298549      -307.4492 
  12   2.0000     -11.295332      -307.3616 
  13   2.0000     -11.294758      -307.3460 
  14   2.0000     -11.293317      -307.3068 
  15   2.0000     -11.292446      -307.2831 
  16   2.0000     -11.285819      -307.1027 
  17   2.0000     -11.283538      -307.0407 
  18   2.0000     -11.282057      -307.0004 
  19   2.0000     -11.279442      -306.9292 
  20   2.0000     -11.248148      -306.0777 
  21   2.0000     -11.242164      -305.9148 
  22   2.0000     -11.238345      -305.8109 
  23   2.0000     -11.237253      -305.7812 
  24   2.0000     -11.234006      -305.6928 
  25   2.0000     -11.233199      -305.6709 
  26   2.0000     -11.232050      -305.6396 
  27   2.0000     -11.227961      -305.5284 
  28   2.0000     -11.225873      -305.4715 
  29   2.0000     -11.225651      -305.4655 
  30   2.0000     -11.222424      -305.3777 
  31   2.0000     -11.221571      -305.3545 
  32   2.0000     -11.197819      -304.7081 
  33   2.0000     -11.197563      -304.7012 
  34   2.0000     -11.194839      -304.6271 
  35   2.0000     -11.194725      -304.6240 
  36   2.0000     -11.176208      -304.1201 
  37   2.0000     -11.175533      -304.1017 
  38   2.0000     -11.172892      -304.0299 
  39   2.0000     -11.169983      -303.9507 
  40   2.0000     -11.166032      -303.8432 
  41   2.0000     -11.165260      -303.8222 
  42   2.0000     -11.164861      -303.8113 
  43   2.0000     -11.162947      -303.7592 
  44   2.0000     -11.157749      -303.6178 
  45   2.0000     -11.155080      -303.5452 
  46   2.0000     -11.154446      -303.5279 
  47   2.0000     -11.151472      -303.4470 
  48   2.0000     -11.147792      -303.3468 
  49   2.0000     -11.146327      -303.3070 
  50   2.0000     -11.136547      -303.0408 
  51   2.0000     -11.134982      -302.9983 
  52   2.0000      -1.330415       -36.2024 
  53   2.0000      -1.325436       -36.0669 
  54   2.0000      -1.315670       -35.8012 
  55   2.0000      -1.311657       -35.6920 
  56   2.0000      -1.215772       -33.0828 
  57   2.0000      -1.212484       -32.9934 
  58   2.0000      -1.163367       -31.6568 
  59   2.0000      -1.153621       -31.3916 
  60   2.0000      -1.118338       -30.4315 
  61   2.0000      -1.112391       -30.2697 
  62   2.0000      -1.105573       -30.0842 
  63   2.0000      -1.100307       -29.9409 
  64   2.0000      -1.054173       -28.6855 
  65   2.0000      -1.049176       -28.5495 
  66   2.0000      -1.040251       -28.3067 
  67   2.0000      -1.036581       -28.2068 
  68   2.0000      -1.026625       -27.9359 
  69   2.0000      -1.011289       -27.5186 
  70   2.0000      -1.007224       -27.4080 
  71   2.0000      -0.997698       -27.1487 
  72   2.0000      -0.979578       -26.6557 
  73   2.0000      -0.976366       -26.5683 
  74   2.0000      -0.968230       -26.3469 
  75   2.0000      -0.961895       -26.1745 
  76   2.0000      -0.950920       -25.8758 
  77   2.0000      -0.945862       -25.7382 
  78   2.0000      -0.936360       -25.4797 
  79   2.0000      -0.922990       -25.1158 
  80   2.0000      -0.892143       -24.2764 
  81   2.0000      -0.880290       -23.9539 
  82   2.0000      -0.875798       -23.8317 
  83   2.0000      -0.867647       -23.6099 
  84   2.0000      -0.863744       -23.5037 
  85   2.0000      -0.856862       -23.3164 
  86   2.0000      -0.851509       -23.1708 
  87   2.0000      -0.840825       -22.8800 
  88   2.0000      -0.822089       -22.3702 
  89   2.0000      -0.797701       -21.7066 
  90   2.0000      -0.797456       -21.6999 
  91   2.0000      -0.739136       -20.1129 
  92   2.0000      -0.729315       -19.8457 
  93   2.0000      -0.727403       -19.7936 
  94   2.0000      -0.722985       -19.6734 
  95   2.0000      -0.717167       -19.5151 
  96   2.0000      -0.710944       -19.3458 
  97   2.0000      -0.710108       -19.3230 
  98   2.0000      -0.697836       -18.9891 
  99   2.0000      -0.690751       -18.7963 
 100   2.0000      -0.685027       -18.6405 
 101   2.0000      -0.681976       -18.5575 
 102   2.0000      -0.679845       -18.4995 
 103   2.0000      -0.672105       -18.2889 
 104   2.0000      -0.668839       -18.2000 
 105   2.0000      -0.667127       -18.1535 
 106   2.0000      -0.661826       -18.0092 
 107   2.0000      -0.660263       -17.9667 
 108   2.0000      -0.658730       -17.9250 
 109   2.0000      -0.655744       -17.8437 
 110   2.0000      -0.651273       -17.7221 
 111   2.0000      -0.649485       -17.6734 
 112   2.0000      -0.647976       -17.6323 
 113   2.0000      -0.644523       -17.5384 
 114   2.0000      -0.633730       -17.2447 
 115   2.0000      -0.623734       -16.9727 
 116   2.0000      -0.620578       -16.8868 
 117   2.0000      -0.616075       -16.7642 
 118   2.0000      -0.610862       -16.6224 
 119   2.0000      -0.608036       -16.5455 
 120   2.0000      -0.607260       -16.5244 
 121   2.0000      -0.604356       -16.4454 
 122   2.0000      -0.601603       -16.3704 
 123   2.0000      -0.594563       -16.1789 
 124   2.0000      -0.588405       -16.0113 
 125   2.0000      -0.584737       -15.9115 
 126   2.0000      -0.577625       -15.7180 
 127   2.0000      -0.574485       -15.6325 
 128   2.0000      -0.568573       -15.4717 
 129   2.0000      -0.564402       -15.3582 
 130   2.0000      -0.553375       -15.0581 
 131   2.0000      -0.544068       -14.8049 
 132   2.0000      -0.540760       -14.7148 
 133   2.0000      -0.534792       -14.5524 
 134   2.0000      -0.532612       -14.4931 
 135   2.0000      -0.529274       -14.4023 
 136   2.0000      -0.524055       -14.2603 
 137   2.0000      -0.523399       -14.2424 
 138   2.0000      -0.518884       -14.1196 
 139   2.0000      -0.515512       -14.0278 
 140   2.0000      -0.509163       -13.8550 
 141   2.0000      -0.505605       -13.7582 
 142   2.0000      -0.503653       -13.7051 
 143   2.0000      -0.502333       -13.6692 
 144   2.0000      -0.498151       -13.5554 
 145   2.0000      -0.496770       -13.5178 
 146   2.0000      -0.496168       -13.5014 
 147   2.0000      -0.494073       -13.4444 
 148   2.0000      -0.490027       -13.3343 
 149   2.0000      -0.467768       -12.7286 
 150   2.0000      -0.460224       -12.5233 
 151   2.0000      -0.451614       -12.2890 
 152   2.0000      -0.446302       -12.1445 
 153   2.0000      -0.445933       -12.1345 
 154   2.0000      -0.443975       -12.0812 
 155   2.0000      -0.439769       -11.9667 
 156   2.0000      -0.434725       -11.8295 
 157   2.0000      -0.429133       -11.6773 
 158   2.0000      -0.392190       -10.6720 
 159   2.0000      -0.380154       -10.3445 
 160   2.0000      -0.375960       -10.2304 
 161   2.0000      -0.373034       -10.1508 
 162   2.0000      -0.363427        -9.8893 
 163   2.0000      -0.359525        -9.7832 
 164   2.0000      -0.351994        -9.5782 
 165   2.0000      -0.348994        -9.4966 
 166   2.0000      -0.337703        -9.1894 
 167   2.0000      -0.333142        -9.0653 
 168   2.0000      -0.326095        -8.8735 
 169   2.0000      -0.300209        -8.1691 
 170   2.0000      -0.292692        -7.9646 
 171   2.0000      -0.289770        -7.8850 
 172   2.0000      -0.287065        -7.8114 
 173   2.0000      -0.256591        -6.9822 
 174   2.0000      -0.245520        -6.6809 
 175   2.0000      -0.187068        -5.0904 
 176   2.0000      -0.176856        -4.8125 
 177   2.0000      -0.064486        -1.7548 
 178   2.0000      -0.052919        -1.4400 
 179   0.0000       0.032245         0.8774 
 180   0.0000       0.069648         1.8952 
 181   0.0000       0.092225         2.5096 
 182   0.0000       0.095570         2.6006 
 183   0.0000       0.130454         3.5498 
 184   0.0000       0.134541         3.6610 
 185   0.0000       0.142554         3.8791 
 186   0.0000       0.146097         3.9755 
 187   0.0000       0.159466         4.3393 
 188   0.0000       0.161022         4.3816 
 189   0.0000       0.162617         4.4250 
 190   0.0000       0.168443         4.5836 
 191   0.0000       0.170951         4.6518 
 192   0.0000       0.199238         5.4215 
 193   0.0000       0.202111         5.4997 
 194   0.0000       0.202415         5.5080 
 195   0.0000       0.206283         5.6133 
 196   0.0000       0.208303         5.6682 
 197   0.0000       0.211104         5.7444 
 198   0.0000       0.211987         5.7684 
 199   0.0000       0.214383         5.8337 
 200   0.0000       0.234327         6.3764 
 201   0.0000       0.237136         6.4528 
 202   0.0000       0.242568         6.6006 
 203   0.0000       0.245053         6.6682 
 204   0.0000       0.251074         6.8321 
 205   0.0000       0.254560         6.9269 
 206   0.0000       0.257567         7.0087 
 207   0.0000       0.260889         7.0991 
 208   0.0000       0.262098         7.1320 
 209   0.0000       0.264931         7.2091 
 210   0.0000       0.266962         7.2644 
 211   0.0000       0.270276         7.3546 
 212   0.0000       0.272347         7.4109 
 213   0.0000       0.274479         7.4690 
 214   0.0000       0.278949         7.5906 
 215   0.0000       0.280320         7.6279 
 216   0.0000       0.281867         7.6700 
 217   0.0000       0.282681         7.6921 
 218   0.0000       0.285656         7.7731 
 219   0.0000       0.289680         7.8826 
 220   0.0000       0.290832         7.9139 
 221   0.0000       0.291150         7.9226 
 222   0.0000       0.293520         7.9871 
 223   0.0000       0.294912         8.0250 
 224   0.0000       0.300156         8.1677 
 225   0.0000       0.301600         8.2069 
 226   0.0000       0.302129         8.2213 
 227   0.0000       0.303614         8.2618 
 228   0.0000       0.305799         8.3212 
 229   0.0000       0.308885         8.4052 
 230   0.0000       0.314525         8.5587 
 231   0.0000       0.317490         8.6393 
 232   0.0000       0.326345         8.8803 
 233   0.0000       0.327517         8.9122 
 234   0.0000       0.331701         9.0260 
 235   0.0000       0.337308         9.1786 
 236   0.0000       0.357224         9.7206 
 237   0.0000       0.385720        10.4960 
 238   0.0000       0.396320        10.7844 
 239   0.0000       0.400599        10.9009 
 240   0.0000       0.404366        11.0034 
 241   0.0000       0.409850        11.1526 
 242   0.0000       0.420498        11.4423 
 243   0.0000       0.424498        11.5512 
 244   0.0000       0.430041        11.7020 
 245   0.0000       0.433462        11.7951 
 246   0.0000       0.434391        11.8204 
 247   0.0000       0.438046        11.9198 
 248   0.0000       0.439711        11.9651 
 249   0.0000       0.444737        12.1019 
 250   0.0000       0.445929        12.1343 
 251   0.0000       0.448416        12.2020 
 252   0.0000       0.454802        12.3758 
 253   0.0000       0.467336        12.7169 
 254   0.0000       0.470053        12.7908 
 255   0.0000       0.476824        12.9750 
 256   0.0000       0.479691        13.0530 
 257   0.0000       0.487109        13.2549 
 258   0.0000       0.489083        13.3086 
 259   0.0000       0.498728        13.5711 
 260   0.0000       0.499162        13.5829 
 261   0.0000       0.504414        13.7258 
 262   0.0000       0.506289        13.7768 
 263   0.0000       0.510845        13.9008 
 264   0.0000       0.512660        13.9502 
 265   0.0000       0.514627        14.0037 
 266   0.0000       0.516105        14.0439 
 267   0.0000       0.521690        14.1959 
 268   0.0000       0.535336        14.5672 
 269   0.0000       0.539237        14.6734 
 270   0.0000       0.541206        14.7270 
 271   0.0000       0.544786        14.8244 
 272   0.0000       0.550944        14.9919 
 273   0.0000       0.551479        15.0065 
 274   0.0000       0.562322        15.3016 
 275   0.0000       0.562771        15.3138 
 276   0.0000       0.572315        15.5735 
 277   0.0000       0.575401        15.6574 
 278   0.0000       0.582675        15.8554 
 279   0.0000       0.586480        15.9589 
 280   0.0000       0.589641        16.0449 
 281   0.0000       0.590912        16.0795 
 282   0.0000       0.593341        16.1456 
 283   0.0000       0.596414        16.2293 
 284   0.0000       0.599992        16.3266 
 285   0.0000       0.601568        16.3695 
 286   0.0000       0.605797        16.4846 
 287   0.0000       0.607651        16.5350 
 288   0.0000       0.610072        16.6009 
 289   0.0000       0.615009        16.7353 
 290   0.0000       0.616265        16.7694 
 291   0.0000       0.627830        17.0841 
 292   0.0000       0.635432        17.2910 
 293   0.0000       0.642237        17.4762 
 294   0.0000       0.646867        17.6021 
 295   0.0000       0.648286        17.6408 
 296   0.0000       0.655114        17.8266 
 297   0.0000       0.657885        17.9020 
 298   0.0000       0.663636        18.0585 
 299   0.0000       0.664453        18.0807 
 300   0.0000       0.671411        18.2700 
 301   0.0000       0.672183        18.2910 
 302   0.0000       0.674743        18.3607 
 303   0.0000       0.681441        18.5430 
 304   0.0000       0.682792        18.5797 
 305   0.0000       0.686542        18.6818 
 306   0.0000       0.689249        18.7554 
 307   0.0000       0.696035        18.9401 
 308   0.0000       0.698308        19.0019 
 309   0.0000       0.700824        19.0704 
 310   0.0000       0.703173        19.1343 
 311   0.0000       0.706615        19.2280 
 312   0.0000       0.708373        19.2758 
 313   0.0000       0.709721        19.3125 
 314   0.0000       0.709977        19.3195 
 315   0.0000       0.714503        19.4426 
 316   0.0000       0.715952        19.4820 
 317   0.0000       0.718666        19.5559 
 318   0.0000       0.720354        19.6018 
 319   0.0000       0.721891        19.6437 
 320   0.0000       0.724950        19.7269 
 321   0.0000       0.726851        19.7786 
 322   0.0000       0.731317        19.9001 
 323   0.0000       0.733817        19.9682 
 324   0.0000       0.737774        20.0759 
 325   0.0000       0.742105        20.1937 
 326   0.0000       0.744465        20.2579 
 327   0.0000       0.745975        20.2990 
 328   0.0000       0.747260        20.3340 
 329   0.0000       0.750685        20.4272 
 330   0.0000       0.751238        20.4422 
 331   0.0000       0.756540        20.5865 
 332   0.0000       0.756670        20.5900 
 333   0.0000       0.758425        20.6378 
 334   0.0000       0.766542        20.8587 
 335   0.0000       0.767425        20.8827 
 336   0.0000       0.771408        20.9911 
 337   0.0000       0.779753        21.2182 
 338   0.0000       0.782875        21.3031 
 339   0.0000       0.788706        21.4618 
 340   0.0000       0.791764        21.5450 
 341   0.0000       0.793439        21.5906 
 342   0.0000       0.797327        21.6964 
 343   0.0000       0.798758        21.7353 
 344   0.0000       0.804770        21.8989 
 345   0.0000       0.805805        21.9271 
 346   0.0000       0.807681        21.9781 
 347   0.0000       0.812227        22.1018 
 348   0.0000       0.815051        22.1787 
 349   0.0000       0.815707        22.1965 
 350   0.0000       0.818443        22.2710 
 351   0.0000       0.822303        22.3760 
 352   0.0000       0.826293        22.4846 
 353   0.0000       0.828390        22.5416 
 354   0.0000       0.830733        22.6054 
 355   0.0000       0.832444        22.6520 
 356   0.0000       0.834008        22.6945 
 357   0.0000       0.835753        22.7420 
 358   0.0000       0.837330        22.7849 
 359   0.0000       0.839232        22.8367 
 360   0.0000       0.840392        22.8682 
 361   0.0000       0.843579        22.9550 
 362   0.0000       0.845205        22.9992 
 363   0.0000       0.847171        23.0527 
 364   0.0000       0.848953        23.1012 
 365   0.0000       0.849630        23.1196 
 366   0.0000       0.850473        23.1426 
 367   0.0000       0.850804        23.1516 
 368   0.0000       0.855250        23.2725 
 369   0.0000       0.857825        23.3426 
 370   0.0000       0.864637        23.5280 
 371   0.0000       0.866128        23.5685 
 372   0.0000       0.870611        23.6905 
 373   0.0000       0.875192        23.8152 
 374   0.0000       0.880936        23.9715 
 375   0.0000       0.882143        24.0043 
 376   0.0000       0.883778        24.0488 
 377   0.0000       0.890767        24.2390 
 378   0.0000       0.891697        24.2643 
 379   0.0000       0.892771        24.2935 
 380   0.0000       0.899426        24.4746 
 381   0.0000       0.900520        24.5044 
 382   0.0000       0.902423        24.5562 
 383   0.0000       0.903293        24.5799 
 384   0.0000       0.907224        24.6868 
 385   0.0000       0.907998        24.7079 
 386   0.0000       0.909211        24.7409 
 387   0.0000       0.910580        24.7781 
 388   0.0000       0.911342        24.7989 
 389   0.0000       0.915162        24.9028 
 390   0.0000       0.917760        24.9735 
 391   0.0000       0.920898        25.0589 
 392   0.0000       0.922862        25.1124 
 393   0.0000       0.924057        25.1449 
 394   0.0000       0.929056        25.2809 
 395   0.0000       0.929334        25.2885 
 396   0.0000       0.934003        25.4155 
 397   0.0000       0.935884        25.4667 
 398   0.0000       0.937821        25.5194 
 399   0.0000       0.941975        25.6324 
 400   0.0000       0.945246        25.7215 
 401   0.0000       0.945627        25.7318 
 402   0.0000       0.948023        25.7970 
 403   0.0000       0.950063        25.8525 
 404   0.0000       0.953545        25.9473 
 405   0.0000       0.955851        26.0100 
 406   0.0000       0.958564        26.0839 
 407   0.0000       0.964253        26.2387 
 408   0.0000       0.968643        26.3581 
 409   0.0000       0.972346        26.4589 
 410   0.0000       0.974808        26.5259 
 411   0.0000       0.978211        26.6185 
 412   0.0000       0.980808        26.6891 
 413   0.0000       0.989541        26.9268 
 414   0.0000       0.991077        26.9686 
 415   0.0000       0.991657        26.9844 
 416   0.0000       0.993823        27.0433 
 417   0.0000       1.004970        27.3466 
 418   0.0000       1.006017        27.3751 
 419   0.0000       1.012348        27.5474 
 420   0.0000       1.024821        27.8868 
 421   0.0000       1.031373        28.0651 
 422   0.0000       1.032562        28.0974 
 423   0.0000       1.035442        28.1758 
 424   0.0000       1.039503        28.2863 
 425   0.0000       1.046556        28.4782 
 426   0.0000       1.053894        28.6779 
 427   0.0000       1.066552        29.0223 
 428   0.0000       1.070519        29.1303 
 429   0.0000       1.073515        29.2118 
 430   0.0000       1.076311        29.2879 
 431   0.0000       1.082405        29.4537 
 432   0.0000       1.082866        29.4663 
 433   0.0000       1.089667        29.6514 
 434   0.0000       1.093210        29.7477 
 435   0.0000       1.100312        29.9410 
 436   0.0000       1.110867        30.2282 
 437   0.0000       1.114090        30.3159 
 438   0.0000       1.116745        30.3882 
 439   0.0000       1.118467        30.4350 
 440   0.0000       1.121076        30.5060 
 441   0.0000       1.125336        30.6219 
 442   0.0000       1.126727        30.6598 
 443   0.0000       1.134291        30.8656 
 444   0.0000       1.134860        30.8811 
 445   0.0000       1.135359        30.8947 
 446   0.0000       1.138985        30.9933 
 447   0.0000       1.141349        31.0577 
 448   0.0000       1.141999        31.0754 
 449   0.0000       1.147694        31.2303 
 450   0.0000       1.148981        31.2654 
 451   0.0000       1.151195        31.3256 
 452   0.0000       1.152389        31.3581 
 453   0.0000       1.160342        31.5745 
 454   0.0000       1.162430        31.6313 
 455   0.0000       1.165017        31.7017 
 456   0.0000       1.174019        31.9467 
 457   0.0000       1.179397        32.0930 
 458   0.0000       1.180492        32.1228 
 459   0.0000       1.183485        32.2043 
 460   0.0000       1.189231        32.3606 
 461   0.0000       1.194356        32.5001 
 462   0.0000       1.196853        32.5680 
 463   0.0000       1.206093        32.8195 
 464   0.0000       1.208417        32.8827 
 465   0.0000       1.212701        32.9993 
 466   0.0000       1.213125        33.0108 
 467   0.0000       1.219696        33.1896 
 468   0.0000       1.223262        33.2866 
 469   0.0000       1.227835        33.4111 
 470   0.0000       1.233168        33.5562 
 471   0.0000       1.235774        33.6271 
 472   0.0000       1.238364        33.6976 
 473   0.0000       1.239058        33.7165 
 474   0.0000       1.241638        33.7867 
 475   0.0000       1.247665        33.9507 
 476   0.0000       1.249287        33.9948 
 477   0.0000       1.250826        34.0367 
 478   0.0000       1.253344        34.1052 
 479   0.0000       1.257251        34.2115 
 480   0.0000       1.261564        34.3289 
 481   0.0000       1.264938        34.4207 
 482   0.0000       1.266715        34.4691 
 483   0.0000       1.270762        34.5792 
 484   0.0000       1.275883        34.7186 
 485   0.0000       1.278778        34.7973 
 486   0.0000       1.281106        34.8607 
 487   0.0000       1.285126        34.9701 
 488   0.0000       1.289536        35.0900 
 489   0.0000       1.289919        35.1005 
 490   0.0000       1.291796        35.1516 
 491   0.0000       1.295953        35.2647 
 492   0.0000       1.299029        35.3484 
 493   0.0000       1.307675        35.5836 
 494   0.0000       1.312756        35.7219 
 495   0.0000       1.314527        35.7701 
 496   0.0000       1.321211        35.9520 
 497   0.0000       1.322332        35.9825 
 498   0.0000       1.326800        36.1041 
 499   0.0000       1.330062        36.1928 
 500   0.0000       1.336927        36.3796 
 501   0.0000       1.340563        36.4786 
 502   0.0000       1.343079        36.5470 
 503   0.0000       1.343517        36.5590 
 504   0.0000       1.346218        36.6325 
 505   0.0000       1.349899        36.7326 
 506   0.0000       1.353218        36.8229 
 507   0.0000       1.357174        36.9306 
 508   0.0000       1.358641        36.9705 
 509   0.0000       1.361407        37.0458 
[...]
      pz      :     0.021909  p :     0.079475
      px      :     0.043161
      py      :     0.014405
 77 H s       :     0.891071  s :     0.891071
      pz      :     0.047471  p :     0.078718
      px      :     0.015009
      py      :     0.016239
 78 H s       :     0.891459  s :     0.891459
      pz      :     0.025625  p :     0.078650
      px      :     0.020603
      py      :     0.032423
 79 H s       :     0.908568  s :     0.908568
      pz      :     0.022267  p :     0.086875
      px      :     0.021812
      py      :     0.042796
 80 H s       :     0.873475  s :     0.873475
      pz      :     0.038650  p :     0.083814
      px      :     0.029777
      py      :     0.015387
 81 H s       :     0.887472  s :     0.887472
      pz      :     0.037706  p :     0.083704
      px      :     0.016115
      py      :     0.029884
 82 H s       :     0.914655  s :     0.914655
      pz      :     0.022185  p :     0.086944
      px      :     0.031243
      py      :     0.033516
 83 H s       :     0.872199  s :     0.872199
      pz      :     0.039261  p :     0.083912
      px      :     0.015242
      py      :     0.029408
 84 H s       :     0.887268  s :     0.887268
      pz      :     0.035817  p :     0.083918
      px      :     0.031757
      py      :     0.016344
 85 H s       :     0.894061  s :     0.894061
      pz      :     0.022509  p :     0.079710
      px      :     0.014097
      py      :     0.043105
 86 H s       :     0.890555  s :     0.890555
      pz      :     0.024725  p :     0.078887
      px      :     0.033008
      py      :     0.021154
 87 H s       :     0.890348  s :     0.890348
      pz      :     0.047930  p :     0.078685
      px      :     0.015623
      py      :     0.015131
 88 H s       :     0.915123  s :     0.915123
      pz      :     0.022158  p :     0.086894
      px      :     0.042382
      py      :     0.022355
 89 H s       :     0.873099  s :     0.873099
      pz      :     0.037877  p :     0.083940
      px      :     0.030499
      py      :     0.015565


                      *****************************
                      * MAYER POPULATION ANALYSIS *
                      *****************************

  NA   - Mulliken gross atomic population
  ZA   - Total nuclear charge
  QA   - Mulliken gross atomic charge
  VA   - Mayer's total valence
  BVA  - Mayer's bonded valence
  FA   - Mayer's free valence

  ATOM       NA         ZA         QA         VA         BVA        FA
  0 C      5.7854     6.0000     0.2146     3.8226     3.8226    -0.0000
  1 N      7.4368     7.0000    -0.4368     3.3906     3.3906    -0.0000
  2 C      6.0652     6.0000    -0.0652     3.9177     3.9177    -0.0000
  3 N      7.3387     7.0000    -0.3387     3.4395     3.4395    -0.0000
  4 C      6.0707     6.0000    -0.0707     3.9804     3.9804     0.0000
  5 N      7.5643     7.0000    -0.5643     3.0803     3.0803    -0.0000
  6 C      6.0526     6.0000    -0.0526     3.9879     3.9879    -0.0000
  7 N      7.3375     7.0000    -0.3375     3.4431     3.4431     0.0000
  8 C      5.7909     6.0000     0.2091     3.8238     3.8238    -0.0000
  9 N      7.5640     7.0000    -0.5640     3.0856     3.0856     0.0000
 10 C      5.8874     6.0000     0.1126     3.8878     3.8878     0.0000
 11 N      7.4374     7.0000    -0.4374     3.3845     3.3845     0.0000
 12 C      6.0678     6.0000    -0.0678     3.9156     3.9156    -0.0000
 13 N      7.4424     7.0000    -0.4424     3.3650     3.3650     0.0000
 14 C      5.7616     6.0000     0.2384     3.7948     3.7948    -0.0000
 15 N      7.4407     7.0000    -0.4407     3.3711     3.3711     0.0000
 16 C      5.7612     6.0000     0.2388     3.7963     3.7963    -0.0000
 17 C      6.0604     6.0000    -0.0604     3.9893     3.9893     0.0000
 18 C      6.2082     6.0000    -0.2082     3.7376     3.7376    -0.0000
 19 C      5.7597     6.0000     0.2403     3.8760     3.8760    -0.0000
 20 C      5.7952     6.0000     0.2048     3.8241     3.8241    -0.0000
 21 C      6.0799     6.0000    -0.0799     3.9046     3.9046    -0.0000
 22 C      6.0862     6.0000    -0.0862     3.9844     3.9844    -0.0000
 23 C      6.0525     6.0000    -0.0525     3.9893     3.9893     0.0000
 24 C      5.7906     6.0000     0.2094     3.8244     3.8244     0.0000
 25 C      5.8862     6.0000     0.1138     3.8899     3.8899    -0.0000
 26 C      6.0709     6.0000    -0.0709     3.9068     3.9068    -0.0000
 27 C      5.7710     6.0000     0.2290     3.8893     3.8893     0.0000
 28 C      6.0495     6.0000    -0.0495     3.9876     3.9876    -0.0000
 29 C      6.1884     6.0000    -0.1884     3.7316     3.7316     0.0000
 30 C      5.7679     6.0000     0.2321     3.7908     3.7908    -0.0000
 31 C      5.7949     6.0000     0.2051     3.8287     3.8287    -0.0000
 32 C      6.0661     6.0000    -0.0661     3.9158     3.9158     0.0000
 33 C      6.0864     6.0000    -0.0864     3.9855     3.9855     0.0000
 34 C      6.0506     6.0000    -0.0506     3.9938     3.9938     0.0000
 35 C      5.8014     6.0000     0.1986     3.8266     3.8266    -0.0000
 36 C      5.8843     6.0000     0.1157     3.8960     3.8960     0.0000
 37 C      6.0677     6.0000    -0.0677     3.9171     3.9171     0.0000
 38 C      5.7617     6.0000     0.2383     3.7978     3.7978     0.0000
 39 C      6.0619     6.0000    -0.0619     3.9930     3.9930    -0.0000
 40 C      6.1931     6.0000    -0.1931     3.7438     3.7438     0.0000
 41 C      5.7795     6.0000     0.2205     3.8799     3.8799     0.0000
 42 C      5.7942     6.0000     0.2058     3.8286     3.8286    -0.0000
 43 C      6.0741     6.0000    -0.0741     3.9040     3.9040    -0.0000
 44 C      6.0889     6.0000    -0.0889     3.9848     3.9848     0.0000
 45 C      6.0491     6.0000    -0.0491     3.9936     3.9936     0.0000
 46 C      5.8004     6.0000     0.1996     3.8242     3.8242    -0.0000
 47 C      5.8843     6.0000     0.1157     3.8941     3.8941     0.0000
 48 C      6.0760     6.0000    -0.0760     3.9025     3.9025     0.0000
 49 C      5.7776     6.0000     0.2224     3.8795     3.8795    -0.0000
 50 C      6.0560     6.0000    -0.0560     3.9900     3.9900     0.0000
 51 C      6.1891     6.0000    -0.1891     3.7371     3.7371     0.0000
 52 H      0.9398     1.0000     0.0602     0.9845     0.9845    -0.0000
 53 H      1.0127     1.0000    -0.0127     0.9997     0.9997    -0.0000
 54 H      0.9507     1.0000     0.0493     1.0072     1.0072    -0.0000
 55 H      0.9418     1.0000     0.0582     0.9855     0.9855    -0.0000
 56 H      0.9357     1.0000     0.0643     0.9718     0.9718    -0.0000
 57 H      0.9394     1.0000     0.0606     0.9843     0.9843     0.0000
 58 H      0.9404     1.0000     0.0596     0.9857     0.9857    -0.0000
 59 H      1.0162     1.0000    -0.0162     0.9985     0.9985    -0.0000
 60 H      0.9489     1.0000     0.0511     1.0087     1.0087     0.0000
 61 H      0.8261     1.0000     0.1739     1.0428     1.0428    -0.0000
 62 H      0.8283     1.0000     0.1717     1.0434     1.0434    -0.0000
 63 H      0.9435     1.0000     0.0565     0.9855     0.9855    -0.0000
 64 H      1.0222     1.0000    -0.0222     0.9949     0.9949     0.0000
 65 H      0.9533     1.0000     0.0467     1.0086     1.0086     0.0000
 66 H      0.9421     1.0000     0.0579     0.9848     0.9848    -0.0000
 67 H      0.9376     1.0000     0.0624     0.9719     0.9719     0.0000
 68 H      0.9418     1.0000     0.0582     0.9867     0.9867    -0.0000
 69 H      0.9406     1.0000     0.0594     0.9830     0.9830     0.0000
 70 H      1.0226     1.0000    -0.0226     0.9951     0.9951    -0.0000
 71 H      0.9517     1.0000     0.0483     1.0069     1.0069    -0.0000
 72 H      0.9481     1.0000     0.0519     0.9853     0.9853     0.0000
 73 H      1.0161     1.0000    -0.0161     0.9980     0.9980     0.0000
 74 H      0.9574     1.0000     0.0426     1.0097     1.0097    -0.0000
 75 H      0.9490     1.0000     0.0510     0.9858     0.9858    -0.0000
 76 H      0.9418     1.0000     0.0582     0.9713     0.9713     0.0000
 77 H      0.9447     1.0000     0.0553     0.9849     0.9849     0.0000
 78 H      0.9455     1.0000     0.0545     0.9844     0.9844     0.0000
 79 H      1.0135     1.0000    -0.0135     1.0000     1.0000     0.0000
 80 H      0.9571     1.0000     0.0429     1.0069     1.0069    -0.0000
 81 H      0.9470     1.0000     0.0530     0.9854     0.9854     0.0000
 82 H      1.0231     1.0000    -0.0231     0.9945     0.9945    -0.0000
 83 H      0.9565     1.0000     0.0435     1.0096     1.0096    -0.0000
 84 H      0.9472     1.0000     0.0528     0.9857     0.9857     0.0000
 85 H      0.9416     1.0000     0.0584     0.9715     0.9715     0.0000
 86 H      0.9434     1.0000     0.0566     0.9841     0.9841     0.0000
 87 H      0.9437     1.0000     0.0563     0.9855     0.9855     0.0000
 88 H      1.0237     1.0000    -0.0237     0.9937     0.9937    -0.0000
 89 H      0.9569     1.0000     0.0431     1.0069     1.0069     0.0000

  Mayer bond orders larger than 0.100000
B(  0-C ,  1-N ) :   1.1319 B(  0-C , 17-C ) :   1.6155 B(  0-C , 52-H ) :   0.9690 
B(  1-N ,  8-C ) :   1.1260 B(  1-N , 10-C ) :   0.9559 B(  2-C , 12-C ) :   1.5417 
B(  2-C , 16-C ) :   1.3168 B(  2-C , 53-H ) :   0.9780 B(  3-N , 14-C ) :   1.1966 
B(  3-N , 16-C ) :   1.1982 B(  3-N , 61-H ) :   0.8976 B(  4-C ,  6-C ) :   1.2806 
B(  4-C , 17-C ) :   1.2826 B(  4-C , 18-C ) :   1.2311 B(  5-N , 19-C ) :   1.4088 
B(  5-N , 27-C ) :   1.4129 B(  6-C ,  8-C ) :   1.6186 B(  6-C , 54-H ) :   0.9713 
B(  7-N , 30-C ) :   1.1922 B(  7-N , 38-C ) :   1.2045 B(  7-N , 62-H ) :   0.8990 
B(  8-C , 55-H ) :   0.9697 B(  9-N , 41-C ) :   1.4149 B(  9-N , 49-C ) :   1.4095 
B( 10-C , 56-H ) :   0.9763 B( 10-C , 57-H ) :   0.9816 B( 10-C , 58-H ) :   0.9833 
B( 11-N , 20-C ) :   1.1213 B( 11-N , 24-C ) :   1.1274 B( 11-N , 25-C ) :   0.9580 
B( 12-C , 14-C ) :   1.3170 B( 12-C , 59-H ) :   0.9770 B( 13-N , 31-C ) :   1.1139 
B( 13-N , 35-C ) :   1.1069 B( 13-N , 36-C ) :   0.9648 B( 14-C , 18-C ) :   1.2057 
B( 15-N , 42-C ) :   1.1190 B( 15-N , 46-C ) :   1.1098 B( 15-N , 47-C ) :   0.9627 
B( 16-C , 51-C ) :   1.2060 B( 17-C , 60-H ) :   0.9712 B( 18-C , 19-C ) :   1.2315 
B( 19-C , 21-C ) :   1.1999 B( 20-C , 28-C ) :   1.6221 B( 20-C , 63-H ) :   0.9703 
B( 21-C , 26-C ) :   1.6513 B( 21-C , 64-H ) :   0.9722 B( 22-C , 23-C ) :   1.2799 
B( 22-C , 28-C ) :   1.2773 B( 22-C , 29-C ) :   1.2329 B( 23-C , 24-C ) :   1.6194 
B( 23-C , 65-H ) :   0.9711 B( 24-C , 66-H ) :   0.9690 B( 25-C , 67-H ) :   0.9762 
B( 25-C , 68-H ) :   0.9830 B( 25-C , 69-H ) :   0.9820 B( 26-C , 27-C ) :   1.2017 
B( 26-C , 70-H ) :   0.9737 B( 27-C , 29-C ) :   1.2351 B( 28-C , 71-H ) :   0.9713 
B( 29-C , 30-C ) :   1.2012 B( 30-C , 32-C ) :   1.3229 B( 31-C , 39-C ) :   1.6425 
B( 31-C , 72-H ) :   0.9700 B( 32-C , 37-C ) :   1.5353 B( 32-C , 73-H ) :   0.9776 
B( 33-C , 34-C ) :   1.2654 B( 33-C , 39-C ) :   1.2586 B( 33-C , 40-C ) :   1.2728 
B( 34-C , 35-C ) :   1.6399 B( 34-C , 74-H ) :   0.9706 B( 35-C , 75-H ) :   0.9699 
B( 36-C , 76-H ) :   0.9761 B( 36-C , 77-H ) :   0.9822 B( 36-C , 78-H ) :   0.9833 
B( 37-C , 38-C ) :   1.3231 B( 37-C , 79-H ) :   0.9781 B( 38-C , 40-C ) :   1.1996 
B( 39-C , 80-H ) :   0.9717 B( 40-C , 41-C ) :   1.2085 B( 41-C , 43-C ) :   1.2215 
B( 42-C , 50-C ) :   1.6343 B( 42-C , 81-H ) :   0.9696 B( 43-C , 48-C ) :   1.6300 
B( 43-C , 82-H ) :   0.9742 B( 44-C , 45-C ) :   1.2740 B( 44-C , 50-C ) :   1.2639 
B( 44-C , 51-C ) :   1.2527 B( 45-C , 46-C ) :   1.6316 B( 45-C , 83-H ) :   0.9709 
B( 46-C , 84-H ) :   0.9703 B( 47-C , 85-H ) :   0.9761 B( 47-C , 86-H ) :   0.9827 
B( 47-C , 87-H ) :   0.9827 B( 48-C , 49-C ) :   1.2198 B( 48-C , 88-H ) :   0.9736 
B( 49-C , 51-C ) :   1.2161 B( 50-C , 89-H ) :   0.9715 

-------
TIMINGS
-------

Total SCF time: 0 days 0 hours 28 min 15 sec 

Total time                  ....    1695.773 sec
Sum of individual times     ....    1691.004 sec  ( 99.7%)

Fock matrix formation       ....    1663.221 sec  ( 98.1%)
Diagonalization             ....       8.821 sec  (  0.5%)
Density matrix formation    ....       0.533 sec  (  0.0%)
Population analysis         ....       0.590 sec  (  0.0%)
Initial guess               ....       2.527 sec  (  0.1%)
Orbital Transformation      ....       0.000 sec  (  0.0%)
Orbital Orthonormalization  ....       0.000 sec  (  0.0%)
DIIS solution               ....       3.970 sec  (  0.2%)
SOSCF solution              ....      10.046 sec  (  0.6%)

Maximum memory used throughout the entire SCF-calculation: 302.6 MB


           ************************************************************
           *        Program running with 16 parallel MPI-processes    *
           *              working on a common directory               *
           ************************************************************

------------------------------------------------------------------------------
                                ORCA  MP2 
------------------------------------------------------------------------------

Freezing NCore=104 chemical core electrons

----------
MP2 ENERGY (disk based algorithm)
----------

Dimension of the basis                    ...  918
Memory devoted to MP2                     ... 2000 MB   
Data format for buffers                   ... DOUBLE
Compression type for matrix containers    ... UNCOMPRESSED

-------------------------------
PARTIAL EXCHANGE TRANSFORMATION
-------------------------------

Transformation type                        ... one-operator
Generation of integrals (i,mue|j,nue)      ... ON
Generation of integrals (mue,kappa|nue,tau)... OFF
Generation of integrals (i,mue|a,nue)      ... OFF
Dimension of the basis                     ...  918
Number of internal MOs                     ...  127 (  52- 178)
Pair cutoff                                ... 2.500e-12 Eh
Number of AO pairs in the trafo            ... 421821
Total Number of distinct AO pairs          ... 421821
Memory devoted for trafo                   ... 2000.0 MB 
Max. Number of MO pairs treated together   ...  311      
Number Format for Storage                  ... Double (8 Byte)
Integral package used                      ... LIBINT

Starting integral evaluation:
    ... done with AO integral generation
Closing buffer AOK     (38.22 GB; CompressionRatio= 1.33)
Collecting buffer AOK 
Number of MO pairs included in the trafo   ... 8128
------------------------
SORTING OF (i,mue|j,nue)
------------------------

IBATCH = 1 of  2
IBATCH = 2 of  2
Closing buffer KAO     (51.03 GB; CompressionRatio= 1.00)
Collecting buffer KAO 
N(AO-Batches) Done                         ...  85316402 
N(AO-Batches) Skipped                      ...  82477509 
N(IJ)-pairs Skipped                        ...         0 
TOTAL TIME for half transformation         ...  2668.769 sec
AO-integral generation                     ...   209.818 sec
Half transformation                        ...   425.196 sec
K-integral sorting                         ...  1814.756 sec
Process 10:   Internal MO 132
Process 13:   Internal MO 156

Finished integral transformation - now doing MP2 part

OPERATOR COMBINATION   0   0: ij=( 52..178, 52..178)
Process  4:   Internal MO  84
Process  1:   Internal MO  60
Process  7:   Internal MO 108
Process  0:   Internal MO  54
Process  1:   Internal MO  63
Process  0:   Internal MO  57
Process  2:   Internal MO  69
Process  1:   Internal MO  66
Process  8:   Internal MO 117
Process  3:   Internal MO  78
Process  5:   Internal MO  93
Process 11:   Internal MO 141
Process  2:   Internal MO  72
Process  6:   Internal MO 102
Process  4:   Internal MO  87
Process  9:   Internal MO 126
Process 14:   Internal MO 165
Process  7:   Internal MO 111
Process  3:   Internal MO  81
Process  2:   Internal MO  75
Process 10:   Internal MO 135
Process 15:   Internal MO 174
Process  8:   Internal MO 120
Process  6:   Internal MO 105
Process 12:   Internal MO 150
Process  5:   Internal MO  96
Process  4:   Internal MO  90
Process  7:   Internal MO 114
Process  9:   Internal MO 129
Process  5:   Internal MO  99
Process 11:   Internal MO 144
Process 13:   Internal MO 159
Process 14:   Internal MO 168
Process 10:   Internal MO 138
Process  8:   Internal MO 123
Process 12:   Internal MO 153
Process 15:   Internal MO 177
Process 11:   Internal MO 147
Process 13:   Internal MO 162
Process 14:   Internal MO 171
-----------------------------------------------
 MP2 CORRELATION ENERGY   :     -7.289925106 Eh
-----------------------------------------------


-------
TIMINGS
-------
Total time                : 3009.669 sec
Integral trafo            : 2670.972 sec ( 88.7%)
K(i,j)                    :    7.806 sec (  0.3%)
T(i,j)                    :    0.316 sec (  0.0%)

---------------------------------------
MP2 TOTAL ENERGY:    -2130.909316767 Eh
---------------------------------------

Maximum memory used throughout the entire MP2-calculation: 2275.2 MB

-------------------------   --------------------
FINAL SINGLE POINT ENERGY     -2130.909316767436
-------------------------   --------------------


                            ***************************************
                            *     ORCA property calculations      *
                            ***************************************


  WARNING: The energy has been calculated at the MP2 level but the densities
           used in the property calculations are still SCF densities
           MP2 response densities have not been calculated 
           use %mp2 Density relaxed end
           or  %mp2 Density unrelaxed end

                                    ---------------------
                                    Active property flags
                                    ---------------------
   (+) Dipole Moment


------------------------------------------------------------------------------
                       ORCA ELECTRIC PROPERTIES CALCULATION
------------------------------------------------------------------------------

Dipole Moment Calculation                       ... on
Quadrupole Moment Calculation                   ... off
Polarizability Calculation                      ... off
GBWName                                         ... /scratch/allen/tmpyp4_amber_gaff2/conf1/conf1/Conf245.orca.gbw
Electron density                                ... /scratch/allen/tmpyp4_amber_gaff2/conf1/conf1/Conf245.orca.scfp
The origin for moment calculation is the CENTER OF MASS  = ( 0.001362, -0.003125 -0.001689)

-------------
DIPOLE MOMENT
-------------
                                X             Y             Z
Electronic contribution:     -1.22976       0.38414      -0.10294
Nuclear contribution   :      0.07375       0.23800       0.11721
                        -----------------------------------------
Total Dipole Moment    :     -1.15601       0.62213       0.01427
                        -----------------------------------------
Magnitude (a.u.)       :      1.31286
Magnitude (Debye)      :      3.33703



--------------------
Rotational spectrum 
--------------------
 
Rotational constants in cm-1:     0.001498     0.001474     0.000762 
Rotational constants in MHz :    44.920739    44.186730    22.850394 

 Dipole components along the rotational axes: 
x,y,z [a.u.] :    -1.300668     0.178100     0.012397 
x,y,z [Debye]:    -3.306035     0.452693     0.031510 

 

Timings for individual modules:

Sum of individual times         ...     4729.313 sec (=  78.822 min)
GTO integral calculation        ...        3.657 sec (=   0.061 min)   0.1 %
SCF iterations                  ...     1697.016 sec (=  28.284 min)  35.9 %
MP2 module                      ...     3028.640 sec (=  50.477 min)  64.0 %
                             ****ORCA TERMINATED NORMALLY****
TOTAL RUN TIME: 0 days 1 hours 18 minutes 53 seconds 33 msec
# of primitive gaussian functions

