
                                 *****************
                                 * O   R   C   A *
                                 *****************

                                            #,                                       
                                            ###                                      
                                            ####                                     
                                            #####                                    
                                            ######                                   
                                           ########,                                 
                                     ,,################,,,,,                         
                               ,,#################################,,                 
                          ,,##########################################,,             
                       ,#########################################, ''#####,          
                    ,#############################################,,   '####,        
                  ,##################################################,,,,####,       
                ,###########''''           ''''###############################       
              ,#####''   ,,,,##########,,,,          '''####'''          '####       
            ,##' ,,,,###########################,,,                        '##       
           ' ,,###''''                  '''############,,,                           
         ,,##''                                '''############,,,,        ,,,,,,###''
      ,#''                                            '''#######################'''  
     '                                                          ''''####''''         
             ,#######,   #######,   ,#######,      ##                                
            ,#'     '#,  ##    ##  ,#'     '#,    #''#        ######   ,####,        
            ##       ##  ##   ,#'  ##            #'  '#       #        #'  '#        
            ##       ##  #######   ##           ,######,      #####,   #    #        
            '#,     ,#'  ##    ##  '#,     ,#' ,#      #,         ##   #,  ,#        
             '#######'   ##     ##  '#######'  #'      '#     #####' # '####'        



                  #######################################################
                  #                        -***-                        #
                  #          Department of theory and spectroscopy      #
                  #    Directorship and core code : Frank Neese         #
                  #        Max Planck Institute fuer Kohlenforschung    #
                  #                Kaiser Wilhelm Platz 1               #
                  #                 D-45470 Muelheim/Ruhr               #
                  #                      Germany                        #
                  #                                                     #
                  #                  All rights reserved                #
                  #                        -***-                        #
                  #######################################################


                         Program Version 5.0.4 -  RELEASE  -


 With contributions from (in alphabetic order):
   Daniel Aravena         : Magnetic Suceptibility
   Michael Atanasov       : Ab Initio Ligand Field Theory (pilot matlab implementation)
   Alexander A. Auer      : GIAO ZORA, VPT2 properties, NMR spectrum
   Ute Becker             : Parallelization
   Giovanni Bistoni       : ED, misc. LED, open-shell LED, HFLD
   Martin Brehm           : Molecular dynamics
   Dmytro Bykov           : SCF Hessian
   Vijay G. Chilkuri      : MRCI spin determinant printing, contributions to CSF-ICE
   Dipayan Datta          : RHF DLPNO-CCSD density
   Achintya Kumar Dutta   : EOM-CC, STEOM-CC
   Dmitry Ganyushin       : Spin-Orbit,Spin-Spin,Magnetic field MRCI
   Miquel Garcia          : C-PCM and meta-GGA Hessian, CC/C-PCM, Gaussian charge scheme
   Yang Guo               : DLPNO-NEVPT2, F12-NEVPT2, CIM, IAO-localization
   Andreas Hansen         : Spin unrestricted coupled pair/coupled cluster methods
   Benjamin Helmich-Paris : MC-RPA, TRAH-SCF, COSX integrals
   Lee Huntington         : MR-EOM, pCC
   Robert Izsak           : Overlap fitted RIJCOSX, COSX-SCS-MP3, EOM
   Marcus Kettner         : VPT2
   Christian Kollmar      : KDIIS, OOCD, Brueckner-CCSD(T), CCSD density, CASPT2, CASPT2-K
   Simone Kossmann        : Meta GGA functionals, TD-DFT gradient, OOMP2, MP2 Hessian
   Martin Krupicka        : Initial AUTO-CI
   Lucas Lang             : DCDCAS
   Marvin Lechner         : AUTO-CI (C++ implementation), FIC-MRCC
   Dagmar Lenk            : GEPOL surface, SMD
   Dimitrios Liakos       : Extrapolation schemes; Compound Job, initial MDCI parallelization
   Dimitrios Manganas     : Further ROCIS development; embedding schemes
   Dimitrios Pantazis     : SARC Basis sets
   Anastasios Papadopoulos: AUTO-CI, single reference methods and gradients
   Taras Petrenko         : DFT Hessian,TD-DFT gradient, ASA, ECA, R-Raman, ABS, FL, XAS/XES, NRVS
   Peter Pinski           : DLPNO-MP2, DLPNO-MP2 Gradient
   Christoph Reimann      : Effective Core Potentials
   Marius Retegan         : Local ZFS, SOC
   Christoph Riplinger    : Optimizer, TS searches, QM/MM, DLPNO-CCSD(T), (RO)-DLPNO pert. Triples
   Tobias Risthaus        : Range-separated hybrids, TD-DFT gradient, RPA, STAB
   Michael Roemelt        : Original ROCIS implementation
   Masaaki Saitow         : Open-shell DLPNO-CCSD energy and density
   Barbara Sandhoefer     : DKH picture change effects
   Avijit Sen             : IP-ROCIS
   Kantharuban Sivalingam : CASSCF convergence, NEVPT2, FIC-MRCI
   Bernardo de Souza      : ESD, SOC TD-DFT
   Georgi Stoychev        : AutoAux, RI-MP2 NMR, DLPNO-MP2 response
   Willem Van den Heuvel  : Paramagnetic NMR
   Boris Wezisla          : Elementary symmetry handling
   Frank Wennmohs         : Technical directorship


 We gratefully acknowledge several colleagues who have allowed us to
 interface, adapt or use parts of their codes:
   Stefan Grimme, W. Hujo, H. Kruse, P. Pracht,  : VdW corrections, initial TS optimization,
                  C. Bannwarth, S. Ehlert          DFT functionals, gCP, sTDA/sTD-DF
   Ed Valeev, F. Pavosevic, A. Kumar             : LibInt (2-el integral package), F12 methods
   Garnet Chan, S. Sharma, J. Yang, R. Olivares  : DMRG
   Ulf Ekstrom                                   : XCFun DFT Library
   Mihaly Kallay                                 : mrcc  (arbitrary order and MRCC methods)
   Jiri Pittner, Ondrej Demel                    : Mk-CCSD
   Frank Weinhold                                : gennbo (NPA and NBO analysis)
   Christopher J. Cramer and Donald G. Truhlar   : smd solvation model
   Lars Goerigk                                  : TD-DFT with DH, B97 family of functionals
   V. Asgeirsson, H. Jonsson                     : NEB implementation
   FAccTs GmbH                                   : IRC, NEB, NEB-TS, DLPNO-Multilevel, CI-OPT
                                                   MM, QMMM, 2- and 3-layer-ONIOM, Crystal-QMMM,
                                                   LR-CPCM, SF, NACMEs, symmetry and pop. for TD-DFT,
                                                   nearIR, NL-DFT gradient (VV10), updates on ESD,
                                                   ML-optimized integration grids
   S Lehtola, MJT Oliveira, MAL Marques          : LibXC Library
   Liviu Ungur et al                             : ANISO software


 Your calculation uses the libint2 library for the computation of 2-el integrals
 For citations please refer to: http://libint.valeyev.net

 Your ORCA version has been built with support for libXC version: 5.1.0
 For citations please refer to: https://tddft.org/programs/libxc/

 This ORCA versions uses:
   CBLAS   interface :  Fast vector & matrix operations
   LAPACKE interface :  Fast linear algebra routines
   SCALAPACK package :  Parallel linear algebra routines
   Shared memory     :  Shared parallel matrices
   BLAS/LAPACK       :  OpenBLAS 0.3.15  USE64BITINT DYNAMIC_ARCH NO_AFFINITY Sandybridge SINGLE_THREADED
        Core in use  :  Sandybridge
   Copyright (c) 2011-2014, The OpenBLAS Project


================================================================================

----- Orbital basis set information -----
Your calculation utilizes the basis: cc-pVDZ 
       H, B-Ne : Obtained from the ccRepo (grant-hill.group.shef.ac.uk/ccrepo) Feb. 2017
                 T. H. Dunning, Jr., J. Chem. Phys. 90, 1007 (1989)
            He : Obtained from the ccRepo (grant-hill.group.shef.ac.uk/ccrepo) Feb. 2017
                 D. E. Woon, T. H. Dunning, Jr., J. Chem. Phys. 100, 2975 (1994)
  Li-Be, Na-Mg : Obtained from the ccRepo (grant-hill.group.shef.ac.uk/ccrepo) Feb. 2017
                 B. P. Prascher, D. E. Woon, K. A. Peterson, T. H. Dunning, Jr., A. K. Wilson, Theor. Chem. Acc. 128, 69 (2011)
         Al-Ar : Obtained from the ccRepo (grant-hill.group.shef.ac.uk/ccrepo) Feb. 2017
                 D. E. Woon, T. H. Dunning, Jr., J. Chem. Phys. 98, 1358 (1993)
            Ca : Obtained from the Peterson Research Group Website (tyr0.chem.wsu.edu/~kipeters) Feb. 2017
                 J. Koput, K. A. Peterson, J. Phys. Chem. 106, 9595 (2002)
         Sc-Zn : Obtained from the ccRepo (grant-hill.group.shef.ac.uk/ccrepo) Feb. 2017
                 N. B. Balabanov, K. A. Peterson, J. Chem. Phys. 123, 064107 (2005)
                 N. B. Balabanov, K. A. Peterson, J. Chem. Phys. 125, 074110 (2006)
         Ga-Kr : Obtained from the ccRepo (grant-hill.group.shef.ac.uk/ccrepo) Feb. 2017
                 A. K. Wilson, D. E. Woon, K. A. Peterson, T. H. Dunning, Jr., J. Chem. Phys. 110, 7667 (1999)

================================================================================
                                        WARNINGS
                       Please study these warnings very carefully!
================================================================================


WARNING: No MP2 level density has been requested!
         To caclulate MP2 level properties use
         %mp2 Density relaxed end
         or
         %mp2 Density unrelaxed end

WARNING: Post HF methods need fully converged wavefunctions
  ===> : Setting SCFConvForced true
         You can overwrite this default with %scf ConvForced false 


INFO   : the flag for use of the SHARK integral package has been found!

================================================================================
                                       INPUT FILE
================================================================================
NAME = /scratch/allen/tmpyp4_amber_gaff2/2.Mdgx/conf11/conf11/Conf32.orca
|  1> ! PAL2
|  2> ! mp2 cc-pvdz TightSCF  NoKeepInts
|  3> 
|  4> %scf
|  5>   MaxCore 2000
|  6> end
|  7> %mp2
|  8>   MaxCore 2000
|  9> end
| 10> * xyz 0 1
| 11>    C       -3.16400         6.41800        -0.48900
| 12>    C        1.47400         4.04100         0.05700
| 13>    C       -2.80200         4.09300         0.04900
| 14>    C       -4.06100         4.09300         0.66900
| 15>    C       -4.82500         5.24300         0.68700
| 16>    C       -5.23100         7.59000         0.12000
| 17>    C        0.13200         4.30700         0.06100
| 18>    C       -0.56900         3.05600         0.04700
| 19>    C        1.64900         2.61800         0.02300
| 20>    C       -2.36600         5.29100        -0.53800
| 21>    N       -4.37200         6.38400         0.11700
| 22>    N        0.38800         2.06700         0.02500
| 23>    N       -2.01000         0.39500        -0.07500
| 24>    N       -0.38800        -2.07400        -0.02700
| 25>    N        2.01000        -0.40100         0.06500
| 26>    C       -1.96000         2.86100         0.02400
| 27>    C       -2.62300         1.61500        -0.01800
| 28>    C       -5.57300        -4.32900         1.06600
| 29>    C       -4.07300         1.47100         0.05600
| 30>    C       -4.10600        -2.75600        -0.02600
| 31>    C       -4.99500        -2.75700        -1.11100
| 32>    C       -6.13200        -3.54200        -1.07600
| 33>    C       -7.65100        -5.11300         0.04000
| 34>    C       -4.32400         0.14100         0.03700
| 35>    C       -3.02500        -0.52000        -0.04800
| 36>    C       -4.42200        -3.56600         1.07500
| 37>    N       -6.40700        -4.31300         0.00100
| 38>    C       -2.86700        -1.92200        -0.04000
| 39>    C       -1.65000        -2.62400        -0.02700
| 40>    C        3.56800        -6.14200        -1.04000
| 41>    C       -1.47600        -4.04900        -0.03400
| 42>    C        2.80300        -4.09900        -0.00800
| 43>    C        3.65700        -4.38400         1.06900
| 44>    C        4.42700        -5.53000         1.05900
| 45>    C        5.24500        -7.58800         0.01400
| 46>    C       -0.13400        -4.31500        -0.02200
| 47>    C        0.56800        -3.06400        -0.02700
| 48>    C        2.77500        -5.01200        -1.07400
| 49>    N        4.37600        -6.39100         0.01700
| 50>    C        1.95900        -2.86900        -0.00900
| 51>    C        2.62100        -1.62200         0.00900
| 52>    C        5.54300         4.33900        -1.13000
| 53>    C        4.07000        -1.47900        -0.09400
| 54>    C        4.10400         2.75100        -0.02100
| 55>    C        5.02700         2.72900         1.03600
| 56>    C        6.16600         3.50900         0.97800
| 57>    C        7.61900         5.15300        -0.11500
| 58>    C        4.32100        -0.14800        -0.09200
| 59>    C        3.02500         0.51400         0.01500
| 60>    C        4.38700         3.58200        -1.11500
| 61>    C        2.86600         1.91600         0.01300
| 62>    N        6.41300         4.29600        -0.09500
| 63>    H       -2.86300         7.36600        -0.91700
| 64>    H        2.27400         4.76600         0.08100
| 65>    H       -4.45700         3.19700         1.13100
| 66>    H       -5.80500         5.29000         1.14500
| 67>    H       -5.90300         7.55000        -0.74000
| 68>    H       -5.80600         7.60800         1.04600
| 69>    H       -4.59600         8.47300         0.05800
| 70>    H       -0.33200         5.28200         0.06900
| 71>    H       -1.39700         5.35900        -1.01900
| 72>    H        0.18200         1.07200         0.00500
| 73>    H       -0.18300        -1.08000        -0.02100
| 74>    H       -5.86400        -4.96200         1.89500
| 75>    H       -4.79400         2.27200         0.13900
| 76>    H       -4.80000        -2.16000        -1.99400
| 77>    H       -6.84100        -3.58200        -1.89300
| 78>    H       -8.42800        -4.53600         0.54600
| 79>    H       -7.95600        -5.33700        -0.98100
| 80>    H       -7.45600        -6.03700         0.58400
| 81>    H       -5.28700        -0.34400         0.10000
| 82>    H       -3.78000        -3.60100         1.94700
| 83>    H        3.58700        -6.86800        -1.84300
| 84>    H       -2.27600        -4.77400        -0.05000
| 85>    H        3.71400        -3.72400         1.92600
| 86>    H        5.09200        -5.79500         1.87100
| 87>    H        6.20500        -7.32900        -0.43900
| 88>    H        5.39300        -7.91700         1.04200
| 89>    H        4.75900        -8.37300        -0.56400
| 90>    H        0.32900        -5.29000        -0.00800
| 91>    H        2.14600        -4.84200        -1.94000
| 92>    H        5.80800         4.98600        -1.95600
| 93>    H        4.78800        -2.28100        -0.18500
| 94>    H        4.86000         2.11400         1.91200
| 95>    H        6.90100         3.53100         1.77200
| 96>    H        7.38300         6.10900         0.35600
| 97>    H        8.41400         4.65200         0.43500
| 98>    H        7.92100         5.31000        -1.15000
| 99>    H        5.28300         0.33600        -0.17900
|100>    H        3.72000         3.63200        -1.96700
|101> *
|102> 
|103>                          ****END OF INPUT****
================================================================================

                       ****************************
                       * Single Point Calculation *
                       ****************************

---------------------------------
CARTESIAN COORDINATES (ANGSTROEM)
---------------------------------
  C     -3.164000    6.418000   -0.489000
  C      1.474000    4.041000    0.057000
  C     -2.802000    4.093000    0.049000
  C     -4.061000    4.093000    0.669000
  C     -4.825000    5.243000    0.687000
  C     -5.231000    7.590000    0.120000
  C      0.132000    4.307000    0.061000
  C     -0.569000    3.056000    0.047000
  C      1.649000    2.618000    0.023000
  C     -2.366000    5.291000   -0.538000
  N     -4.372000    6.384000    0.117000
  N      0.388000    2.067000    0.025000
  N     -2.010000    0.395000   -0.075000
  N     -0.388000   -2.074000   -0.027000
  N      2.010000   -0.401000    0.065000
  C     -1.960000    2.861000    0.024000
  C     -2.623000    1.615000   -0.018000
  C     -5.573000   -4.329000    1.066000
  C     -4.073000    1.471000    0.056000
  C     -4.106000   -2.756000   -0.026000
  C     -4.995000   -2.757000   -1.111000
  C     -6.132000   -3.542000   -1.076000
  C     -7.651000   -5.113000    0.040000
  C     -4.324000    0.141000    0.037000
  C     -3.025000   -0.520000   -0.048000
  C     -4.422000   -3.566000    1.075000
  N     -6.407000   -4.313000    0.001000
  C     -2.867000   -1.922000   -0.040000
  C     -1.650000   -2.624000   -0.027000
  C      3.568000   -6.142000   -1.040000
  C     -1.476000   -4.049000   -0.034000
  C      2.803000   -4.099000   -0.008000
  C      3.657000   -4.384000    1.069000
  C      4.427000   -5.530000    1.059000
  C      5.245000   -7.588000    0.014000
  C     -0.134000   -4.315000   -0.022000
  C      0.568000   -3.064000   -0.027000
  C      2.775000   -5.012000   -1.074000
  N      4.376000   -6.391000    0.017000
  C      1.959000   -2.869000   -0.009000
  C      2.621000   -1.622000    0.009000
  C      5.543000    4.339000   -1.130000
  C      4.070000   -1.479000   -0.094000
  C      4.104000    2.751000   -0.021000
  C      5.027000    2.729000    1.036000
  C      6.166000    3.509000    0.978000
  C      7.619000    5.153000   -0.115000
  C      4.321000   -0.148000   -0.092000
  C      3.025000    0.514000    0.015000
  C      4.387000    3.582000   -1.115000
  C      2.866000    1.916000    0.013000
  N      6.413000    4.296000   -0.095000
  H     -2.863000    7.366000   -0.917000
  H      2.274000    4.766000    0.081000
  H     -4.457000    3.197000    1.131000
  H     -5.805000    5.290000    1.145000
  H     -5.903000    7.550000   -0.740000
  H     -5.806000    7.608000    1.046000
  H     -4.596000    8.473000    0.058000
  H     -0.332000    5.282000    0.069000
  H     -1.397000    5.359000   -1.019000
  H      0.182000    1.072000    0.005000
  H     -0.183000   -1.080000   -0.021000
  H     -5.864000   -4.962000    1.895000
  H     -4.794000    2.272000    0.139000
  H     -4.800000   -2.160000   -1.994000
  H     -6.841000   -3.582000   -1.893000
  H     -8.428000   -4.536000    0.546000
  H     -7.956000   -5.337000   -0.981000
  H     -7.456000   -6.037000    0.584000
  H     -5.287000   -0.344000    0.100000
  H     -3.780000   -3.601000    1.947000
  H      3.587000   -6.868000   -1.843000
  H     -2.276000   -4.774000   -0.050000
  H      3.714000   -3.724000    1.926000
  H      5.092000   -5.795000    1.871000
  H      6.205000   -7.329000   -0.439000
  H      5.393000   -7.917000    1.042000
  H      4.759000   -8.373000   -0.564000
  H      0.329000   -5.290000   -0.008000
  H      2.146000   -4.842000   -1.940000
  H      5.808000    4.986000   -1.956000
  H      4.788000   -2.281000   -0.185000
  H      4.860000    2.114000    1.912000
  H      6.901000    3.531000    1.772000
  H      7.383000    6.109000    0.356000
  H      8.414000    4.652000    0.435000
  H      7.921000    5.310000   -1.150000
  H      5.283000    0.336000   -0.179000
  H      3.720000    3.632000   -1.967000

----------------------------
CARTESIAN COORDINATES (A.U.)
----------------------------
  NO LB      ZA    FRAG     MASS         X           Y           Z
   0 C     6.0000    0    12.011   -5.979093   12.128262   -0.924076
   1 C     6.0000    0    12.011    2.785456    7.636383    0.107714
   2 C     6.0000    0    12.011   -5.295013    7.734649    0.092597
   3 C     6.0000    0    12.011   -7.674178    7.734649    1.264227
   4 C     6.0000    0    12.011   -9.117929    9.907834    1.298242
   5 C     6.0000    0    12.011   -9.885157   14.343021    0.226767
   6 C     6.0000    0    12.011    0.249444    8.139050    0.115273
   7 C     6.0000    0    12.011   -1.075254    5.775003    0.088817
   8 C     6.0000    0    12.011    3.116158    4.947303    0.043464
   9 C     6.0000    0    12.011   -4.471092    9.998541   -1.016673
  10 N     7.0000    0    14.007   -8.261883   12.064012    0.221098
  11 N     7.0000    0    14.007    0.733214    3.906064    0.047243
  12 N     7.0000    0    14.007   -3.798350    0.746442   -0.141729
  13 N     7.0000    0    14.007   -0.733214   -3.919292   -0.051023
  14 N     7.0000    0    14.007    3.798350   -0.757780    0.122832
  15 C     6.0000    0    12.011   -3.703863    5.406506    0.045353
  16 C     6.0000    0    12.011   -4.956752    3.051908   -0.034015
  17 C     6.0000    0    12.011  -10.531444   -8.180624    2.014448
  18 C     6.0000    0    12.011   -7.696855    2.779787    0.105825
  19 C     6.0000    0    12.011   -7.759216   -5.208085   -0.049133
  20 C     6.0000    0    12.011   -9.439182   -5.209975   -2.099486
  21 C     6.0000    0    12.011  -11.587801   -6.693410   -2.033345
  22 C     6.0000    0    12.011  -14.458295   -9.662170    0.075589
  23 C     6.0000    0    12.011   -8.171176    0.266451    0.069920
  24 C     6.0000    0    12.011   -5.716422   -0.982658   -0.090707
  25 C     6.0000    0    12.011   -8.356369   -6.738763    2.031456
  26 N     7.0000    0    14.007  -12.107475   -8.150389    0.001890
  27 C     6.0000    0    12.011   -5.417845   -3.632054   -0.075589
  28 C     6.0000    0    12.011   -3.118048   -4.958641   -0.051023
  29 C     6.0000    0    12.011    6.742543  -11.606698   -1.965315
  30 C     6.0000    0    12.011   -2.789236   -7.651501   -0.064251
  31 C     6.0000    0    12.011    5.296902   -7.745987   -0.015118
  32 C     6.0000    0    12.011    6.910728   -8.284559    2.020117
  33 C     6.0000    0    12.011    8.365818  -10.450186    2.001220
  34 C     6.0000    0    12.011    9.911614  -14.339242    0.026456
  35 C     6.0000    0    12.011   -0.253223   -8.154168   -0.041574
  36 C     6.0000    0    12.011    1.073364   -5.790121   -0.051023
  37 C     6.0000    0    12.011    5.243990   -9.471307   -2.029566
  38 N     7.0000    0    14.007    8.269442  -12.077240    0.032125
  39 C     6.0000    0    12.011    3.701973   -5.421624   -0.017008
  40 C     6.0000    0    12.011    4.952972   -3.065136    0.017008
  41 C     6.0000    0    12.011   10.474752    8.199522   -2.135391
  42 C     6.0000    0    12.011    7.691185   -2.794905   -0.177634
  43 C     6.0000    0    12.011    7.755436    5.198637   -0.039684
  44 C     6.0000    0    12.011    9.499653    5.157063    1.957756
  45 C     6.0000    0    12.011   11.652051    6.631049    1.848152
  46 C     6.0000    0    12.011   14.397823    9.737759   -0.217319
  47 C     6.0000    0    12.011    8.165507   -0.279679   -0.173855
  48 C     6.0000    0    12.011    5.716422    0.971319    0.028346
  49 C     6.0000    0    12.011    8.290229    6.768999   -2.107045
  50 C     6.0000    0    12.011    5.415955    3.620715    0.024566
  51 N     7.0000    0    14.007   12.118814    8.118263   -0.179524
  52 H     1.0000    0     1.008   -5.410286   13.919723   -1.732879
  53 H     1.0000    0     1.008    4.297237    9.006435    0.153068
  54 H     1.0000    0     1.008   -8.422509    6.041454    2.137280
  55 H     1.0000    0     1.008  -10.969860    9.996651    2.163736
  56 H     1.0000    0     1.008  -11.155053   14.267432   -1.398397
  57 H     1.0000    0     1.008  -10.971750   14.377036    1.976654
  58 H     1.0000    0     1.008   -8.685181   16.011650    0.109604
  59 H     1.0000    0     1.008   -0.627389    9.981533    0.130391
  60 H     1.0000    0     1.008   -2.639947   10.127042   -1.925631
  61 H     1.0000    0     1.008    0.343930    2.025786    0.009449
  62 H     1.0000    0     1.008   -0.345820   -2.040904   -0.039684
  63 H     1.0000    0     1.008  -11.081354   -9.376821    3.581031
  64 H     1.0000    0     1.008   -9.059347    4.293458    0.262672
  65 H     1.0000    0     1.008   -9.070685   -4.081808   -3.768114
  66 H     1.0000    0     1.008  -12.927616   -6.768999   -3.577252
  67 H     1.0000    0     1.008  -15.926612   -8.571798    1.031790
  68 H     1.0000    0     1.008  -15.034661  -10.085468   -1.853821
  69 H     1.0000    0     1.008  -14.089798  -11.408277    1.103600
  70 H     1.0000    0     1.008   -9.990982   -0.650066    0.188973
  71 H     1.0000    0     1.008   -7.143165   -6.804904    3.679297
  72 H     1.0000    0     1.008    6.778448  -12.978639   -3.482765
  73 H     1.0000    0     1.008   -4.301017   -9.021553   -0.094486
  74 H     1.0000    0     1.008    7.018443   -7.037340    3.639613
  75 H     1.0000    0     1.008    9.622485  -10.950963    3.535678
  76 H     1.0000    0     1.008   11.725751  -13.849803   -0.829590
  77 H     1.0000    0     1.008   10.191293  -14.960962    1.969095
  78 H     1.0000    0     1.008    8.993207  -15.822677   -1.065806
  79 H     1.0000    0     1.008    0.621720   -9.996651   -0.015118
  80 H     1.0000    0     1.008    4.055352   -9.150054   -3.666069
  81 H     1.0000    0     1.008   10.975529    9.422175   -3.696304
  82 H     1.0000    0     1.008    9.048009   -4.310465   -0.349599
  83 H     1.0000    0     1.008    9.184069    3.994881    3.613156
  84 H     1.0000    0     1.008   13.041000    6.672623    3.348595
  85 H     1.0000    0     1.008   13.951848   11.544337    0.672743
  86 H     1.0000    0     1.008   15.900156    8.791006    0.822031
  87 H     1.0000    0     1.008   14.968521   10.034446   -2.173185
  88 H     1.0000    0     1.008    9.983423    0.634948   -0.338261
  89 H     1.0000    0     1.008    7.029781    6.863485   -3.717091

--------------------------------
INTERNAL COORDINATES (ANGSTROEM)
--------------------------------
 C      0   0   0     0.000000000000     0.00000000     0.00000000
 C      1   0   0     5.240161161644     0.00000000     0.00000000
 C      1   2   0     2.413734243864    53.63682391     0.00000000
 C      3   1   2     1.403381986488    87.93264232   154.54153316
 C      4   3   1     1.380767902292   120.14225783     0.16396647
 C      5   4   3     2.448414589076   152.51164941     1.56952037
 C      2   1   3     1.368114030335    17.04332097   351.00914036
 C      7   2   1     1.434084376876   108.05010202   157.94710194
 C      2   1   3     1.434123425651   123.75390314    17.26859067
 C      1   2   3     1.381786524757    28.66664776   332.97136717
 N      1   2   3     1.351908280913   137.11802626    39.21259177
 N      9   2   1     1.376127174356   106.58526707   351.39091763
 N     12   9   2     2.925062050624   168.53581413   171.12065651
 N     13  12   9     2.954513327098    91.55032014    11.12112580
 N     14  13  12     2.925371258490    88.43092389   359.84326247
 C      8   7   2     1.404790019896   127.24786865   181.11170171
 C     13  12   9     1.366535034311    81.72106996   188.00453233
 C     14  13  12     5.758810554272    80.56209567   166.76250791
 C     17  13  12     1.459010623676   111.08861209   183.82872609
 C     18  14  13     2.412235892279    27.27532823    36.33507194
 C     20  18  14     1.402692767501    87.95206320   148.94598259
 C     21  20  18     1.382106725257   120.14573887   359.70382047
 C     18  14  13     2.446510985056   144.15733107    82.80075377
 C     19  17  13     1.353610726908   106.29293361   359.75308708
 C     13  12   9     1.366813447402   172.21332906    33.46711076
 C     18  14  13     1.380960173213    15.08449437   309.23336894
 N     22  21  20     1.352773077792   120.73759875     0.27865223
 C     25  13  17     1.410897586645   125.60330303   182.37774668
 C     14  13  12     1.376642291955    80.24689249   177.85461986
 C     14  13  12     5.764089607215   164.51507311   312.20821879
 C     29  14  13     1.435600919476   106.58649366   178.76395472
 C     30  14  13     2.413316804732    27.10625047    82.12560436
 C     32  30  14     1.403734305344    87.90059683   149.76154742
 C     33  32  30     1.380694028378   120.14881443   359.74174632
 C     34  33  32     2.448777858443   152.49203239     2.45173620
 C     31  29  14     1.368160809262   108.16950133     0.70383075
 C     14  13  12     1.376239804685   169.26375223   353.09862627
 C     30  14  13     1.380907310430    14.68948582   353.70041132
 N     34  33  32     1.352658863128   120.85575621     0.19603406
 C     37  14  29     1.404717053360   126.01551127   180.90772073
 C     15  14  13     1.366491126938    81.61824056   183.09049352
 C      2   1   3     4.249062720177   141.87438910   155.55843190
 C     41  15  14     1.459677704153   111.05201287   175.08990246
 C     42   2   1     2.412953791518    41.78584867   189.99817638
 C     44  42   2     1.403446472082    87.95153797   233.97558675
 C     45  44  42     1.381696421071   120.11137308     0.19721020
 C     42   2   1     2.450019795838   135.97209175   100.31302549
 C     43  41  15     1.354461516618   106.26758155     0.30894352
 C     15  14  13     1.367461151185   171.87382904   332.35056460
 C     42   2   1     1.381886391857    32.59078432   238.85345558
 C      9   2   1     1.404988612053   126.98745415   172.39525516
 N     42   2   1     1.352765315936   113.57249190   128.04961468
 H      1   2   3     1.082815312045   101.08612870   191.00488446
 H      2   1   3     1.079907866440   110.69895331   190.70580591
 H      4   3   1     1.083086330816   121.09479158   179.51683161
 H      5   4   3     1.082761746646   122.85185939   179.45769148
 H      6   5   4     1.092146510318   104.43469882   100.12135750
 H      6   5   4     1.090149072375    84.63971477   209.60824238
 H      6   5   4     1.089384229737   133.90772476   322.37851057
 H      7   2   1     1.079807853278   126.66122480   338.18551573
 H     10   1   2     1.083949260805   118.74024967   314.46539829
 H     12   9   2     1.016297692608   125.29023241   180.00180175
 H     14  13  12     1.014936943854    44.97226959   359.42596618
 H     18  14  13     1.082871645210   128.03556573   234.20482432
 H     19  17  13     1.080893611786   126.41830519   178.11313280
 H     21  20  18     1.083569563987   121.05669627   180.67006309
 H     22  21  20     1.082483256222   122.73097286   180.59748951
 H     23  18  14     1.092105306278   103.92715769   234.93429879
 H     23  18  14     1.088871893291   134.19244188    12.25587044
 H     23  18  14     1.089833473518    84.85857450   125.45241208
 H     24  19  17     1.080075460327   127.28078426   178.44613241
 H     26  18  14     1.083408048706   118.76995697   244.94906660
 H     30  14  13     1.082703098730   127.99711412   279.66882698
 H     31  29  14     1.079759695488   125.22293469   180.92530585
 H     33  32  30     1.083188810873   121.01964473   180.74284758
 H     34  33  32     1.082494341787   122.70821597   180.59516895
 H     35  34  33     1.092652735319   105.73575241    97.19771933
 H     35  34  33     1.089462711615    84.05943581   206.43036958
 H     35  34  33     1.089268102902   133.08365142   318.50306270
 H     36  31  29     1.079439669458   126.61599965   178.98859863
 H     38  30  73     1.083742127999   118.77264435   359.90091293
 H     42   2   1     1.082178358682   119.31790784   344.68114513
 H     43  41  15     1.080281907652   126.36969097   182.06329380
 H     45  44  42     1.083277434455   121.10105945   179.58025624
 H     46  45  44     1.082194529648   122.72144639   179.46906377
 H     47  42   2     1.091546151109   106.65128841   315.16475048
 H     47  42   2     1.088818625851   132.46019523    94.52397119
 H     47  42   2     1.089531091801    83.63838232   206.04504406
 H     48  43  41     1.080402239909   127.23657387   181.62955349
 H     50  42   2     1.083186502870   118.77001737    94.71359229

---------------------------
INTERNAL COORDINATES (A.U.)
---------------------------
 C      0   0   0     0.000000000000     0.00000000     0.00000000
 C      1   0   0     9.902469493117     0.00000000     0.00000000
 C      1   2   0     4.561296680970    53.63682391     0.00000000
 C      3   1   2     2.652007615741    87.93264232   154.54153316
 C      4   3   1     2.609273189841   120.14225783     0.16396647
 C      5   4   3     4.626833035651   152.51164941     1.56952037
 C      2   1   3     2.585360837309    17.04332097   351.00914036
 C      7   2   1     2.710026725231   108.05010202   157.94710194
 C      2   1   3     2.710100516721   123.75390314    17.26859067
 C      1   2   3     2.611198107334    28.66664776   332.97136717
 N      1   2   3     2.554736409105   137.11802626    39.21259177
 N      9   2   1     2.600503484979   106.58526707   351.39091763
 N     12   9   2     5.527566200405   168.53581413   171.12065651
 N     13  12   9     5.583221047236    91.55032014    11.12112580
 N     14  13  12     5.528150518591    88.43092389   359.84326247
 C      8   7   2     2.654668413270   127.24786865   181.11170171
 C     13  12   9     2.582376967257    81.72106996   188.00453233
 C     14  13  12    10.882574804710    80.56209567   166.76250791
 C     17  13  12     2.757130505230   111.08861209   183.82872609
 C     18  14  13     4.558465206823    27.27532823    36.33507194
 C     20  18  14     2.650705180609    87.95206320   148.94598259
 C     21  20  18     2.611803198586   120.14573887   359.70382047
 C     18  14  13     4.623235745386   144.15733107    82.80075377
 C     19  17  13     2.557953565794   106.29293361   359.75308708
 C     13  12   9     2.582903091751   172.21332906    33.46711076
 C     18  14  13     2.609636529225    15.08449437   309.23336894
 N     22  21  20     2.556370638369   120.73759875     0.27865223
 C     25  13  17     2.666210041769   125.60330303   182.37774668
 C     14  13  12     2.601476916169    80.24689249   177.85461986
 C     14  13  12    10.892550769017   164.51507311   312.20821879
 C     29  14  13     2.712892575415   106.58649366   178.76395472
 C     30  14  13     4.560507835333    27.10625047    82.12560436
 C     32  30  14     2.652673401891    87.90059683   149.76154742
 C     33  32  30     2.609133588376   120.14881443   359.74174632
 C     34  33  32     4.627519515267   152.49203239     2.45173620
 C     31  29  14     2.585449236669   108.16950133     0.70383075
 C     14  13  12     2.600716325456   169.26375223   353.09862627
 C     30  14  13     2.609536633043    14.68948582   353.70041132
 N     34  33  32     2.556154803934   120.85575621     0.19603406
 C     37  14  29     2.654530526499   126.01551127   180.90772073
 C     15  14  13     2.582293994346    81.61824056   183.09049352
 C      2   1   3     8.029564866989   141.87438910   155.55843190
 C     41  15  14     2.758391104639   111.05201287   175.08990246
 C     42   2   1     4.559821839776    41.78584867   189.99817638
 C     44  42   2     2.652129475853    87.95153797   233.97558675
 C     45  44  42     2.611027836043   120.11137308     0.19721020
 C     42   2   1     4.629866436820   135.97209175   100.31302549
 C     43  41  15     2.559561325344   106.26758155     0.30894352
 C     15  14  13     2.584127074516   171.87382904   332.35056460
 C     42   2   1     2.611386828803    32.59078432   238.85345558
 C      9   2   1     2.655043698059   126.98745415   172.39525516
 N     42   2   1     2.556355970587   113.57249190   128.04961468
 H      1   2   3     2.046224393382   101.08612870   191.00488446
 H      2   1   3     2.040730117440   110.69895331   190.70580591
 H      4   3   1     2.046736544635   121.09479158   179.51683161
 H      5   4   3     2.046123169447   122.85185939   179.45769148
 H      6   5   4     2.063857802619   104.43469882   100.12135750
 H      6   5   4     2.060083191937    84.63971477   209.60824238
 H      6   5   4     2.058637848816   133.90772476   322.37851057
 H      7   2   1     2.040541119952   126.66122480   338.18551573
 H     10   1   2     2.048367245988   118.74024967   314.46539829
 H     12   9   2     1.920524309565   125.29023241   180.00180175
 H     14  13  12     1.917952867083    44.97226959   359.42596618
 H     18  14  13     2.046330847636   128.03556573   234.20482432
 H     19  17  13     2.042592906181   126.41830519   178.11313280
 H     21  20  18     2.047649722989   121.05669627   180.67006309
 H     22  21  20     2.045596898814   122.73097286   180.59748951
 H     23  18  14     2.063779938267   103.92715769   234.93429879
 H     23  18  14     2.057669673245   134.19244188    12.25587044
 H     23  18  14     2.059486796529    84.85857450   125.45241208
 H     24  19  17     2.041046823986   127.28078426   178.44613241
 H     26  18  14     2.047344503340   118.76995697   244.94906660
 H     30  14  13     2.046012340948   127.99711412   279.66882698
 H     31  29  14     2.040450114918   125.22293469   180.92530585
 H     33  32  30     2.046930203877   121.01964473   180.74284758
 H     34  33  32     2.045617847496   122.70821597   180.59516895
 H     35  34  33     2.064814429233   105.73575241    97.19771933
 H     35  34  33     2.058786158072    84.05943581   206.43036958
 H     35  34  33     2.058418400901   133.08365142   318.50306270
 H     36  31  29     2.039845353366   126.61599965   178.98859863
 H     38  30  73     2.047975821711   118.77264435   359.90091293
 H     42   2   1     2.045020725966   119.31790784   344.68114513
 H     43  41  15     2.041436952892   126.36969097   182.06329380
 H     45  44  42     2.047097678177   121.10105945   179.58025624
 H     46  45  44     2.045051284662   122.72144639   179.46906377
 H     47  42   2     2.062723288131   106.65128841   315.16475048
 H     47  42   2     2.057569012371   132.46019523    94.52397119
 H     47  42   2     2.058915377895    83.63838232   206.04504406
 H     48  43  41     2.041664347903   127.23657387   181.62955349
 H     50  42   2     2.046925842384   118.77001737    94.71359229

---------------------
BASIS SET INFORMATION
---------------------
There are 3 groups of distinct atoms

 Group   1 Type C   : 17s4p1d contracted to 3s2p1d pattern {881/31/1}
 Group   2 Type N   : 17s4p1d contracted to 3s2p1d pattern {881/31/1}
 Group   3 Type H   : 4s1p contracted to 2s1p pattern {31/1}

Atom   0C    basis set group =>   1
Atom   1N    basis set group =>   2
Atom   2C    basis set group =>   1
Atom   3N    basis set group =>   2
Atom   4C    basis set group =>   1
Atom   5N    basis set group =>   2
Atom   6C    basis set group =>   1
Atom   7N    basis set group =>   2
Atom   8C    basis set group =>   1
Atom   9N    basis set group =>   2
Atom  10C    basis set group =>   1
Atom  11N    basis set group =>   2
Atom  12C    basis set group =>   1
Atom  13N    basis set group =>   2
Atom  14C    basis set group =>   1
Atom  15N    basis set group =>   2
Atom  16C    basis set group =>   1
Atom  17C    basis set group =>   1
Atom  18C    basis set group =>   1
Atom  19C    basis set group =>   1
Atom  20C    basis set group =>   1
Atom  21C    basis set group =>   1
Atom  22C    basis set group =>   1
Atom  23C    basis set group =>   1
Atom  24C    basis set group =>   1
Atom  25C    basis set group =>   1
Atom  26C    basis set group =>   1
Atom  27C    basis set group =>   1
Atom  28C    basis set group =>   1
Atom  29C    basis set group =>   1
Atom  30C    basis set group =>   1
Atom  31C    basis set group =>   1
Atom  32C    basis set group =>   1
Atom  33C    basis set group =>   1
Atom  34C    basis set group =>   1
Atom  35C    basis set group =>   1
Atom  36C    basis set group =>   1
Atom  37C    basis set group =>   1
Atom  38C    basis set group =>   1
Atom  39C    basis set group =>   1
Atom  40C    basis set group =>   1
Atom  41C    basis set group =>   1
Atom  42C    basis set group =>   1
Atom  43C    basis set group =>   1
Atom  44C    basis set group =>   1
Atom  45C    basis set group =>   1
Atom  46C    basis set group =>   1
Atom  47C    basis set group =>   1
Atom  48C    basis set group =>   1
Atom  49C    basis set group =>   1
Atom  50C    basis set group =>   1
Atom  51C    basis set group =>   1
Atom  52H    basis set group =>   3
Atom  53H    basis set group =>   3
Atom  54H    basis set group =>   3
Atom  55H    basis set group =>   3
Atom  56H    basis set group =>   3
Atom  57H    basis set group =>   3
Atom  58H    basis set group =>   3
Atom  59H    basis set group =>   3
Atom  60H    basis set group =>   3
Atom  61H    basis set group =>   3
Atom  62H    basis set group =>   3
Atom  63H    basis set group =>   3
Atom  64H    basis set group =>   3
Atom  65H    basis set group =>   3
Atom  66H    basis set group =>   3
Atom  67H    basis set group =>   3
Atom  68H    basis set group =>   3
Atom  69H    basis set group =>   3
Atom  70H    basis set group =>   3
Atom  71H    basis set group =>   3
Atom  72H    basis set group =>   3
Atom  73H    basis set group =>   3
Atom  74H    basis set group =>   3
Atom  75H    basis set group =>   3
Atom  76H    basis set group =>   3
Atom  77H    basis set group =>   3
Atom  78H    basis set group =>   3
Atom  79H    basis set group =>   3
Atom  80H    basis set group =>   3
Atom  81H    basis set group =>   3
Atom  82H    basis set group =>   3
Atom  83H    basis set group =>   3
Atom  84H    basis set group =>   3
Atom  85H    basis set group =>   3
Atom  86H    basis set group =>   3
Atom  87H    basis set group =>   3
Atom  88H    basis set group =>   3
Atom  89H    basis set group =>   3


           ************************************************************
           *        Program running with 16 parallel MPI-processes    *
           *              working on a common directory               *
           ************************************************************
------------------------------------------------------------------------------
                           ORCA GTO INTEGRAL CALCULATION
------------------------------------------------------------------------------
------------------------------------------------------------------------------
                   ___                                                        
                  /   \      - P O W E R E D   B Y -                         
                 /     \                                                     
                 |  |  |   _    _      __       _____    __    __             
                 |  |  |  | |  | |    /  \     |  _  \  |  |  /  |          
                  \  \/   | |  | |   /    \    | | | |  |  | /  /          
                 / \  \   | |__| |  /  /\  \   | |_| |  |  |/  /          
                |  |  |   |  __  | /  /__\  \  |    /   |      \           
                |  |  |   | |  | | |   __   |  |    \   |  |\   \          
                \     /   | |  | | |  |  |  |  | |\  \  |  | \   \       
                 \___/    |_|  |_| |__|  |__|  |_| \__\ |__|  \__/        
                                                                              
                      - O R C A' S   B I G   F R I E N D -                    
                                      &                                       
                       - I N T E G R A L  F E E D E R -                       
                                                                              
 v1 FN, 2020, v2 2021                                                         
------------------------------------------------------------------------------


Reading SHARK input file /scratch/allen/tmpyp4_amber_gaff2/conf1/conf1/Conf32.orca.SHARKINP.tmp ... ok
----------------------
SHARK INTEGRAL PACKAGE
----------------------

Number of atoms                             ...     90
Number of basis functions                   ...   1230
Number of shells                            ...    738
Maximum angular momentum                    ...      2
Integral batch strategy                     ... SHARK/LIBINT Hybrid
RI-J (if used) integral strategy            ... SPLIT-RIJ (Revised 2003 algorithm where possible)
Printlevel                                  ...      1
Contraction scheme used                     ... PARTIAL GENERAL contraction
Coulomb Range Separation                    ... NOT USED
Exchange Range Separation                   ... NOT USED
Finite Nucleus Model                        ... NOT USED
Auxiliary Coulomb fitting basis             ... NOT available
Auxiliary J/K fitting basis                 ... NOT available
Auxiliary Correlation fitting basis         ... NOT available
Auxiliary 'external' fitting basis          ... NOT available
Integral threshold                          ...     2.500000e-11
Primitive cut-off                           ...     2.500000e-12
Primitive pair pre-selection threshold      ...     2.500000e-12

Calculating pre-screening integrals         ... done (  0.1 sec) Dimension = 738
Calculating pre-screening integrals (ORCA)  ... done (  0.3 sec) Dimension = 426
Organizing shell pair data                  ... done (  0.5 sec)
Shell pair information
Total number of shell pairs                 ...    272691
Shell pairs after pre-screening             ...     71671
Total number of primitive shell pairs       ...    422091
Primitive shell pairs kept                  ...     92529
          la=0 lb=0:  29425 shell pairs
          la=1 lb=0:  26007 shell pairs
          la=1 lb=1:   4704 shell pairs
          la=2 lb=0:   7884 shell pairs
          la=2 lb=1:   3122 shell pairs
          la=2 lb=2:    529 shell pairs

Calculating one electron integrals          ... done (  0.2 sec)
Calculating Nuclear repulsion               ... done (  0.0 sec) ENN=   6231.443256236706 Eh

SHARK setup successfully completed in   1.7 seconds

Maximum memory used throughout the entire GTOINT-calculation: 99.0 MB


           ************************************************************
           *        Program running with 16 parallel MPI-processes    *
           *              working on a common directory               *
           ************************************************************
-------------------------------------------------------------------------------
                                 ORCA SCF
-------------------------------------------------------------------------------

------------
SCF SETTINGS
------------
Hamiltonian:
 Ab initio Hamiltonian  Method          .... Hartree-Fock(GTOs)


General Settings:
 Integral files         IntName         .... /scratch/allen/tmpyp4_amber_gaff2/conf1/conf1/Conf32.orca
 Hartree-Fock type      HFTyp           .... RHF
 Total Charge           Charge          ....    0
 Multiplicity           Mult            ....    1
 Number of Electrons    NEL             ....  358
 Basis Dimension        Dim             ....  918
 Nuclear Repulsion      ENuc            ....   6231.4432562367 Eh

Convergence Acceleration:
 DIIS                   CNVDIIS         .... on
   Start iteration      DIISMaxIt       ....    12
   Startup error        DIISStart       ....  0.200000
   # of expansion vecs  DIISMaxEq       ....     5
   Bias factor          DIISBfac        ....   1.050
   Max. coefficient     DIISMaxC        ....  10.000
 Trust-Rad. Augm. Hess. CNVTRAH         .... auto
   Auto Start mean grad. ratio tolernc. ....  1.125000
   Auto Start start iteration           ....    20
   Auto Start num. interpolation iter.  ....    10
   Max. Number of Micro iterations      ....    16
   Max. Number of Macro iterations      .... Maxiter - #DIIS iter
   Number of Davidson start vectors     ....     2
   Converg. threshold I  (grad. norm)   ....   1.000e-05
   Converg. threshold II (energy diff.) ....   1.000e-08
   Grad. Scal. Fac. for Micro threshold ....   0.100
   Minimum threshold for Micro iter.    ....   0.010
   NR start threshold (gradient norm)   ....   0.001
   Initial trust radius                 ....   0.400
   Minimum AH scaling param. (alpha)    ....   1.000
   Maximum AH scaling param. (alpha)    .... 1000.000
   Orbital update algorithm             .... Taylor
   White noise on init. David. guess    .... on
   Maximum white noise                  ....   0.010
   Quad. conv. algorithm                .... NR
 SOSCF                  CNVSOSCF        .... on
   Start iteration      SOSCFMaxIt      ....   150
   Startup grad/error   SOSCFStart      ....  0.003300
 Level Shifting         CNVShift        .... on
   Level shift para.    LevelShift      ....    0.2500
   Turn off err/grad.   ShiftErr        ....    0.0010
 Zerner damping         CNVZerner       .... off
 Static damping         CNVDamp         .... on
   Fraction old density DampFac         ....    0.7000
   Max. Damping (<1)    DampMax         ....    0.9800
   Min. Damping (>=0)   DampMin         ....    0.0000
   Turn off err/grad.   DampErr         ....    0.1000
 Fernandez-Rico         CNVRico         .... off

SCF Procedure:
 Maximum # iterations   MaxIter         ....   125
 SCF integral mode      SCFMode         .... Direct
   Integral package                     .... SHARK and LIBINT hybrid scheme
 Reset frequency        DirectResetFreq ....    20
 Integral Threshold     Thresh          ....  2.500e-11 Eh
 Primitive CutOff       TCut            ....  2.500e-12 Eh

Convergence Tolerance:
 Convergence Check Mode ConvCheckMode   .... Total+1el-Energy
 Convergence forced     ConvForced      .... 1
 Energy Change          TolE            ....  1.000e-08 Eh
 1-El. energy change                    ....  1.000e-05 Eh
 Orbital Gradient       TolG            ....  1.000e-05
 Orbital Rotation angle TolX            ....  1.000e-05
 DIIS Error             TolErr          ....  5.000e-07


Diagonalization of the overlap matrix:
Smallest eigenvalue                        ... 2.183e-04
Time for diagonalization                   ...    0.368 sec
Threshold for overlap eigenvalues          ... 1.000e-08
Number of eigenvalues below threshold      ... 0
Time for construction of square roots      ...    0.193 sec
Total time needed                          ...    0.567 sec

Time for model grid setup =    1.023 sec

------------------------------
INITIAL GUESS: MODEL POTENTIAL
------------------------------
Loading Hartree-Fock densities                     ... done
Calculating cut-offs                               ... done
Initializing the effective Hamiltonian             ... done
Setting up the integral package (SHARK)            ... done
Starting the Coulomb interaction                   ... done (   1.1 sec)
Reading the grid                                   ... done
Mapping shells                                     ... done
Starting the XC term evaluation                    ... done (   0.2 sec)
Transforming the Hamiltonian                       ... done (   0.2 sec)
Diagonalizing the Hamiltonian                      ... done (   0.3 sec)
Back transforming the eigenvectors                 ... done (   0.1 sec)
Now organizing SCF variables                       ... done
                      ------------------
                      INITIAL GUESS DONE (   3.0 sec)
                      ------------------
--------------
SCF ITERATIONS
--------------
ITER       Energy         Delta-E        Max-DP      RMS-DP      [F,P]     Damp
               ***  Starting incremental Fock matrix formation  ***
  0  -2121.6791240261   0.000000000000 0.07254564  0.00122179  0.2320426 0.7000
  1  -2122.3325003006  -0.653376274509 0.05484225  0.00099409  0.1437716 0.7000
                               ***Turning on DIIS***
  2  -2122.7388604391  -0.406360138430 0.12837170  0.00225491  0.0802442 0.0000
  3  -2117.9345837277   4.804276711388 0.04053498  0.00067812  0.0438381 0.0000
  4  -2123.4155155372  -5.480931809567 0.01234857  0.00022638  0.0082594 0.0000
  5  -2123.5715964105  -0.156080873256 0.00598754  0.00013284  0.0049450 0.0000
  6  -2123.5555845381   0.016011872356 0.00371690  0.00008534  0.0020310 0.0000
  7  -2123.6527314300  -0.097146891887 0.00303067  0.00006723  0.0015733 0.0000
  8  -2123.6636034970  -0.010872066969 0.00320637  0.00006359  0.0014680 0.0000
  9  -2123.6334269637   0.030176533252 0.00256095  0.00004445  0.0011747 0.0000
 10  -2123.6428595239  -0.009432560157 0.00513964  0.00009215  0.0009098 0.0000
                      *** Initiating the SOSCF procedure ***
                           *** Shutting down DIIS ***
                      *** Re-Reading the Fockian *** 
                      *** Removing any level shift *** 
ITER      Energy       Delta-E        Grad      Rot      Max-DP    RMS-DP
 11  -2123.53343663   0.1094228947  0.000191  0.000191  0.000239  0.000005
               *** Restarting incremental Fock matrix formation ***
 12  -2123.59985843  -0.0664217998  0.000877  0.005885  0.001344  0.000034
 13  -2123.59996050  -0.0001020726  0.001082  0.029672  0.006270  0.000132
 14  -2123.60013639  -0.0001758889  0.000345  0.001979  0.000658  0.000012
 15  -2123.60015222  -0.0000158260  0.000181  0.002784  0.000732  0.000018
 16  -2123.60016185  -0.0000096301  0.000158  0.002878  0.000462  0.000010
 17  -2123.60016508  -0.0000032363  0.000145  0.001963  0.000337  0.000007
 18  -2123.60016687  -0.0000017905  0.000073  0.000970  0.000297  0.000005
 19  -2123.60016773  -0.0000008592  0.000046  0.000910  0.000187  0.000004
 20  -2123.60016807  -0.0000003345  0.000027  0.000625  0.000104  0.000003
 21  -2123.60016826  -0.0000001890  0.000025  0.000759  0.000138  0.000003
 22  -2123.60016841  -0.0000001513  0.000021  0.000673  0.000117  0.000002
 23  -2123.60016850  -0.0000000892  0.000013  0.000447  0.000078  0.000001
 24  -2123.60016854  -0.0000000477  0.000009  0.000328  0.000049  0.000001
 25  -2123.60016857  -0.0000000305  0.000009  0.000200  0.000036  0.000001
 26  -2123.60016859  -0.0000000158  0.000007  0.000171  0.000032  0.000001
 27  -2123.60016860  -0.0000000080  0.000004  0.000124  0.000024  0.000001
                  ***Gradient check signals convergence***
              ***Rediagonalizing the Fockian in SOSCF/NRSCF***

               *****************************************************
               *                     SUCCESS                       *
               *           SCF CONVERGED AFTER  28 CYCLES          *
               *****************************************************


----------------
TOTAL SCF ENERGY
----------------

Total Energy       :        -2123.60016860 Eh          -57786.09838 eV

Components:
Nuclear Repulsion  :         6231.44325624 Eh          169566.19158 eV
Electronic Energy  :        -8355.04342484 Eh         -227352.28996 eV
One Electron Energy:       -15303.64875363 Eh         -416433.45365 eV
Two Electron Energy:         6948.60532879 Eh          189081.16370 eV

Virial components:
Potential Energy   :        -4245.80349472 Eh         -115534.18674 eV
Kinetic Energy     :         2122.20332612 Eh           57748.08836 eV
Virial Ratio       :            2.00065820


---------------
SCF CONVERGENCE
---------------

  Last Energy change         ...   -3.3833e-10  Tolerance :   1.0000e-08
  Last MAX-Density change    ...    1.2876e-05  Tolerance :   1.0000e-07
  Last RMS-Density change    ...    2.7098e-07  Tolerance :   5.0000e-09
  Last Orbital Gradient      ...    2.3702e-06  Tolerance :   1.0000e-05
  Last Orbital Rotation      ...    6.9849e-05  Tolerance :   1.0000e-05

             **** THE GBW FILE WAS UPDATED (/scratch/allen/tmpyp4_amber_gaff2/conf1/conf1/Conf32.orca.gbw) ****
             **** DENSITY /scratch/allen/tmpyp4_amber_gaff2/conf1/conf1/Conf32.orca.scfp WAS UPDATED ****
             **** ENERGY FILE WAS UPDATED (/scratch/allen/tmpyp4_amber_gaff2/conf1/conf1/Conf32.orca.en.tmp) ****
             **** THE GBW FILE WAS UPDATED (/scratch/allen/tmpyp4_amber_gaff2/conf1/conf1/Conf32.orca.gbw) ****
             **** DENSITY /scratch/allen/tmpyp4_amber_gaff2/conf1/conf1/Conf32.orca.scfp WAS UPDATED ****
----------------
ORBITAL ENERGIES
----------------

  NO   OCC          E(Eh)            E(eV) 
   0   2.0000     -15.672454      -426.4691 
   1   2.0000     -15.634520      -425.4369 
   2   2.0000     -15.631070      -425.3430 
   3   2.0000     -15.592319      -424.2886 
   4   2.0000     -15.524424      -422.4411 
   5   2.0000     -15.516230      -422.2181 
   6   2.0000     -15.452351      -420.4798 
   7   2.0000     -15.441365      -420.1809 
   8   2.0000     -11.323463      -308.1271 
   9   2.0000     -11.323403      -308.1255 
  10   2.0000     -11.322059      -308.0889 
  11   2.0000     -11.299668      -307.4796 
  12   2.0000     -11.297845      -307.4300 
  13   2.0000     -11.293089      -307.3006 
  14   2.0000     -11.290105      -307.2194 
  15   2.0000     -11.287425      -307.1465 
  16   2.0000     -11.286276      -307.1152 
  17   2.0000     -11.275171      -306.8130 
  18   2.0000     -11.273934      -306.7793 
  19   2.0000     -11.258242      -306.3523 
  20   2.0000     -11.257491      -306.3319 
  21   2.0000     -11.257283      -306.3262 
  22   2.0000     -11.255289      -306.2720 
  23   2.0000     -11.238179      -305.8064 
  24   2.0000     -11.235827      -305.7424 
  25   2.0000     -11.231596      -305.6273 
  26   2.0000     -11.230788      -305.6053 
  27   2.0000     -11.229165      -305.5611 
  28   2.0000     -11.229069      -305.5585 
  29   2.0000     -11.209371      -305.0225 
  30   2.0000     -11.208161      -304.9896 
  31   2.0000     -11.201060      -304.7963 
  32   2.0000     -11.193988      -304.6039 
  33   2.0000     -11.191589      -304.5386 
  34   2.0000     -11.190494      -304.5088 
  35   2.0000     -11.189412      -304.4794 
  36   2.0000     -11.188315      -304.4495 
  37   2.0000     -11.185600      -304.3756 
  38   2.0000     -11.184483      -304.3453 
  39   2.0000     -11.172410      -304.0167 
  40   2.0000     -11.172059      -304.0072 
  41   2.0000     -11.170266      -303.9584 
  42   2.0000     -11.166888      -303.8665 
  43   2.0000     -11.161467      -303.7190 
  44   2.0000     -11.159231      -303.6581 
  45   2.0000     -11.158749      -303.6450 
  46   2.0000     -11.157797      -303.6191 
  47   2.0000     -11.154173      -303.5205 
  48   2.0000     -11.148472      -303.3653 
  49   2.0000     -11.140342      -303.1441 
  50   2.0000     -11.132560      -302.9324 
  51   2.0000     -11.123087      -302.6746 
  52   2.0000      -1.354147       -36.8482 
  53   2.0000      -1.321696       -35.9652 
  54   2.0000      -1.318936       -35.8901 
  55   2.0000      -1.285894       -34.9910 
  56   2.0000      -1.224920       -33.3318 
  57   2.0000      -1.210742       -32.9460 
  58   2.0000      -1.171254       -31.8714 
  59   2.0000      -1.152236       -31.3539 
  60   2.0000      -1.138433       -30.9783 
  61   2.0000      -1.110576       -30.2203 
  62   2.0000      -1.108414       -30.1615 
  63   2.0000      -1.081572       -29.4311 
  64   2.0000      -1.076294       -29.2875 
  65   2.0000      -1.045855       -28.4592 
  66   2.0000      -1.043641       -28.3989 
  67   2.0000      -1.037643       -28.2357 
  68   2.0000      -1.014743       -27.6126 
  69   2.0000      -1.014271       -27.5997 
  70   2.0000      -1.009768       -27.4772 
  71   2.0000      -0.992490       -27.0070 
  72   2.0000      -0.987058       -26.8592 
  73   2.0000      -0.979390       -26.6506 
  74   2.0000      -0.972476       -26.4624 
  75   2.0000      -0.960750       -26.1433 
  76   2.0000      -0.952981       -25.9319 
  77   2.0000      -0.946664       -25.7600 
  78   2.0000      -0.935194       -25.4479 
  79   2.0000      -0.919580       -25.0231 
  80   2.0000      -0.905405       -24.6373 
  81   2.0000      -0.893481       -24.3129 
  82   2.0000      -0.874409       -23.7939 
  83   2.0000      -0.871698       -23.7201 
  84   2.0000      -0.868587       -23.6355 
  85   2.0000      -0.856702       -23.3121 
  86   2.0000      -0.841780       -22.9060 
  87   2.0000      -0.836226       -22.7549 
  88   2.0000      -0.823974       -22.4215 
  89   2.0000      -0.797966       -21.7138 
  90   2.0000      -0.792111       -21.5544 
  91   2.0000      -0.749616       -20.3981 
  92   2.0000      -0.741887       -20.1878 
  93   2.0000      -0.732557       -19.9339 
  94   2.0000      -0.723830       -19.6964 
  95   2.0000      -0.721632       -19.6366 
  96   2.0000      -0.715473       -19.4690 
  97   2.0000      -0.710509       -19.3339 
  98   2.0000      -0.706372       -19.2214 
  99   2.0000      -0.696283       -18.9468 
 100   2.0000      -0.696092       -18.9416 
 101   2.0000      -0.684186       -18.6176 
 102   2.0000      -0.679685       -18.4952 
 103   2.0000      -0.679132       -18.4801 
 104   2.0000      -0.678063       -18.4510 
 105   2.0000      -0.673067       -18.3151 
 106   2.0000      -0.668823       -18.1996 
 107   2.0000      -0.660958       -17.9856 
 108   2.0000      -0.655952       -17.8494 
 109   2.0000      -0.653508       -17.7828 
 110   2.0000      -0.650725       -17.7071 
 111   2.0000      -0.643221       -17.5029 
 112   2.0000      -0.641013       -17.4428 
 113   2.0000      -0.640428       -17.4269 
 114   2.0000      -0.637962       -17.3598 
 115   2.0000      -0.627431       -17.0733 
 116   2.0000      -0.625370       -17.0172 
 117   2.0000      -0.618622       -16.8335 
 118   2.0000      -0.612865       -16.6769 
 119   2.0000      -0.612161       -16.6578 
 120   2.0000      -0.610858       -16.6223 
 121   2.0000      -0.606754       -16.5106 
 122   2.0000      -0.600597       -16.3431 
 123   2.0000      -0.586677       -15.9643 
 124   2.0000      -0.582221       -15.8430 
 125   2.0000      -0.580545       -15.7974 
 126   2.0000      -0.579503       -15.7691 
 127   2.0000      -0.576102       -15.6765 
 128   2.0000      -0.566648       -15.4193 
 129   2.0000      -0.559088       -15.2136 
 130   2.0000      -0.551493       -15.0069 
 131   2.0000      -0.547716       -14.9041 
 132   2.0000      -0.542256       -14.7555 
 133   2.0000      -0.540075       -14.6962 
 134   2.0000      -0.538133       -14.6433 
 135   2.0000      -0.535579       -14.5738 
 136   2.0000      -0.527750       -14.3608 
 137   2.0000      -0.523067       -14.2334 
 138   2.0000      -0.516667       -14.0592 
 139   2.0000      -0.513761       -13.9801 
 140   2.0000      -0.512689       -13.9510 
 141   2.0000      -0.511422       -13.9165 
 142   2.0000      -0.508999       -13.8506 
 143   2.0000      -0.503806       -13.7093 
 144   2.0000      -0.501634       -13.6501 
 145   2.0000      -0.497183       -13.5290 
 146   2.0000      -0.493186       -13.4203 
 147   2.0000      -0.484135       -13.1740 
 148   2.0000      -0.480344       -13.0708 
 149   2.0000      -0.466835       -12.7032 
 150   2.0000      -0.465859       -12.6767 
 151   2.0000      -0.457163       -12.4400 
 152   2.0000      -0.450340       -12.2544 
 153   2.0000      -0.445344       -12.1184 
 154   2.0000      -0.441835       -12.0229 
 155   2.0000      -0.433354       -11.7922 
 156   2.0000      -0.429045       -11.6749 
 157   2.0000      -0.416471       -11.3327 
 158   2.0000      -0.404132       -10.9970 
 159   2.0000      -0.388251       -10.5649 
 160   2.0000      -0.382869       -10.4184 
 161   2.0000      -0.378344       -10.2953 
 162   2.0000      -0.370080       -10.0704 
 163   2.0000      -0.356991        -9.7142 
 164   2.0000      -0.355312        -9.6685 
 165   2.0000      -0.340267        -9.2591 
 166   2.0000      -0.337418        -9.1816 
 167   2.0000      -0.326417        -8.8823 
 168   2.0000      -0.325413        -8.8549 
 169   2.0000      -0.303719        -8.2646 
 170   2.0000      -0.299748        -8.1566 
 171   2.0000      -0.286117        -7.7856 
 172   2.0000      -0.282218        -7.6795 
 173   2.0000      -0.262524        -7.1436 
 174   2.0000      -0.243060        -6.6140 
 175   2.0000      -0.189800        -5.1647 
 176   2.0000      -0.180174        -4.9028 
 177   2.0000      -0.075329        -2.0498 
 178   2.0000      -0.058257        -1.5853 
 179   0.0000       0.028588         0.7779 
 180   0.0000       0.066565         1.8113 
 181   0.0000       0.091345         2.4856 
 182   0.0000       0.109501         2.9797 
 183   0.0000       0.111052         3.0219 
 184   0.0000       0.136747         3.7211 
 185   0.0000       0.139776         3.8035 
 186   0.0000       0.144750         3.9389 
 187   0.0000       0.163204         4.4410 
 188   0.0000       0.164809         4.4847 
 189   0.0000       0.166101         4.5198 
 190   0.0000       0.168574         4.5871 
 191   0.0000       0.184229         5.0131 
 192   0.0000       0.186110         5.0643 
 193   0.0000       0.187631         5.1057 
 194   0.0000       0.204623         5.5681 
 195   0.0000       0.206018         5.6060 
 196   0.0000       0.207940         5.6583 
 197   0.0000       0.209044         5.6884 
 198   0.0000       0.220100         5.9892 
 199   0.0000       0.226095         6.1524 
 200   0.0000       0.230408         6.2697 
 201   0.0000       0.237187         6.4542 
 202   0.0000       0.239138         6.5073 
 203   0.0000       0.240171         6.5354 
 204   0.0000       0.248649         6.7661 
 205   0.0000       0.256578         6.9819 
 206   0.0000       0.256716         6.9856 
 207   0.0000       0.257963         7.0195 
 208   0.0000       0.258626         7.0376 
 209   0.0000       0.262333         7.1385 
 210   0.0000       0.262774         7.1504 
 211   0.0000       0.268702         7.3118 
 212   0.0000       0.270938         7.3726 
 213   0.0000       0.272521         7.4157 
 214   0.0000       0.273035         7.4296 
 215   0.0000       0.275853         7.5063 
 216   0.0000       0.278270         7.5721 
 217   0.0000       0.282202         7.6791 
 218   0.0000       0.285982         7.7820 
 219   0.0000       0.288107         7.8398 
 220   0.0000       0.289963         7.8903 
 221   0.0000       0.292453         7.9581 
 222   0.0000       0.295192         8.0326 
 223   0.0000       0.296332         8.0636 
 224   0.0000       0.297450         8.0940 
 225   0.0000       0.298556         8.1241 
 226   0.0000       0.306062         8.3284 
 227   0.0000       0.308030         8.3819 
 228   0.0000       0.309875         8.4321 
 229   0.0000       0.324679         8.8350 
 230   0.0000       0.326340         8.8802 
 231   0.0000       0.329722         8.9722 
 232   0.0000       0.335144         9.1197 
 233   0.0000       0.339552         9.2397 
 234   0.0000       0.352306         9.5867 
 235   0.0000       0.354543         9.6476 
 236   0.0000       0.372332        10.1317 
 237   0.0000       0.378699        10.3049 
 238   0.0000       0.393930        10.7194 
 239   0.0000       0.396816        10.7979 
 240   0.0000       0.400485        10.8978 
 241   0.0000       0.411318        11.1925 
 242   0.0000       0.415638        11.3101 
 243   0.0000       0.419845        11.4246 
 244   0.0000       0.429276        11.6812 
 245   0.0000       0.433913        11.8074 
 246   0.0000       0.436124        11.8675 
 247   0.0000       0.441207        12.0059 
 248   0.0000       0.441705        12.0194 
 249   0.0000       0.449070        12.2198 
 250   0.0000       0.454860        12.3774 
 251   0.0000       0.459669        12.5082 
 252   0.0000       0.467677        12.7261 
 253   0.0000       0.469635        12.7794 
 254   0.0000       0.472084        12.8461 
 255   0.0000       0.472819        12.8660 
 256   0.0000       0.478486        13.0203 
 257   0.0000       0.481670        13.1069 
 258   0.0000       0.486645        13.2423 
 259   0.0000       0.497837        13.5468 
 260   0.0000       0.504258        13.7216 
 261   0.0000       0.504647        13.7321 
 262   0.0000       0.506946        13.7947 
 263   0.0000       0.508177        13.8282 
 264   0.0000       0.514346        13.9961 
 265   0.0000       0.519382        14.1331 
 266   0.0000       0.524723        14.2784 
 267   0.0000       0.530273        14.4295 
 268   0.0000       0.531444        14.4613 
 269   0.0000       0.536988        14.6122 
 270   0.0000       0.540329        14.7031 
 271   0.0000       0.547072        14.8866 
 272   0.0000       0.553367        15.0579 
 273   0.0000       0.559226        15.2173 
 274   0.0000       0.561519        15.2797 
 275   0.0000       0.564782        15.3685 
 276   0.0000       0.571045        15.5389 
 277   0.0000       0.571544        15.5525 
 278   0.0000       0.577517        15.7150 
 279   0.0000       0.586677        15.9643 
 280   0.0000       0.589350        16.0370 
 281   0.0000       0.592982        16.1359 
 282   0.0000       0.593849        16.1594 
 283   0.0000       0.595245        16.1974 
 284   0.0000       0.597977        16.2718 
 285   0.0000       0.600181        16.3318 
 286   0.0000       0.607581        16.5331 
 287   0.0000       0.612542        16.6681 
 288   0.0000       0.615875        16.7588 
 289   0.0000       0.621785        16.9196 
 290   0.0000       0.626996        17.0614 
 291   0.0000       0.629568        17.1314 
 292   0.0000       0.634172        17.2567 
 293   0.0000       0.638356        17.3705 
 294   0.0000       0.645881        17.5753 
 295   0.0000       0.647843        17.6287 
 296   0.0000       0.653722        17.7887 
 297   0.0000       0.656218        17.8566 
 298   0.0000       0.663453        18.0535 
 299   0.0000       0.668093        18.1797 
 300   0.0000       0.670747        18.2520 
 301   0.0000       0.675228        18.3739 
 302   0.0000       0.676715        18.4143 
 303   0.0000       0.680069        18.5056 
 304   0.0000       0.680398        18.5146 
 305   0.0000       0.685741        18.6600 
 306   0.0000       0.688245        18.7281 
 307   0.0000       0.690772        18.7969 
 308   0.0000       0.695760        18.9326 
 309   0.0000       0.697920        18.9914 
 310   0.0000       0.702832        19.1250 
 311   0.0000       0.703826        19.1521 
 312   0.0000       0.708105        19.2685 
 313   0.0000       0.709781        19.3141 
 314   0.0000       0.711437        19.3592 
 315   0.0000       0.715452        19.4684 
 316   0.0000       0.717169        19.5152 
 317   0.0000       0.718931        19.5631 
 318   0.0000       0.720273        19.5996 
 319   0.0000       0.723634        19.6911 
 320   0.0000       0.725801        19.7500 
 321   0.0000       0.731486        19.9048 
 322   0.0000       0.733010        19.9462 
 323   0.0000       0.733979        19.9726 
 324   0.0000       0.735425        20.0119 
 325   0.0000       0.740155        20.1406 
 326   0.0000       0.743614        20.2348 
 327   0.0000       0.747064        20.3286 
 328   0.0000       0.750128        20.4120 
 329   0.0000       0.750353        20.4182 
 330   0.0000       0.753957        20.5162 
 331   0.0000       0.757643        20.6165 
 332   0.0000       0.760423        20.6922 
 333   0.0000       0.764221        20.7955 
 334   0.0000       0.767613        20.8878 
 335   0.0000       0.772663        21.0252 
 336   0.0000       0.773809        21.0564 
 337   0.0000       0.780655        21.2427 
 338   0.0000       0.782695        21.2982 
 339   0.0000       0.788932        21.4679 
 340   0.0000       0.792247        21.5581 
 341   0.0000       0.794887        21.6300 
 342   0.0000       0.795823        21.6554 
 343   0.0000       0.803435        21.8626 
 344   0.0000       0.805125        21.9086 
 345   0.0000       0.807904        21.9842 
 346   0.0000       0.808522        22.0010 
 347   0.0000       0.811662        22.0864 
 348   0.0000       0.815201        22.1827 
 349   0.0000       0.818666        22.2770 
 350   0.0000       0.819081        22.2883 
 351   0.0000       0.822521        22.3819 
 352   0.0000       0.825362        22.4593 
 353   0.0000       0.825656        22.4672 
 354   0.0000       0.826841        22.4995 
 355   0.0000       0.831658        22.6306 
 356   0.0000       0.833174        22.6718 
 357   0.0000       0.836601        22.7651 
 358   0.0000       0.837084        22.7782 
 359   0.0000       0.838903        22.8277 
 360   0.0000       0.839220        22.8363 
 361   0.0000       0.843098        22.9419 
 362   0.0000       0.844384        22.9768 
 363   0.0000       0.847469        23.0608 
 364   0.0000       0.848287        23.0831 
 365   0.0000       0.853819        23.2336 
 366   0.0000       0.857015        23.3206 
 367   0.0000       0.860306        23.4101 
 368   0.0000       0.864043        23.5118 
 369   0.0000       0.866714        23.5845 
 370   0.0000       0.869687        23.6654 
 371   0.0000       0.872597        23.7446 
 372   0.0000       0.873331        23.7645 
 373   0.0000       0.876212        23.8429 
 374   0.0000       0.879664        23.9369 
 375   0.0000       0.884151        24.0590 
 376   0.0000       0.886362        24.1191 
 377   0.0000       0.888462        24.1763 
 378   0.0000       0.889612        24.2076 
 379   0.0000       0.892743        24.2928 
 380   0.0000       0.897171        24.4133 
 381   0.0000       0.899736        24.4831 
 382   0.0000       0.900580        24.5060 
 383   0.0000       0.901350        24.5270 
 384   0.0000       0.903868        24.5955 
 385   0.0000       0.904854        24.6223 
 386   0.0000       0.907733        24.7007 
 387   0.0000       0.908648        24.7256 
 388   0.0000       0.911161        24.7939 
 389   0.0000       0.916470        24.9384 
 390   0.0000       0.921036        25.0627 
 391   0.0000       0.924014        25.1437 
 392   0.0000       0.925401        25.1814 
 393   0.0000       0.927132        25.2286 
 394   0.0000       0.927299        25.2331 
 395   0.0000       0.929992        25.3064 
 396   0.0000       0.934229        25.4217 
 397   0.0000       0.938859        25.5476 
 398   0.0000       0.940872        25.6024 
 399   0.0000       0.943037        25.6614 
 400   0.0000       0.944044        25.6887 
 401   0.0000       0.948936        25.8219 
 402   0.0000       0.953141        25.9363 
 403   0.0000       0.956274        26.0215 
 404   0.0000       0.959952        26.1216 
 405   0.0000       0.963045        26.2058 
 406   0.0000       0.964586        26.2477 
 407   0.0000       0.970086        26.3974 
 408   0.0000       0.971701        26.4413 
 409   0.0000       0.978782        26.6340 
 410   0.0000       0.981773        26.7154 
 411   0.0000       0.986309        26.8388 
 412   0.0000       0.989148        26.9161 
 413   0.0000       0.996913        27.1274 
 414   0.0000       1.000019        27.2119 
 415   0.0000       1.001147        27.2426 
 416   0.0000       1.005968        27.3738 
 417   0.0000       1.011921        27.5358 
 418   0.0000       1.021848        27.8059 
 419   0.0000       1.022872        27.8338 
 420   0.0000       1.028657        27.9912 
 421   0.0000       1.031885        28.0790 
 422   0.0000       1.035991        28.1908 
 423   0.0000       1.044222        28.4147 
 424   0.0000       1.050712        28.5913 
 425   0.0000       1.055677        28.7264 
 426   0.0000       1.057515        28.7764 
 427   0.0000       1.065011        28.9804 
 428   0.0000       1.075433        29.2640 
 429   0.0000       1.080488        29.4016 
 430   0.0000       1.081786        29.4369 
 431   0.0000       1.084823        29.5195 
 432   0.0000       1.089645        29.6507 
 433   0.0000       1.092182        29.7198 
 434   0.0000       1.100506        29.9463 
 435   0.0000       1.101154        29.9639 
 436   0.0000       1.106214        30.1016 
 437   0.0000       1.110715        30.2241 
 438   0.0000       1.115080        30.3429 
 439   0.0000       1.118239        30.4288 
 440   0.0000       1.120423        30.4883 
 441   0.0000       1.122568        30.5466 
 442   0.0000       1.124451        30.5979 
 443   0.0000       1.127818        30.6895 
 444   0.0000       1.133899        30.8550 
 445   0.0000       1.136187        30.9172 
 446   0.0000       1.140336        31.0301 
 447   0.0000       1.144162        31.1342 
 448   0.0000       1.145526        31.1714 
 449   0.0000       1.149675        31.2842 
 450   0.0000       1.152302        31.3557 
 451   0.0000       1.158993        31.5378 
 452   0.0000       1.160607        31.5817 
 453   0.0000       1.165697        31.7202 
 454   0.0000       1.168228        31.7891 
 455   0.0000       1.170082        31.8395 
 456   0.0000       1.172058        31.8933 
 457   0.0000       1.176601        32.0170 
 458   0.0000       1.183465        32.2037 
 459   0.0000       1.185598        32.2618 
 460   0.0000       1.194125        32.4938 
 461   0.0000       1.197791        32.5936 
 462   0.0000       1.200003        32.6538 
 463   0.0000       1.205694        32.8086 
 464   0.0000       1.208243        32.8780 
 465   0.0000       1.210376        32.9360 
 466   0.0000       1.217054        33.1177 
 467   0.0000       1.218386        33.1540 
 468   0.0000       1.221262        33.2322 
 469   0.0000       1.225979        33.3606 
 470   0.0000       1.228364        33.4255 
 471   0.0000       1.230852        33.4932 
 472   0.0000       1.234685        33.5975 
 473   0.0000       1.235382        33.6165 
 474   0.0000       1.243165        33.8282 
 475   0.0000       1.243478        33.8367 
 476   0.0000       1.249065        33.9888 
 477   0.0000       1.250572        34.0298 
 478   0.0000       1.251813        34.0636 
 479   0.0000       1.254887        34.1472 
 480   0.0000       1.257902        34.2293 
 481   0.0000       1.264212        34.4010 
 482   0.0000       1.264616        34.4120 
 483   0.0000       1.269967        34.5575 
 484   0.0000       1.273590        34.6561 
 485   0.0000       1.278153        34.7803 
 486   0.0000       1.282376        34.8952 
 487   0.0000       1.284722        34.9591 
 488   0.0000       1.287642        35.0385 
 489   0.0000       1.290738        35.1228 
 490   0.0000       1.294961        35.2377 
 491   0.0000       1.296926        35.2911 
 492   0.0000       1.300548        35.3897 
 493   0.0000       1.309555        35.6348 
 494   0.0000       1.311281        35.6818 
 495   0.0000       1.316985        35.8370 
 496   0.0000       1.321215        35.9521 
 497   0.0000       1.323707        36.0199 
 498   0.0000       1.325838        36.0779 
 499   0.0000       1.328378        36.1470 
 500   0.0000       1.333353        36.2824 
 501   0.0000       1.334615        36.3167 
 502   0.0000       1.339254        36.4429 
 503   0.0000       1.342742        36.5379 
 504   0.0000       1.346145        36.6305 
 505   0.0000       1.351226        36.7687 
 506   0.0000       1.352371        36.7999 
 507   0.0000       1.356057        36.9002 
 508   0.0000       1.358679        36.9715 
 509   0.0000       1.361822        37.0571 
[...]
      pz      :     0.022093  p :     0.079744
      px      :     0.043558
      py      :     0.014092
 77 H s       :     0.885320  s :     0.885320
      pz      :     0.047917  p :     0.079221
      px      :     0.015021
      py      :     0.016283
 78 H s       :     0.885674  s :     0.885674
      pz      :     0.025852  p :     0.079185
      px      :     0.020473
      py      :     0.032860
 79 H s       :     0.910428  s :     0.910428
      pz      :     0.021854  p :     0.086380
      px      :     0.021678
      py      :     0.042847
 80 H s       :     0.865523  s :     0.865523
      pz      :     0.039300  p :     0.084700
      px      :     0.030217
      py      :     0.015183
 81 H s       :     0.886948  s :     0.886948
      pz      :     0.037806  p :     0.084089
      px      :     0.016181
      py      :     0.030102
 82 H s       :     0.915825  s :     0.915825
      pz      :     0.021973  p :     0.086749
      px      :     0.031605
      py      :     0.033171
 83 H s       :     0.873266  s :     0.873266
      pz      :     0.039277  p :     0.084075
      px      :     0.015271
      py      :     0.029528
 84 H s       :     0.886731  s :     0.886731
      pz      :     0.035776  p :     0.083487
      px      :     0.031701
      py      :     0.016009
 85 H s       :     0.892957  s :     0.892957
      pz      :     0.022492  p :     0.079783
      px      :     0.014072
      py      :     0.043218
 86 H s       :     0.890950  s :     0.890950
      pz      :     0.024730  p :     0.078834
      px      :     0.032983
      py      :     0.021122
 87 H s       :     0.889945  s :     0.889945
      pz      :     0.048003  p :     0.078732
      px      :     0.015591
      py      :     0.015139
 88 H s       :     0.911033  s :     0.911033
      pz      :     0.021677  p :     0.087002
      px      :     0.042880
      py      :     0.022445
 89 H s       :     0.871620  s :     0.871620
      pz      :     0.037930  p :     0.083829
      px      :     0.030470
      py      :     0.015428


                      *****************************
                      * MAYER POPULATION ANALYSIS *
                      *****************************

  NA   - Mulliken gross atomic population
  ZA   - Total nuclear charge
  QA   - Mulliken gross atomic charge
  VA   - Mayer's total valence
  BVA  - Mayer's bonded valence
  FA   - Mayer's free valence

  ATOM       NA         ZA         QA         VA         BVA        FA
  0 C      5.7901     6.0000     0.2099     3.8411     3.8411    -0.0000
  1 N      7.4548     7.0000    -0.4548     3.3333     3.3333    -0.0000
  2 C      6.0653     6.0000    -0.0653     3.9203     3.9203     0.0000
  3 N      7.3371     7.0000    -0.3371     3.4570     3.4570    -0.0000
  4 C      6.0480     6.0000    -0.0480     4.0253     4.0253    -0.0000
  5 N      7.5643     7.0000    -0.5643     3.0940     3.0940    -0.0000
  6 C      6.1080     6.0000    -0.1080     3.9894     3.9894     0.0000
  7 N      7.3401     7.0000    -0.3401     3.4346     3.4346     0.0000
  8 C      5.7944     6.0000     0.2056     3.8410     3.8410     0.0000
  9 N      7.5623     7.0000    -0.5623     3.0781     3.0781    -0.0000
 10 C      5.8814     6.0000     0.1186     3.9080     3.9080     0.0000
 11 N      7.4383     7.0000    -0.4383     3.3786     3.3786     0.0000
 12 C      6.0822     6.0000    -0.0822     3.8996     3.8996    -0.0000
 13 N      7.4312     7.0000    -0.4312     3.4203     3.4203     0.0000
 14 C      5.7661     6.0000     0.2339     3.7845     3.7845    -0.0000
 15 N      7.4410     7.0000    -0.4410     3.3719     3.3719     0.0000
 16 C      5.7719     6.0000     0.2281     3.7796     3.7796    -0.0000
 17 C      6.1201     6.0000    -0.1201     3.9977     3.9977    -0.0000
 18 C      6.1961     6.0000    -0.1961     3.7671     3.7671     0.0000
 19 C      5.7734     6.0000     0.2266     3.8620     3.8620     0.0000
 20 C      5.7874     6.0000     0.2126     3.8288     3.8288    -0.0000
 21 C      6.0932     6.0000    -0.0932     3.8834     3.8834    -0.0000
 22 C      6.0911     6.0000    -0.0911     3.9828     3.9828     0.0000
 23 C      6.0407     6.0000    -0.0407     3.9924     3.9924     0.0000
 24 C      5.8049     6.0000     0.1951     3.8216     3.8216     0.0000
 25 C      5.8855     6.0000     0.1145     3.8914     3.8914     0.0000
 26 C      6.0809     6.0000    -0.0809     3.9096     3.9096    -0.0000
 27 C      5.7867     6.0000     0.2133     3.8645     3.8645    -0.0000
 28 C      6.0605     6.0000    -0.0605     3.9886     3.9886     0.0000
 29 C      6.1805     6.0000    -0.1805     3.7444     3.7444    -0.0000
 30 C      5.7553     6.0000     0.2447     3.7996     3.7996    -0.0000
 31 C      5.7728     6.0000     0.2272     3.8190     3.8190    -0.0000
 32 C      6.0623     6.0000    -0.0623     3.9224     3.9224    -0.0000
 33 C      6.0638     6.0000    -0.0638     3.9742     3.9742     0.0000
 34 C      6.0509     6.0000    -0.0509     3.9850     3.9850    -0.0000
 35 C      5.7756     6.0000     0.2244     3.8181     3.8181    -0.0000
 36 C      5.8908     6.0000     0.1092     3.8775     3.8775     0.0000
 37 C      6.0647     6.0000    -0.0647     3.9176     3.9176    -0.0000
 38 C      5.7679     6.0000     0.2321     3.8001     3.8001    -0.0000
 39 C      6.0583     6.0000    -0.0583     3.9845     3.9845     0.0000
 40 C      6.1824     6.0000    -0.1824     3.7296     3.7296     0.0000
 41 C      5.7748     6.0000     0.2252     3.8859     3.8859     0.0000
 42 C      5.8019     6.0000     0.1981     3.8261     3.8261    -0.0000
 43 C      6.0724     6.0000    -0.0724     3.9004     3.9004     0.0000
 44 C      6.0896     6.0000    -0.0896     3.9849     3.9849    -0.0000
 45 C      6.0601     6.0000    -0.0601     3.9924     3.9924     0.0000
 46 C      5.7897     6.0000     0.2103     3.8281     3.8281     0.0000
 47 C      5.8846     6.0000     0.1154     3.8931     3.8931     0.0000
 48 C      6.0680     6.0000    -0.0680     3.9089     3.9089    -0.0000
 49 C      5.7629     6.0000     0.2371     3.8923     3.8923    -0.0000
 50 C      6.0474     6.0000    -0.0474     3.9905     3.9905    -0.0000
 51 C      6.1915     6.0000    -0.1915     3.7361     3.7361    -0.0000
 52 H      0.9600     1.0000     0.0400     0.9859     0.9859     0.0000
 53 H      1.0165     1.0000    -0.0165     0.9983     0.9983    -0.0000
 54 H      0.9470     1.0000     0.0530     1.0156     1.0156     0.0000
 55 H      0.9606     1.0000     0.0394     0.9868     0.9868     0.0000
 56 H      0.9499     1.0000     0.0501     0.9697     0.9697     0.0000
 57 H      0.9513     1.0000     0.0487     0.9830     0.9830     0.0000
 58 H      0.9521     1.0000     0.0479     0.9848     0.9848     0.0000
 59 H      0.9988     1.0000     0.0012     1.0032     1.0032    -0.0000
 60 H      0.9517     1.0000     0.0483     1.0142     1.0142    -0.0000
 61 H      0.8287     1.0000     0.1713     1.0421     1.0421    -0.0000
 62 H      0.8249     1.0000     0.1751     1.0435     1.0435     0.0000
 63 H      0.9447     1.0000     0.0553     0.9853     0.9853    -0.0000
 64 H      1.0086     1.0000    -0.0086     0.9971     0.9971    -0.0000
 65 H      0.9527     1.0000     0.0473     1.0095     1.0095     0.0000
 66 H      0.9440     1.0000     0.0560     0.9854     0.9854    -0.0000
 67 H      0.9377     1.0000     0.0623     0.9719     0.9719    -0.0000
 68 H      0.9426     1.0000     0.0574     0.9868     0.9868    -0.0000
 69 H      0.9434     1.0000     0.0566     0.9828     0.9828     0.0000
 70 H      1.0291     1.0000    -0.0291     0.9936     0.9936    -0.0000
 71 H      0.9550     1.0000     0.0450     1.0060     1.0060    -0.0000
 72 H      0.9310     1.0000     0.0690     0.9838     0.9838    -0.0000
 73 H      1.0087     1.0000    -0.0087     1.0006     1.0006     0.0000
 74 H      0.9417     1.0000     0.0583     1.0100     1.0100    -0.0000
 75 H      0.9316     1.0000     0.0684     0.9841     0.9841    -0.0000
 76 H      0.9271     1.0000     0.0729     0.9721     0.9721    -0.0000
 77 H      0.9335     1.0000     0.0665     0.9854     0.9854     0.0000
 78 H      0.9343     1.0000     0.0657     0.9853     0.9853    -0.0000
 79 H      1.0161     1.0000    -0.0161     0.9978     0.9978    -0.0000
 80 H      0.9409     1.0000     0.0591     1.0072     1.0072    -0.0000
 81 H      0.9460     1.0000     0.0540     0.9856     0.9856    -0.0000
 82 H      1.0246     1.0000    -0.0246     0.9936     0.9936     0.0000
 83 H      0.9579     1.0000     0.0421     1.0084     1.0084     0.0000
 84 H      0.9459     1.0000     0.0541     0.9853     0.9853    -0.0000
 85 H      0.9394     1.0000     0.0606     0.9716     0.9716     0.0000
 86 H      0.9444     1.0000     0.0556     0.9839     0.9839     0.0000
 87 H      0.9430     1.0000     0.0570     0.9856     0.9856     0.0000
 88 H      1.0154     1.0000    -0.0154     0.9964     0.9964    -0.0000
 89 H      0.9541     1.0000     0.0459     1.0074     1.0074     0.0000

  Mayer bond orders larger than 0.100000
B(  0-C ,  1-N ) :   1.0955 B(  0-C , 17-C ) :   1.6981 B(  0-C , 52-H ) :   0.9672 
B(  1-N ,  8-C ) :   1.0875 B(  1-N , 10-C ) :   0.9763 B(  2-C , 12-C ) :   1.5087 
B(  2-C , 16-C ) :   1.3547 B(  2-C , 53-H ) :   0.9753 B(  3-N , 14-C ) :   1.2184 
B(  3-N , 16-C ) :   1.1898 B(  3-N , 61-H ) :   0.8990 B(  4-C ,  6-C ) :   1.2139 
B(  4-C , 17-C ) :   1.2155 B(  4-C , 18-C ) :   1.4292 B(  5-N , 19-C ) :   1.4504 
B(  5-N , 27-C ) :   1.3802 B(  6-C ,  8-C ) :   1.7054 B(  6-C , 54-H ) :   0.9530 
B(  7-N , 30-C ) :   1.1957 B(  7-N , 38-C ) :   1.1916 B(  7-N , 62-H ) :   0.8970 
B(  8-C , 55-H ) :   0.9672 B(  9-N , 41-C ) :   1.3958 B(  9-N , 49-C ) :   1.4243 
B( 10-C , 56-H ) :   0.9771 B( 10-C , 57-H ) :   0.9822 B( 10-C , 58-H ) :   0.9843 
B( 11-N , 20-C ) :   1.1299 B( 11-N , 24-C ) :   1.1087 B( 11-N , 25-C ) :   0.9600 
B( 12-C , 14-C ) :   1.3543 B( 12-C , 59-H ) :   0.9729 B( 13-N , 31-C ) :   1.1553 
B( 13-N , 35-C ) :   1.1528 B( 13-N , 36-C ) :   0.9443 B( 14-C , 18-C ) :   1.1334 
B( 15-N , 42-C ) :   1.1086 B( 15-N , 46-C ) :   1.1225 B( 15-N , 47-C ) :   0.9615 
B( 16-C , 51-C ) :   1.1734 B( 17-C , 60-H ) :   0.9578 B( 18-C , 19-C ) :   1.1383 
B( 19-C , 21-C ) :   1.2442 B( 20-C , 28-C ) :   1.6282 B( 20-C , 63-H ) :   0.9703 
B( 21-C , 26-C ) :   1.6074 B( 21-C , 64-H ) :   0.9668 B( 22-C , 23-C ) :   1.2886 
B( 22-C , 28-C ) :   1.2651 B( 22-C , 29-C ) :   1.2243 B( 23-C , 24-C ) :   1.6201 
B( 23-C , 65-H ) :   0.9704 B( 24-C , 66-H ) :   0.9695 B( 25-C , 67-H ) :   0.9760 
B( 25-C , 68-H ) :   0.9828 B( 25-C , 69-H ) :   0.9823 B( 26-C , 27-C ) :   1.2411 
B( 26-C , 70-H ) :   0.9707 B( 27-C , 29-C ) :   1.2137 B( 28-C , 71-H ) :   0.9719 
B( 29-C , 30-C ) :   1.2391 B( 30-C , 32-C ) :   1.2853 B( 31-C , 39-C ) :   1.5948 
B( 31-C , 72-H ) :   0.9684 B( 32-C , 37-C ) :   1.5735 B( 32-C , 73-H ) :   0.9785 
B( 33-C , 34-C ) :   1.3021 B( 33-C , 39-C ) :   1.2981 B( 33-C , 40-C ) :   1.1875 
B( 34-C , 35-C ) :   1.5921 B( 34-C , 74-H ) :   0.9698 B( 35-C , 75-H ) :   0.9684 
B( 36-C , 76-H ) :   0.9767 B( 36-C , 77-H ) :   0.9816 B( 36-C , 78-H ) :   0.9824 
B( 37-C , 38-C ) :   1.2900 B( 37-C , 79-H ) :   0.9767 B( 38-C , 40-C ) :   1.2291 
B( 39-C , 80-H ) :   0.9707 B( 40-C , 41-C ) :   1.2462 B( 41-C , 43-C ) :   1.1887 
B( 42-C , 50-C ) :   1.6334 B( 42-C , 81-H ) :   0.9697 B( 43-C , 48-C ) :   1.6638 
B( 43-C , 82-H ) :   0.9724 B( 44-C , 45-C ) :   1.2644 B( 44-C , 50-C ) :   1.2714 
B( 44-C , 51-C ) :   1.2600 B( 45-C , 46-C ) :   1.6347 B( 45-C , 83-H ) :   0.9717 
B( 46-C , 84-H ) :   0.9700 B( 47-C , 85-H ) :   0.9762 B( 47-C , 86-H ) :   0.9829 
B( 47-C , 87-H ) :   0.9825 B( 48-C , 49-C ) :   1.1919 B( 48-C , 88-H ) :   0.9747 
B( 49-C , 51-C ) :   1.2397 B( 50-C , 89-H ) :   0.9710 

-------
TIMINGS
-------

Total SCF time: 0 days 0 hours 22 min 56 sec 

Total time                  ....    1376.815 sec
Sum of individual times     ....    1373.074 sec  ( 99.7%)

Fock matrix formation       ....    1352.275 sec  ( 98.2%)
Diagonalization             ....       6.735 sec  (  0.5%)
Density matrix formation    ....       0.393 sec  (  0.0%)
Population analysis         ....       0.431 sec  (  0.0%)
Initial guess               ....       1.937 sec  (  0.1%)
Orbital Transformation      ....       0.000 sec  (  0.0%)
Orbital Orthonormalization  ....       0.000 sec  (  0.0%)
DIIS solution               ....       2.973 sec  (  0.2%)
SOSCF solution              ....       7.307 sec  (  0.5%)

Maximum memory used throughout the entire SCF-calculation: 302.6 MB


           ************************************************************
           *        Program running with 16 parallel MPI-processes    *
           *              working on a common directory               *
           ************************************************************

------------------------------------------------------------------------------
                                ORCA  MP2 
------------------------------------------------------------------------------

Freezing NCore=104 chemical core electrons

----------
MP2 ENERGY (disk based algorithm)
----------

Dimension of the basis                    ...  918
Memory devoted to MP2                     ... 2000 MB   
Data format for buffers                   ... DOUBLE
Compression type for matrix containers    ... UNCOMPRESSED

-------------------------------
PARTIAL EXCHANGE TRANSFORMATION
-------------------------------

Transformation type                        ... one-operator
Generation of integrals (i,mue|j,nue)      ... ON
Generation of integrals (mue,kappa|nue,tau)... OFF
Generation of integrals (i,mue|a,nue)      ... OFF
Dimension of the basis                     ...  918
Number of internal MOs                     ...  127 (  52- 178)
Pair cutoff                                ... 2.500e-12 Eh
Number of AO pairs in the trafo            ... 421821
Total Number of distinct AO pairs          ... 421821
Memory devoted for trafo                   ... 2000.0 MB 
Max. Number of MO pairs treated together   ...  311      
Number Format for Storage                  ... Double (8 Byte)
Integral package used                      ... LIBINT

Starting integral evaluation:
    ... done with AO integral generation
Closing buffer AOK     (38.29 GB; CompressionRatio= 1.32)
Collecting buffer AOK 
Number of MO pairs included in the trafo   ... 8128
------------------------
SORTING OF (i,mue|j,nue)
------------------------

IBATCH = 1 of  2
IBATCH = 2 of  2
Closing buffer KAO     (51.03 GB; CompressionRatio= 1.00)
Collecting buffer KAO 
N(AO-Batches) Done                         ...  85870525 
N(AO-Batches) Skipped                      ...  82483871 
N(IJ)-pairs Skipped                        ...         0 
TOTAL TIME for half transformation         ...  2501.206 sec
AO-integral generation                     ...   177.841 sec
Half transformation                        ...   317.685 sec
K-integral sorting                         ...  1874.153 sec
Process 10:   Internal MO 132
Process 13:   Internal MO 156

Finished integral transformation - now doing MP2 part

OPERATOR COMBINATION   0   0: ij=( 52..178, 52..178)
Process  1:   Internal MO  60
Process  7:   Internal MO 108
Process  4:   Internal MO  84
Process  2:   Internal MO  69
Process  1:   Internal MO  63
Process  5:   Internal MO  93
Process  0:   Internal MO  54
Process  2:   Internal MO  72
Process  8:   Internal MO 117
Process  1:   Internal MO  66
Process 14:   Internal MO 165
Process  3:   Internal MO  78
Process  0:   Internal MO  57
Process  4:   Internal MO  87
Process  2:   Internal MO  75
Process 11:   Internal MO 141
Process  9:   Internal MO 126
Process  6:   Internal MO 102
Process  3:   Internal MO  81
Process 12:   Internal MO 150
Process  5:   Internal MO  96
Process  4:   Internal MO  90
Process  7:   Internal MO 111
Process 10:   Internal MO 135
Process  8:   Internal MO 120
Process 15:   Internal MO 174
Process  6:   Internal MO 105
Process  9:   Internal MO 129
Process  5:   Internal MO  99
Process 13:   Internal MO 159
Process  7:   Internal MO 114
Process 14:   Internal MO 168
Process 11:   Internal MO 144
Process 12:   Internal MO 153
Process 10:   Internal MO 138
Process  8:   Internal MO 123
Process 15:   Internal MO 177
Process 11:   Internal MO 147
Process 13:   Internal MO 162
Process 14:   Internal MO 171
-----------------------------------------------
 MP2 CORRELATION ENERGY   :     -7.283805943 Eh
-----------------------------------------------


-------
TIMINGS
-------
Total time                : 2791.288 sec
Integral trafo            : 2503.227 sec ( 89.7%)
K(i,j)                    :   29.065 sec (  1.0%)
T(i,j)                    :    0.149 sec (  0.0%)

---------------------------------------
MP2 TOTAL ENERGY:    -2130.883974542 Eh
---------------------------------------

Maximum memory used throughout the entire MP2-calculation: 2275.3 MB

-------------------------   --------------------
FINAL SINGLE POINT ENERGY     -2130.883974541885
-------------------------   --------------------


                            ***************************************
                            *     ORCA property calculations      *
                            ***************************************


  WARNING: The energy has been calculated at the MP2 level but the densities
           used in the property calculations are still SCF densities
           MP2 response densities have not been calculated 
           use %mp2 Density relaxed end
           or  %mp2 Density unrelaxed end

                                    ---------------------
                                    Active property flags
                                    ---------------------
   (+) Dipole Moment


------------------------------------------------------------------------------
                       ORCA ELECTRIC PROPERTIES CALCULATION
------------------------------------------------------------------------------

Dipole Moment Calculation                       ... on
Quadrupole Moment Calculation                   ... off
Polarizability Calculation                      ... off
GBWName                                         ... /scratch/allen/tmpyp4_amber_gaff2/conf1/conf1/Conf32.orca.gbw
Electron density                                ... /scratch/allen/tmpyp4_amber_gaff2/conf1/conf1/Conf32.orca.scfp
The origin for moment calculation is the CENTER OF MASS  = (-0.000561, -0.004548  0.003364)

-------------
DIPOLE MOMENT
-------------
                                X             Y             Z
Electronic contribution:      2.38028      -3.72587      -0.11544
Nuclear contribution   :     -0.05032       0.15419       0.13738
                        -----------------------------------------
Total Dipole Moment    :      2.32996      -3.57169       0.02194
                        -----------------------------------------
Magnitude (a.u.)       :      4.26452
Magnitude (Debye)      :     10.83955



--------------------
Rotational spectrum 
--------------------
 
Rotational constants in cm-1:     0.001502     0.001477     0.000761 
Rotational constants in MHz :    45.023401    44.268268    22.802365 

 Dipole components along the rotational axes: 
x,y,z [a.u.] :     3.072415     2.957323     0.025571 
x,y,z [Debye]:     7.809457     7.516918     0.064995 

 

Timings for individual modules:

Sum of individual times         ...     4190.379 sec (=  69.840 min)
GTO integral calculation        ...        2.669 sec (=   0.044 min)   0.1 %
SCF iterations                  ...     1377.740 sec (=  22.962 min)  32.9 %
MP2 module                      ...     2809.970 sec (=  46.833 min)  67.1 %
                             ****ORCA TERMINATED NORMALLY****
TOTAL RUN TIME: 0 days 1 hours 9 minutes 53 seconds 673 msec
# of primitive gaussian functions

