
                                 *****************
                                 * O   R   C   A *
                                 *****************

                                            #,                                       
                                            ###                                      
                                            ####                                     
                                            #####                                    
                                            ######                                   
                                           ########,                                 
                                     ,,################,,,,,                         
                               ,,#################################,,                 
                          ,,##########################################,,             
                       ,#########################################, ''#####,          
                    ,#############################################,,   '####,        
                  ,##################################################,,,,####,       
                ,###########''''           ''''###############################       
              ,#####''   ,,,,##########,,,,          '''####'''          '####       
            ,##' ,,,,###########################,,,                        '##       
           ' ,,###''''                  '''############,,,                           
         ,,##''                                '''############,,,,        ,,,,,,###''
      ,#''                                            '''#######################'''  
     '                                                          ''''####''''         
             ,#######,   #######,   ,#######,      ##                                
            ,#'     '#,  ##    ##  ,#'     '#,    #''#        ######   ,####,        
            ##       ##  ##   ,#'  ##            #'  '#       #        #'  '#        
            ##       ##  #######   ##           ,######,      #####,   #    #        
            '#,     ,#'  ##    ##  '#,     ,#' ,#      #,         ##   #,  ,#        
             '#######'   ##     ##  '#######'  #'      '#     #####' # '####'        



                  #######################################################
                  #                        -***-                        #
                  #          Department of theory and spectroscopy      #
                  #    Directorship and core code : Frank Neese         #
                  #        Max Planck Institute fuer Kohlenforschung    #
                  #                Kaiser Wilhelm Platz 1               #
                  #                 D-45470 Muelheim/Ruhr               #
                  #                      Germany                        #
                  #                                                     #
                  #                  All rights reserved                #
                  #                        -***-                        #
                  #######################################################


                         Program Version 5.0.4 -  RELEASE  -


 With contributions from (in alphabetic order):
   Daniel Aravena         : Magnetic Suceptibility
   Michael Atanasov       : Ab Initio Ligand Field Theory (pilot matlab implementation)
   Alexander A. Auer      : GIAO ZORA, VPT2 properties, NMR spectrum
   Ute Becker             : Parallelization
   Giovanni Bistoni       : ED, misc. LED, open-shell LED, HFLD
   Martin Brehm           : Molecular dynamics
   Dmytro Bykov           : SCF Hessian
   Vijay G. Chilkuri      : MRCI spin determinant printing, contributions to CSF-ICE
   Dipayan Datta          : RHF DLPNO-CCSD density
   Achintya Kumar Dutta   : EOM-CC, STEOM-CC
   Dmitry Ganyushin       : Spin-Orbit,Spin-Spin,Magnetic field MRCI
   Miquel Garcia          : C-PCM and meta-GGA Hessian, CC/C-PCM, Gaussian charge scheme
   Yang Guo               : DLPNO-NEVPT2, F12-NEVPT2, CIM, IAO-localization
   Andreas Hansen         : Spin unrestricted coupled pair/coupled cluster methods
   Benjamin Helmich-Paris : MC-RPA, TRAH-SCF, COSX integrals
   Lee Huntington         : MR-EOM, pCC
   Robert Izsak           : Overlap fitted RIJCOSX, COSX-SCS-MP3, EOM
   Marcus Kettner         : VPT2
   Christian Kollmar      : KDIIS, OOCD, Brueckner-CCSD(T), CCSD density, CASPT2, CASPT2-K
   Simone Kossmann        : Meta GGA functionals, TD-DFT gradient, OOMP2, MP2 Hessian
   Martin Krupicka        : Initial AUTO-CI
   Lucas Lang             : DCDCAS
   Marvin Lechner         : AUTO-CI (C++ implementation), FIC-MRCC
   Dagmar Lenk            : GEPOL surface, SMD
   Dimitrios Liakos       : Extrapolation schemes; Compound Job, initial MDCI parallelization
   Dimitrios Manganas     : Further ROCIS development; embedding schemes
   Dimitrios Pantazis     : SARC Basis sets
   Anastasios Papadopoulos: AUTO-CI, single reference methods and gradients
   Taras Petrenko         : DFT Hessian,TD-DFT gradient, ASA, ECA, R-Raman, ABS, FL, XAS/XES, NRVS
   Peter Pinski           : DLPNO-MP2, DLPNO-MP2 Gradient
   Christoph Reimann      : Effective Core Potentials
   Marius Retegan         : Local ZFS, SOC
   Christoph Riplinger    : Optimizer, TS searches, QM/MM, DLPNO-CCSD(T), (RO)-DLPNO pert. Triples
   Tobias Risthaus        : Range-separated hybrids, TD-DFT gradient, RPA, STAB
   Michael Roemelt        : Original ROCIS implementation
   Masaaki Saitow         : Open-shell DLPNO-CCSD energy and density
   Barbara Sandhoefer     : DKH picture change effects
   Avijit Sen             : IP-ROCIS
   Kantharuban Sivalingam : CASSCF convergence, NEVPT2, FIC-MRCI
   Bernardo de Souza      : ESD, SOC TD-DFT
   Georgi Stoychev        : AutoAux, RI-MP2 NMR, DLPNO-MP2 response
   Willem Van den Heuvel  : Paramagnetic NMR
   Boris Wezisla          : Elementary symmetry handling
   Frank Wennmohs         : Technical directorship


 We gratefully acknowledge several colleagues who have allowed us to
 interface, adapt or use parts of their codes:
   Stefan Grimme, W. Hujo, H. Kruse, P. Pracht,  : VdW corrections, initial TS optimization,
                  C. Bannwarth, S. Ehlert          DFT functionals, gCP, sTDA/sTD-DF
   Ed Valeev, F. Pavosevic, A. Kumar             : LibInt (2-el integral package), F12 methods
   Garnet Chan, S. Sharma, J. Yang, R. Olivares  : DMRG
   Ulf Ekstrom                                   : XCFun DFT Library
   Mihaly Kallay                                 : mrcc  (arbitrary order and MRCC methods)
   Jiri Pittner, Ondrej Demel                    : Mk-CCSD
   Frank Weinhold                                : gennbo (NPA and NBO analysis)
   Christopher J. Cramer and Donald G. Truhlar   : smd solvation model
   Lars Goerigk                                  : TD-DFT with DH, B97 family of functionals
   V. Asgeirsson, H. Jonsson                     : NEB implementation
   FAccTs GmbH                                   : IRC, NEB, NEB-TS, DLPNO-Multilevel, CI-OPT
                                                   MM, QMMM, 2- and 3-layer-ONIOM, Crystal-QMMM,
                                                   LR-CPCM, SF, NACMEs, symmetry and pop. for TD-DFT,
                                                   nearIR, NL-DFT gradient (VV10), updates on ESD,
                                                   ML-optimized integration grids
   S Lehtola, MJT Oliveira, MAL Marques          : LibXC Library
   Liviu Ungur et al                             : ANISO software


 Your calculation uses the libint2 library for the computation of 2-el integrals
 For citations please refer to: http://libint.valeyev.net

 Your ORCA version has been built with support for libXC version: 5.1.0
 For citations please refer to: https://tddft.org/programs/libxc/

 This ORCA versions uses:
   CBLAS   interface :  Fast vector & matrix operations
   LAPACKE interface :  Fast linear algebra routines
   SCALAPACK package :  Parallel linear algebra routines
   Shared memory     :  Shared parallel matrices
   BLAS/LAPACK       :  OpenBLAS 0.3.15  USE64BITINT DYNAMIC_ARCH NO_AFFINITY Sandybridge SINGLE_THREADED
        Core in use  :  Sandybridge
   Copyright (c) 2011-2014, The OpenBLAS Project


================================================================================

----- Orbital basis set information -----
Your calculation utilizes the basis: cc-pVDZ 
       H, B-Ne : Obtained from the ccRepo (grant-hill.group.shef.ac.uk/ccrepo) Feb. 2017
                 T. H. Dunning, Jr., J. Chem. Phys. 90, 1007 (1989)
            He : Obtained from the ccRepo (grant-hill.group.shef.ac.uk/ccrepo) Feb. 2017
                 D. E. Woon, T. H. Dunning, Jr., J. Chem. Phys. 100, 2975 (1994)
  Li-Be, Na-Mg : Obtained from the ccRepo (grant-hill.group.shef.ac.uk/ccrepo) Feb. 2017
                 B. P. Prascher, D. E. Woon, K. A. Peterson, T. H. Dunning, Jr., A. K. Wilson, Theor. Chem. Acc. 128, 69 (2011)
         Al-Ar : Obtained from the ccRepo (grant-hill.group.shef.ac.uk/ccrepo) Feb. 2017
                 D. E. Woon, T. H. Dunning, Jr., J. Chem. Phys. 98, 1358 (1993)
            Ca : Obtained from the Peterson Research Group Website (tyr0.chem.wsu.edu/~kipeters) Feb. 2017
                 J. Koput, K. A. Peterson, J. Phys. Chem. 106, 9595 (2002)
         Sc-Zn : Obtained from the ccRepo (grant-hill.group.shef.ac.uk/ccrepo) Feb. 2017
                 N. B. Balabanov, K. A. Peterson, J. Chem. Phys. 123, 064107 (2005)
                 N. B. Balabanov, K. A. Peterson, J. Chem. Phys. 125, 074110 (2006)
         Ga-Kr : Obtained from the ccRepo (grant-hill.group.shef.ac.uk/ccrepo) Feb. 2017
                 A. K. Wilson, D. E. Woon, K. A. Peterson, T. H. Dunning, Jr., J. Chem. Phys. 110, 7667 (1999)

================================================================================
                                        WARNINGS
                       Please study these warnings very carefully!
================================================================================


WARNING: No MP2 level density has been requested!
         To caclulate MP2 level properties use
         %mp2 Density relaxed end
         or
         %mp2 Density unrelaxed end

WARNING: Post HF methods need fully converged wavefunctions
  ===> : Setting SCFConvForced true
         You can overwrite this default with %scf ConvForced false 


INFO   : the flag for use of the SHARK integral package has been found!

================================================================================
                                       INPUT FILE
================================================================================
NAME = /scratch/allen/tmpyp4_amber_gaff2/2.Mdgx/conf11/conf11/Conf105.orca
|  1> ! PAL2
|  2> ! mp2 cc-pvdz TightSCF  NoKeepInts
|  3> 
|  4> %scf
|  5>   MaxCore 2000
|  6> end
|  7> %mp2
|  8>   MaxCore 2000
|  9> end
| 10> * xyz 0 1
| 11>    C       -4.21700         5.70900        -1.05100
| 12>    C        1.47400         4.04100         0.05700
| 13>    C       -2.80200         4.09300         0.04900
| 14>    C       -2.96600         4.83100         1.23200
| 15>    C       -3.74400         5.97100         1.23600
| 16>    C       -5.21200         7.60200         0.15100
| 17>    C        0.13200         4.30700         0.06100
| 18>    C       -0.56900         3.05600         0.04700
| 19>    C        1.64900         2.61800         0.02300
| 20>    C       -3.45300         4.56000        -1.10300
| 21>    N       -4.35400         6.39800         0.10500
| 22>    N        0.38800         2.06700         0.02500
| 23>    N       -2.01000         0.39500        -0.07500
| 24>    N       -0.38800        -2.07400        -0.02700
| 25>    N        2.01000        -0.40100         0.06500
| 26>    C       -1.96000         2.86100         0.02400
| 27>    C       -2.62300         1.61500        -0.01800
| 28>    C       -5.57300        -4.32900         1.06600
| 29>    C       -4.07300         1.47100         0.05600
| 30>    C       -4.10600        -2.75600        -0.02600
| 31>    C       -4.99500        -2.75700        -1.11100
| 32>    C       -6.13200        -3.54200        -1.07600
| 33>    C       -7.65100        -5.11300         0.04000
| 34>    C       -4.32400         0.14100         0.03700
| 35>    C       -3.02500        -0.52000        -0.04800
| 36>    C       -4.42200        -3.56600         1.07500
| 37>    N       -6.40700        -4.31300         0.00100
| 38>    C       -2.86700        -1.92200        -0.04000
| 39>    C       -1.65000        -2.62400        -0.02700
| 40>    C        3.56800        -6.14200        -1.04000
| 41>    C       -1.47600        -4.04900        -0.03400
| 42>    C        2.80300        -4.09900        -0.00800
| 43>    C        3.65700        -4.38400         1.06900
| 44>    C        4.42700        -5.53000         1.05900
| 45>    C        5.24500        -7.58800         0.01400
| 46>    C       -0.13400        -4.31500        -0.02200
| 47>    C        0.56800        -3.06400        -0.02700
| 48>    C        2.77500        -5.01200        -1.07400
| 49>    N        4.37600        -6.39100         0.01700
| 50>    C        1.95900        -2.86900        -0.00900
| 51>    C        2.62100        -1.62200         0.00900
| 52>    C        5.54300         4.33900        -1.13000
| 53>    C        4.07000        -1.47900        -0.09400
| 54>    C        4.10400         2.75100        -0.02100
| 55>    C        5.02700         2.72900         1.03600
| 56>    C        6.16600         3.50900         0.97800
| 57>    C        7.61900         5.15300        -0.11500
| 58>    C        4.32100        -0.14800        -0.09200
| 59>    C        3.02500         0.51400         0.01500
| 60>    C        4.38700         3.58200        -1.11500
| 61>    C        2.86600         1.91600         0.01300
| 62>    N        6.41300         4.29600        -0.09500
| 63>    H       -4.72600         6.11300        -1.91700
| 64>    H        2.27400         4.76600         0.08100
| 65>    H       -2.49600         4.51600         2.15600
| 66>    H       -3.90700         6.56700         2.12400
| 67>    H       -6.21800         7.31000         0.45900
| 68>    H       -4.79000         8.30700         0.86800
| 69>    H       -5.23900         8.05100        -0.84100
| 70>    H       -0.33200         5.28200         0.06900
| 71>    H       -3.35400         4.04200        -2.05100
| 72>    H        0.18200         1.07200         0.00500
| 73>    H       -0.18300        -1.08000        -0.02100
| 74>    H       -5.86400        -4.96200         1.89500
| 75>    H       -4.79400         2.27200         0.13900
| 76>    H       -4.80000        -2.16000        -1.99400
| 77>    H       -6.84100        -3.58200        -1.89300
| 78>    H       -8.42800        -4.53600         0.54600
| 79>    H       -7.95600        -5.33700        -0.98100
| 80>    H       -7.45600        -6.03700         0.58400
| 81>    H       -5.28700        -0.34400         0.10000
| 82>    H       -3.78000        -3.60100         1.94700
| 83>    H        3.58700        -6.86800        -1.84300
| 84>    H       -2.27600        -4.77400        -0.05000
| 85>    H        3.71400        -3.72400         1.92600
| 86>    H        5.09200        -5.79500         1.87100
| 87>    H        6.20500        -7.32900        -0.43900
| 88>    H        5.39300        -7.91700         1.04200
| 89>    H        4.75900        -8.37300        -0.56400
| 90>    H        0.32900        -5.29000        -0.00800
| 91>    H        2.14600        -4.84200        -1.94000
| 92>    H        5.80800         4.98600        -1.95600
| 93>    H        4.78800        -2.28100        -0.18500
| 94>    H        4.86000         2.11400         1.91200
| 95>    H        6.90100         3.53100         1.77200
| 96>    H        7.38300         6.10900         0.35600
| 97>    H        8.41400         4.65200         0.43500
| 98>    H        7.92100         5.31000        -1.15000
| 99>    H        5.28300         0.33600        -0.17900
|100>    H        3.72000         3.63200        -1.96700
|101> *
|102> 
|103>                          ****END OF INPUT****
================================================================================

                       ****************************
                       * Single Point Calculation *
                       ****************************

---------------------------------
CARTESIAN COORDINATES (ANGSTROEM)
---------------------------------
  C     -4.217000    5.709000   -1.051000
  C      1.474000    4.041000    0.057000
  C     -2.802000    4.093000    0.049000
  C     -2.966000    4.831000    1.232000
  C     -3.744000    5.971000    1.236000
  C     -5.212000    7.602000    0.151000
  C      0.132000    4.307000    0.061000
  C     -0.569000    3.056000    0.047000
  C      1.649000    2.618000    0.023000
  C     -3.453000    4.560000   -1.103000
  N     -4.354000    6.398000    0.105000
  N      0.388000    2.067000    0.025000
  N     -2.010000    0.395000   -0.075000
  N     -0.388000   -2.074000   -0.027000
  N      2.010000   -0.401000    0.065000
  C     -1.960000    2.861000    0.024000
  C     -2.623000    1.615000   -0.018000
  C     -5.573000   -4.329000    1.066000
  C     -4.073000    1.471000    0.056000
  C     -4.106000   -2.756000   -0.026000
  C     -4.995000   -2.757000   -1.111000
  C     -6.132000   -3.542000   -1.076000
  C     -7.651000   -5.113000    0.040000
  C     -4.324000    0.141000    0.037000
  C     -3.025000   -0.520000   -0.048000
  C     -4.422000   -3.566000    1.075000
  N     -6.407000   -4.313000    0.001000
  C     -2.867000   -1.922000   -0.040000
  C     -1.650000   -2.624000   -0.027000
  C      3.568000   -6.142000   -1.040000
  C     -1.476000   -4.049000   -0.034000
  C      2.803000   -4.099000   -0.008000
  C      3.657000   -4.384000    1.069000
  C      4.427000   -5.530000    1.059000
  C      5.245000   -7.588000    0.014000
  C     -0.134000   -4.315000   -0.022000
  C      0.568000   -3.064000   -0.027000
  C      2.775000   -5.012000   -1.074000
  N      4.376000   -6.391000    0.017000
  C      1.959000   -2.869000   -0.009000
  C      2.621000   -1.622000    0.009000
  C      5.543000    4.339000   -1.130000
  C      4.070000   -1.479000   -0.094000
  C      4.104000    2.751000   -0.021000
  C      5.027000    2.729000    1.036000
  C      6.166000    3.509000    0.978000
  C      7.619000    5.153000   -0.115000
  C      4.321000   -0.148000   -0.092000
  C      3.025000    0.514000    0.015000
  C      4.387000    3.582000   -1.115000
  C      2.866000    1.916000    0.013000
  N      6.413000    4.296000   -0.095000
  H     -4.726000    6.113000   -1.917000
  H      2.274000    4.766000    0.081000
  H     -2.496000    4.516000    2.156000
  H     -3.907000    6.567000    2.124000
  H     -6.218000    7.310000    0.459000
  H     -4.790000    8.307000    0.868000
  H     -5.239000    8.051000   -0.841000
  H     -0.332000    5.282000    0.069000
  H     -3.354000    4.042000   -2.051000
  H      0.182000    1.072000    0.005000
  H     -0.183000   -1.080000   -0.021000
  H     -5.864000   -4.962000    1.895000
  H     -4.794000    2.272000    0.139000
  H     -4.800000   -2.160000   -1.994000
  H     -6.841000   -3.582000   -1.893000
  H     -8.428000   -4.536000    0.546000
  H     -7.956000   -5.337000   -0.981000
  H     -7.456000   -6.037000    0.584000
  H     -5.287000   -0.344000    0.100000
  H     -3.780000   -3.601000    1.947000
  H      3.587000   -6.868000   -1.843000
  H     -2.276000   -4.774000   -0.050000
  H      3.714000   -3.724000    1.926000
  H      5.092000   -5.795000    1.871000
  H      6.205000   -7.329000   -0.439000
  H      5.393000   -7.917000    1.042000
  H      4.759000   -8.373000   -0.564000
  H      0.329000   -5.290000   -0.008000
  H      2.146000   -4.842000   -1.940000
  H      5.808000    4.986000   -1.956000
  H      4.788000   -2.281000   -0.185000
  H      4.860000    2.114000    1.912000
  H      6.901000    3.531000    1.772000
  H      7.383000    6.109000    0.356000
  H      8.414000    4.652000    0.435000
  H      7.921000    5.310000   -1.150000
  H      5.283000    0.336000   -0.179000
  H      3.720000    3.632000   -1.967000

----------------------------
CARTESIAN COORDINATES (A.U.)
----------------------------
  NO LB      ZA    FRAG     MASS         X           Y           Z
   0 C     6.0000    0    12.011   -7.968975   10.788446   -1.986102
   1 C     6.0000    0    12.011    2.785456    7.636383    0.107714
   2 C     6.0000    0    12.011   -5.295013    7.734649    0.092597
   3 C     6.0000    0    12.011   -5.604928    9.129267    2.328143
   4 C     6.0000    0    12.011   -7.075135   11.283555    2.335702
   5 C     6.0000    0    12.011   -9.849253   14.365698    0.285349
   6 C     6.0000    0    12.011    0.249444    8.139050    0.115273
   7 C     6.0000    0    12.011   -1.075254    5.775003    0.088817
   8 C     6.0000    0    12.011    3.116158    4.947303    0.043464
   9 C     6.0000    0    12.011   -6.525224    8.617151   -2.084368
  10 N     7.0000    0    14.007   -8.227868   12.090468    0.198421
  11 N     7.0000    0    14.007    0.733214    3.906064    0.047243
  12 N     7.0000    0    14.007   -3.798350    0.746442   -0.141729
  13 N     7.0000    0    14.007   -0.733214   -3.919292   -0.051023
  14 N     7.0000    0    14.007    3.798350   -0.757780    0.122832
  15 C     6.0000    0    12.011   -3.703863    5.406506    0.045353
  16 C     6.0000    0    12.011   -4.956752    3.051908   -0.034015
  17 C     6.0000    0    12.011  -10.531444   -8.180624    2.014448
  18 C     6.0000    0    12.011   -7.696855    2.779787    0.105825
  19 C     6.0000    0    12.011   -7.759216   -5.208085   -0.049133
  20 C     6.0000    0    12.011   -9.439182   -5.209975   -2.099486
  21 C     6.0000    0    12.011  -11.587801   -6.693410   -2.033345
  22 C     6.0000    0    12.011  -14.458295   -9.662170    0.075589
  23 C     6.0000    0    12.011   -8.171176    0.266451    0.069920
  24 C     6.0000    0    12.011   -5.716422   -0.982658   -0.090707
  25 C     6.0000    0    12.011   -8.356369   -6.738763    2.031456
  26 N     7.0000    0    14.007  -12.107475   -8.150389    0.001890
  27 C     6.0000    0    12.011   -5.417845   -3.632054   -0.075589
  28 C     6.0000    0    12.011   -3.118048   -4.958641   -0.051023
  29 C     6.0000    0    12.011    6.742543  -11.606698   -1.965315
  30 C     6.0000    0    12.011   -2.789236   -7.651501   -0.064251
  31 C     6.0000    0    12.011    5.296902   -7.745987   -0.015118
  32 C     6.0000    0    12.011    6.910728   -8.284559    2.020117
  33 C     6.0000    0    12.011    8.365818  -10.450186    2.001220
  34 C     6.0000    0    12.011    9.911614  -14.339242    0.026456
  35 C     6.0000    0    12.011   -0.253223   -8.154168   -0.041574
  36 C     6.0000    0    12.011    1.073364   -5.790121   -0.051023
  37 C     6.0000    0    12.011    5.243990   -9.471307   -2.029566
  38 N     7.0000    0    14.007    8.269442  -12.077240    0.032125
  39 C     6.0000    0    12.011    3.701973   -5.421624   -0.017008
  40 C     6.0000    0    12.011    4.952972   -3.065136    0.017008
  41 C     6.0000    0    12.011   10.474752    8.199522   -2.135391
  42 C     6.0000    0    12.011    7.691185   -2.794905   -0.177634
  43 C     6.0000    0    12.011    7.755436    5.198637   -0.039684
  44 C     6.0000    0    12.011    9.499653    5.157063    1.957756
  45 C     6.0000    0    12.011   11.652051    6.631049    1.848152
  46 C     6.0000    0    12.011   14.397823    9.737759   -0.217319
  47 C     6.0000    0    12.011    8.165507   -0.279679   -0.173855
  48 C     6.0000    0    12.011    5.716422    0.971319    0.028346
  49 C     6.0000    0    12.011    8.290229    6.768999   -2.107045
  50 C     6.0000    0    12.011    5.415955    3.620715    0.024566
  51 N     7.0000    0    14.007   12.118814    8.118263   -0.179524
  52 H     1.0000    0     1.008   -8.930846   11.551896   -3.622605
  53 H     1.0000    0     1.008    4.297237    9.006435    0.153068
  54 H     1.0000    0     1.008   -4.716756    8.534003    4.074250
  55 H     1.0000    0     1.008   -7.383160   12.409832    4.013778
  56 H     1.0000    0     1.008  -11.750317   13.813898    0.867384
  57 H     1.0000    0     1.008   -9.051788   15.697955    1.640282
  58 H     1.0000    0     1.008   -9.900275   15.214185   -1.589260
  59 H     1.0000    0     1.008   -0.627389    9.981533    0.130391
  60 H     1.0000    0     1.008   -6.338141    7.638273   -3.875828
  61 H     1.0000    0     1.008    0.343930    2.025786    0.009449
  62 H     1.0000    0     1.008   -0.345820   -2.040904   -0.039684
  63 H     1.0000    0     1.008  -11.081354   -9.376821    3.581031
  64 H     1.0000    0     1.008   -9.059347    4.293458    0.262672
  65 H     1.0000    0     1.008   -9.070685   -4.081808   -3.768114
  66 H     1.0000    0     1.008  -12.927616   -6.768999   -3.577252
  67 H     1.0000    0     1.008  -15.926612   -8.571798    1.031790
  68 H     1.0000    0     1.008  -15.034661  -10.085468   -1.853821
  69 H     1.0000    0     1.008  -14.089798  -11.408277    1.103600
  70 H     1.0000    0     1.008   -9.990982   -0.650066    0.188973
  71 H     1.0000    0     1.008   -7.143165   -6.804904    3.679297
  72 H     1.0000    0     1.008    6.778448  -12.978639   -3.482765
  73 H     1.0000    0     1.008   -4.301017   -9.021553   -0.094486
  74 H     1.0000    0     1.008    7.018443   -7.037340    3.639613
  75 H     1.0000    0     1.008    9.622485  -10.950963    3.535678
  76 H     1.0000    0     1.008   11.725751  -13.849803   -0.829590
  77 H     1.0000    0     1.008   10.191293  -14.960962    1.969095
  78 H     1.0000    0     1.008    8.993207  -15.822677   -1.065806
  79 H     1.0000    0     1.008    0.621720   -9.996651   -0.015118
  80 H     1.0000    0     1.008    4.055352   -9.150054   -3.666069
  81 H     1.0000    0     1.008   10.975529    9.422175   -3.696304
  82 H     1.0000    0     1.008    9.048009   -4.310465   -0.349599
  83 H     1.0000    0     1.008    9.184069    3.994881    3.613156
  84 H     1.0000    0     1.008   13.041000    6.672623    3.348595
  85 H     1.0000    0     1.008   13.951848   11.544337    0.672743
  86 H     1.0000    0     1.008   15.900156    8.791006    0.822031
  87 H     1.0000    0     1.008   14.968521   10.034446   -2.173185
  88 H     1.0000    0     1.008    9.983423    0.634948   -0.338261
  89 H     1.0000    0     1.008    7.029781    6.863485   -3.717091

--------------------------------
INTERNAL COORDINATES (ANGSTROEM)
--------------------------------
 C      0   0   0     0.000000000000     0.00000000     0.00000000
 C      1   0   0     6.033023205657     0.00000000     0.00000000
 C      1   2   0     2.413230407566    34.71799582     0.00000000
 C      3   1   2     1.403933402979    87.91322378    97.15009247
 C      4   3   1     1.380181147531   120.16412059     0.11442231
 C      5   4   3     2.447939950244   152.50913506     1.67287114
 C      2   1   3     1.368114030335    11.89669323   328.66763402
 C      7   2   3     1.434084376876   108.05010202     0.84668783
 C      2   1   3     1.434123425651   112.64918308    38.96827602
 C      1   2   3     1.380797233485    41.83362535   311.57099029
 N      1   2   3     1.352710612067    94.55473215    84.50727082
 N      9   2   1     1.376127174356   106.58526707   347.44733236
 N     12   9   2     2.925062050624   168.53581413   171.12065651
 N     13  12   9     2.954513327098    91.55032014    11.12112580
 N     14  13  12     2.925371258490    88.43092389   359.84326247
 C      8   7   2     1.404790019896   127.24786865   181.11170171
 C     13  12   9     1.366535034311    81.72106996   188.00453233
 C     14  13  12     5.758810554272    80.56209567   166.76250791
 C     17  13  12     1.459010623676   111.08861209   183.82872609
 C     18  14  13     2.412235892279    27.27532823    36.33507194
 C     20  18  14     1.402692767501    87.95206320   148.94598259
 C     21  20  18     1.382106725257   120.14573887   359.70382047
 C     18  14  13     2.446510985056   144.15733107    82.80075377
 C     19  17  13     1.353610726908   106.29293361   359.75308708
 C     13  12   9     1.366813447402   172.21332906    33.46711076
 C     18  14  13     1.380960173213    15.08449437   309.23336894
 N     22  21  20     1.352773077792   120.73759875     0.27865223
 C     25  13  17     1.410897586645   125.60330303   182.37774668
 C     14  13  12     1.376642291955    80.24689249   177.85461986
 C     14  13  12     5.764089607215   164.51507311   312.20821879
 C     29  14  13     1.435600919476   106.58649366   178.76395472
 C     30  14  13     2.413316804732    27.10625047    82.12560436
 C     32  30  14     1.403734305344    87.90059683   149.76154742
 C     33  32  30     1.380694028378   120.14881443   359.74174632
 C     34  33  32     2.448777858443   152.49203239     2.45173620
 C     31  29  14     1.368160809262   108.16950133     0.70383075
 C     14  13  12     1.376239804685   169.26375223   353.09862627
 C     30  14  13     1.380907310430    14.68948582   353.70041132
 N     34  33  32     1.352658863128   120.85575621     0.19603406
 C     37  14  29     1.404717053360   126.01551127   180.90772073
 C     15  14  13     1.366491126938    81.61824056   183.09049352
 C      2   1   3     4.249062720177   146.37068037   160.42849168
 C     41  15  14     1.459677704153   111.05201287   175.08990246
 C     42   2   1     2.412953791518    41.78584867   208.38866555
 C     44  42   2     1.403446472082    87.95153797   233.97558675
 C     45  44  42     1.381696421071   120.11137308     0.19721020
 C     42   2   1     2.450019795838   135.97209175   118.70351465
 C     43  41  15     1.354461516618   106.26758155     0.30894352
 C     15  14  13     1.367461151185   171.87382904   332.35056460
 C     42   2   1     1.381886391857    32.59078432   257.24394474
 C      9   2   1     1.404988612053   126.98745415   168.45166989
 N     42   2   1     1.352765315936   113.57249190   146.44010384
 H      1   2   3     1.082706331375   133.91002579   218.73682770
 H      2   1   3     1.079907866440   121.14952647   208.03059860
 H      4   3   1     1.083467119944   121.00481229   179.56113026
 H      5   4   3     1.081817452253   122.84471722   179.43446071
 H      6   5   4     1.091862628722   104.43705507   100.06495499
 H      6   5   4     1.090503553410    84.67836023   209.50018580
 H      6   5   4     1.089217150067   133.88304044   322.25806397
 H      7   2  54     1.079807853278   126.66122480     1.30600390
 H     10   1   2     1.084817496172   118.73406242   239.07198511
 H     12   9   2     1.016297692608   125.29023241   180.00180175
 H     14  13  12     1.014936943854    44.97226959   359.42596618
 H     18  14  13     1.082871645210   128.03556573   234.20482432
 H     19  17  13     1.080893611786   126.41830519   178.11313280
 H     21  20  18     1.083569563987   121.05669627   180.67006309
 H     22  21  20     1.082483256222   122.73097286   180.59748951
 H     23  18  14     1.092105306278   103.92715769   234.93429879
 H     23  18  14     1.088871893291   134.19244188    12.25587044
 H     23  18  14     1.089833473518    84.85857450   125.45241208
 H     24  19  17     1.080075460327   127.28078426   178.44613241
 H     26  18  14     1.083408048706   118.76995697   244.94906660
 H     30  14  13     1.082703098730   127.99711412   279.66882698
 H     31  29  14     1.079759695488   125.22293469   180.92530585
 H     33  32  30     1.083188810873   121.01964473   180.74284758
 H     34  33  32     1.082494341787   122.70821597   180.59516895
 H     35  34  33     1.092652735319   105.73575241    97.19771933
 H     35  34  33     1.089462711615    84.05943581   206.43036958
 H     35  34  33     1.089268102902   133.08365142   318.50306270
 H     36  31  29     1.079439669458   126.61599965   178.98859863
 H     38  30  73     1.083742127999   118.77264435   359.90091293
 H     42   2   1     1.082178358682   119.31790784     3.07163430
 H     43  41  15     1.080281907652   126.36969097   182.06329380
 H     45  44  42     1.083277434455   121.10105945   179.58025624
 H     46  45  44     1.082194529648   122.72144639   179.46906377
 H     47  42   2     1.091546151109   106.65128841   315.16475048
 H     47  42   2     1.088818625851   132.46019523    94.52397119
 H     47  42   2     1.089531091801    83.63838232   206.04504406
 H     48  43  41     1.080402239909   127.23657387   181.62955349
 H     50  42   2     1.083186502870   118.77001737    94.71359229

---------------------------
INTERNAL COORDINATES (A.U.)
---------------------------
 C      0   0   0     0.000000000000     0.00000000     0.00000000
 C      1   0   0    11.400761618284     0.00000000     0.00000000
 C      1   2   0     4.560344568350    34.71799582     0.00000000
 C      3   1   2     2.653049641894    87.91322378    97.15009247
 C      4   3   1     2.608164384035   120.16412059     0.11442231
 C      5   4   3     4.625936098246   152.50913506     1.67287114
 C      2   1   3     2.585360837309    11.89669323   328.66763402
 C      7   2   3     2.710026725231   108.05010202     0.84668783
 C      2   1   3     2.710100516721   112.64918308    38.96827602
 C      1   2   3     2.609328617763    41.83362535   311.57099029
 N      1   2   3     2.556252595257    94.55473215    84.50727082
 N      9   2   1     2.600503484979   106.58526707   347.44733236
 N     12   9   2     5.527566200405   168.53581413   171.12065651
 N     13  12   9     5.583221047236    91.55032014    11.12112580
 N     14  13  12     5.528150518591    88.43092389   359.84326247
 C      8   7   2     2.654668413270   127.24786865   181.11170171
 C     13  12   9     2.582376967257    81.72106996   188.00453233
 C     14  13  12    10.882574804710    80.56209567   166.76250791
 C     17  13  12     2.757130505230   111.08861209   183.82872609
 C     18  14  13     4.558465206823    27.27532823    36.33507194
 C     20  18  14     2.650705180609    87.95206320   148.94598259
 C     21  20  18     2.611803198586   120.14573887   359.70382047
 C     18  14  13     4.623235745386   144.15733107    82.80075377
 C     19  17  13     2.557953565794   106.29293361   359.75308708
 C     13  12   9     2.582903091751   172.21332906    33.46711076
 C     18  14  13     2.609636529225    15.08449437   309.23336894
 N     22  21  20     2.556370638369   120.73759875     0.27865223
 C     25  13  17     2.666210041769   125.60330303   182.37774668
 C     14  13  12     2.601476916169    80.24689249   177.85461986
 C     14  13  12    10.892550769017   164.51507311   312.20821879
 C     29  14  13     2.712892575415   106.58649366   178.76395472
 C     30  14  13     4.560507835333    27.10625047    82.12560436
 C     32  30  14     2.652673401891    87.90059683   149.76154742
 C     33  32  30     2.609133588376   120.14881443   359.74174632
 C     34  33  32     4.627519515267   152.49203239     2.45173620
 C     31  29  14     2.585449236669   108.16950133     0.70383075
 C     14  13  12     2.600716325456   169.26375223   353.09862627
 C     30  14  13     2.609536633043    14.68948582   353.70041132
 N     34  33  32     2.556154803934   120.85575621     0.19603406
 C     37  14  29     2.654530526499   126.01551127   180.90772073
 C     15  14  13     2.582293994346    81.61824056   183.09049352
 C      2   1   3     8.029564866989   146.37068037   160.42849168
 C     41  15  14     2.758391104639   111.05201287   175.08990246
 C     42   2   1     4.559821839776    41.78584867   208.38866555
 C     44  42   2     2.652129475853    87.95153797   233.97558675
 C     45  44  42     2.611027836043   120.11137308     0.19721020
 C     42   2   1     4.629866436820   135.97209175   118.70351465
 C     43  41  15     2.559561325344   106.26758155     0.30894352
 C     15  14  13     2.584127074516   171.87382904   332.35056460
 C     42   2   1     2.611386828803    32.59078432   257.24394474
 C      9   2   1     2.655043698059   126.98745415   168.45166989
 N     42   2   1     2.556355970587   113.57249190   146.44010384
 H      1   2   3     2.046018449762   133.91002579   218.73682770
 H      2   1   3     2.040730117440   121.14952647   208.03059860
 H      4   3   1     2.047456131803   121.00481229   179.56113026
 H      5   4   3     2.044338711655   122.84471722   179.43446071
 H      6   5   4     2.063321344148   104.43705507   100.06495499
 H      6   5   4     2.060753064013    84.67836023   209.50018580
 H      6   5   4     2.058322113997   133.88304044   322.25806397
 H      7   2  54     2.040541119952   126.66122480     1.30600390
 H     10   1   2     2.050007973050   118.73406242   239.07198511
 H     12   9   2     1.920524309565   125.29023241   180.00180175
 H     14  13  12     1.917952867083    44.97226959   359.42596618
 H     18  14  13     2.046330847636   128.03556573   234.20482432
 H     19  17  13     2.042592906181   126.41830519   178.11313280
 H     21  20  18     2.047649722989   121.05669627   180.67006309
 H     22  21  20     2.045596898814   122.73097286   180.59748951
 H     23  18  14     2.063779938267   103.92715769   234.93429879
 H     23  18  14     2.057669673245   134.19244188    12.25587044
 H     23  18  14     2.059486796529    84.85857450   125.45241208
 H     24  19  17     2.041046823986   127.28078426   178.44613241
 H     26  18  14     2.047344503340   118.76995697   244.94906660
 H     30  14  13     2.046012340948   127.99711412   279.66882698
 H     31  29  14     2.040450114918   125.22293469   180.92530585
 H     33  32  30     2.046930203877   121.01964473   180.74284758
 H     34  33  32     2.045617847496   122.70821597   180.59516895
 H     35  34  33     2.064814429233   105.73575241    97.19771933
 H     35  34  33     2.058786158072    84.05943581   206.43036958
 H     35  34  33     2.058418400901   133.08365142   318.50306270
 H     36  31  29     2.039845353366   126.61599965   178.98859863
 H     38  30  73     2.047975821711   118.77264435   359.90091293
 H     42   2   1     2.045020725966   119.31790784     3.07163430
 H     43  41  15     2.041436952892   126.36969097   182.06329380
 H     45  44  42     2.047097678177   121.10105945   179.58025624
 H     46  45  44     2.045051284662   122.72144639   179.46906377
 H     47  42   2     2.062723288131   106.65128841   315.16475048
 H     47  42   2     2.057569012371   132.46019523    94.52397119
 H     47  42   2     2.058915377895    83.63838232   206.04504406
 H     48  43  41     2.041664347903   127.23657387   181.62955349
 H     50  42   2     2.046925842384   118.77001737    94.71359229

---------------------
BASIS SET INFORMATION
---------------------
There are 3 groups of distinct atoms

 Group   1 Type C   : 17s4p1d contracted to 3s2p1d pattern {881/31/1}
 Group   2 Type N   : 17s4p1d contracted to 3s2p1d pattern {881/31/1}
 Group   3 Type H   : 4s1p contracted to 2s1p pattern {31/1}

Atom   0C    basis set group =>   1
Atom   1N    basis set group =>   2
Atom   2C    basis set group =>   1
Atom   3N    basis set group =>   2
Atom   4C    basis set group =>   1
Atom   5N    basis set group =>   2
Atom   6C    basis set group =>   1
Atom   7N    basis set group =>   2
Atom   8C    basis set group =>   1
Atom   9N    basis set group =>   2
Atom  10C    basis set group =>   1
Atom  11N    basis set group =>   2
Atom  12C    basis set group =>   1
Atom  13N    basis set group =>   2
Atom  14C    basis set group =>   1
Atom  15N    basis set group =>   2
Atom  16C    basis set group =>   1
Atom  17C    basis set group =>   1
Atom  18C    basis set group =>   1
Atom  19C    basis set group =>   1
Atom  20C    basis set group =>   1
Atom  21C    basis set group =>   1
Atom  22C    basis set group =>   1
Atom  23C    basis set group =>   1
Atom  24C    basis set group =>   1
Atom  25C    basis set group =>   1
Atom  26C    basis set group =>   1
Atom  27C    basis set group =>   1
Atom  28C    basis set group =>   1
Atom  29C    basis set group =>   1
Atom  30C    basis set group =>   1
Atom  31C    basis set group =>   1
Atom  32C    basis set group =>   1
Atom  33C    basis set group =>   1
Atom  34C    basis set group =>   1
Atom  35C    basis set group =>   1
Atom  36C    basis set group =>   1
Atom  37C    basis set group =>   1
Atom  38C    basis set group =>   1
Atom  39C    basis set group =>   1
Atom  40C    basis set group =>   1
Atom  41C    basis set group =>   1
Atom  42C    basis set group =>   1
Atom  43C    basis set group =>   1
Atom  44C    basis set group =>   1
Atom  45C    basis set group =>   1
Atom  46C    basis set group =>   1
Atom  47C    basis set group =>   1
Atom  48C    basis set group =>   1
Atom  49C    basis set group =>   1
Atom  50C    basis set group =>   1
Atom  51C    basis set group =>   1
Atom  52H    basis set group =>   3
Atom  53H    basis set group =>   3
Atom  54H    basis set group =>   3
Atom  55H    basis set group =>   3
Atom  56H    basis set group =>   3
Atom  57H    basis set group =>   3
Atom  58H    basis set group =>   3
Atom  59H    basis set group =>   3
Atom  60H    basis set group =>   3
Atom  61H    basis set group =>   3
Atom  62H    basis set group =>   3
Atom  63H    basis set group =>   3
Atom  64H    basis set group =>   3
Atom  65H    basis set group =>   3
Atom  66H    basis set group =>   3
Atom  67H    basis set group =>   3
Atom  68H    basis set group =>   3
Atom  69H    basis set group =>   3
Atom  70H    basis set group =>   3
Atom  71H    basis set group =>   3
Atom  72H    basis set group =>   3
Atom  73H    basis set group =>   3
Atom  74H    basis set group =>   3
Atom  75H    basis set group =>   3
Atom  76H    basis set group =>   3
Atom  77H    basis set group =>   3
Atom  78H    basis set group =>   3
Atom  79H    basis set group =>   3
Atom  80H    basis set group =>   3
Atom  81H    basis set group =>   3
Atom  82H    basis set group =>   3
Atom  83H    basis set group =>   3
Atom  84H    basis set group =>   3
Atom  85H    basis set group =>   3
Atom  86H    basis set group =>   3
Atom  87H    basis set group =>   3
Atom  88H    basis set group =>   3
Atom  89H    basis set group =>   3


           ************************************************************
           *        Program running with 16 parallel MPI-processes    *
           *              working on a common directory               *
           ************************************************************
------------------------------------------------------------------------------
                           ORCA GTO INTEGRAL CALCULATION
------------------------------------------------------------------------------
------------------------------------------------------------------------------
                   ___                                                        
                  /   \      - P O W E R E D   B Y -                         
                 /     \                                                     
                 |  |  |   _    _      __       _____    __    __             
                 |  |  |  | |  | |    /  \     |  _  \  |  |  /  |          
                  \  \/   | |  | |   /    \    | | | |  |  | /  /          
                 / \  \   | |__| |  /  /\  \   | |_| |  |  |/  /          
                |  |  |   |  __  | /  /__\  \  |    /   |      \           
                |  |  |   | |  | | |   __   |  |    \   |  |\   \          
                \     /   | |  | | |  |  |  |  | |\  \  |  | \   \       
                 \___/    |_|  |_| |__|  |__|  |_| \__\ |__|  \__/        
                                                                              
                      - O R C A' S   B I G   F R I E N D -                    
                                      &                                       
                       - I N T E G R A L  F E E D E R -                       
                                                                              
 v1 FN, 2020, v2 2021                                                         
------------------------------------------------------------------------------


Reading SHARK input file /scratch/allen/tmpyp4_amber_gaff2/conf1/conf1/Conf105.orca.SHARKINP.tmp ... ok
----------------------
SHARK INTEGRAL PACKAGE
----------------------

Number of atoms                             ...     90
Number of basis functions                   ...   1230
Number of shells                            ...    738
Maximum angular momentum                    ...      2
Integral batch strategy                     ... SHARK/LIBINT Hybrid
RI-J (if used) integral strategy            ... SPLIT-RIJ (Revised 2003 algorithm where possible)
Printlevel                                  ...      1
Contraction scheme used                     ... PARTIAL GENERAL contraction
Coulomb Range Separation                    ... NOT USED
Exchange Range Separation                   ... NOT USED
Finite Nucleus Model                        ... NOT USED
Auxiliary Coulomb fitting basis             ... NOT available
Auxiliary J/K fitting basis                 ... NOT available
Auxiliary Correlation fitting basis         ... NOT available
Auxiliary 'external' fitting basis          ... NOT available
Integral threshold                          ...     2.500000e-11
Primitive cut-off                           ...     2.500000e-12
Primitive pair pre-selection threshold      ...     2.500000e-12

Calculating pre-screening integrals         ... done (  0.1 sec) Dimension = 738
Calculating pre-screening integrals (ORCA)  ... done (  0.3 sec) Dimension = 426
Organizing shell pair data                  ... done (  0.5 sec)
Shell pair information
Total number of shell pairs                 ...    272691
Shell pairs after pre-screening             ...     71602
Total number of primitive shell pairs       ...    422091
Primitive shell pairs kept                  ...     92352
          la=0 lb=0:  29416 shell pairs
          la=1 lb=0:  25961 shell pairs
          la=1 lb=1:   4685 shell pairs
          la=2 lb=0:   7887 shell pairs
          la=2 lb=1:   3122 shell pairs
          la=2 lb=2:    531 shell pairs

Calculating one electron integrals          ... done (  0.2 sec)
Calculating Nuclear repulsion               ... done (  0.0 sec) ENN=   6222.424181465164 Eh

SHARK setup successfully completed in   1.7 seconds

Maximum memory used throughout the entire GTOINT-calculation: 99.0 MB


           ************************************************************
           *        Program running with 16 parallel MPI-processes    *
           *              working on a common directory               *
           ************************************************************
-------------------------------------------------------------------------------
                                 ORCA SCF
-------------------------------------------------------------------------------

------------
SCF SETTINGS
------------
Hamiltonian:
 Ab initio Hamiltonian  Method          .... Hartree-Fock(GTOs)


General Settings:
 Integral files         IntName         .... /scratch/allen/tmpyp4_amber_gaff2/conf1/conf1/Conf105.orca
 Hartree-Fock type      HFTyp           .... RHF
 Total Charge           Charge          ....    0
 Multiplicity           Mult            ....    1
 Number of Electrons    NEL             ....  358
 Basis Dimension        Dim             ....  918
 Nuclear Repulsion      ENuc            ....   6222.4241814652 Eh

Convergence Acceleration:
 DIIS                   CNVDIIS         .... on
   Start iteration      DIISMaxIt       ....    12
   Startup error        DIISStart       ....  0.200000
   # of expansion vecs  DIISMaxEq       ....     5
   Bias factor          DIISBfac        ....   1.050
   Max. coefficient     DIISMaxC        ....  10.000
 Trust-Rad. Augm. Hess. CNVTRAH         .... auto
   Auto Start mean grad. ratio tolernc. ....  1.125000
   Auto Start start iteration           ....    20
   Auto Start num. interpolation iter.  ....    10
   Max. Number of Micro iterations      ....    16
   Max. Number of Macro iterations      .... Maxiter - #DIIS iter
   Number of Davidson start vectors     ....     2
   Converg. threshold I  (grad. norm)   ....   1.000e-05
   Converg. threshold II (energy diff.) ....   1.000e-08
   Grad. Scal. Fac. for Micro threshold ....   0.100
   Minimum threshold for Micro iter.    ....   0.010
   NR start threshold (gradient norm)   ....   0.001
   Initial trust radius                 ....   0.400
   Minimum AH scaling param. (alpha)    ....   1.000
   Maximum AH scaling param. (alpha)    .... 1000.000
   Orbital update algorithm             .... Taylor
   White noise on init. David. guess    .... on
   Maximum white noise                  ....   0.010
   Quad. conv. algorithm                .... NR
 SOSCF                  CNVSOSCF        .... on
   Start iteration      SOSCFMaxIt      ....   150
   Startup grad/error   SOSCFStart      ....  0.003300
 Level Shifting         CNVShift        .... on
   Level shift para.    LevelShift      ....    0.2500
   Turn off err/grad.   ShiftErr        ....    0.0010
 Zerner damping         CNVZerner       .... off
 Static damping         CNVDamp         .... on
   Fraction old density DampFac         ....    0.7000
   Max. Damping (<1)    DampMax         ....    0.9800
   Min. Damping (>=0)   DampMin         ....    0.0000
   Turn off err/grad.   DampErr         ....    0.1000
 Fernandez-Rico         CNVRico         .... off

SCF Procedure:
 Maximum # iterations   MaxIter         ....   125
 SCF integral mode      SCFMode         .... Direct
   Integral package                     .... SHARK and LIBINT hybrid scheme
 Reset frequency        DirectResetFreq ....    20
 Integral Threshold     Thresh          ....  2.500e-11 Eh
 Primitive CutOff       TCut            ....  2.500e-12 Eh

Convergence Tolerance:
 Convergence Check Mode ConvCheckMode   .... Total+1el-Energy
 Convergence forced     ConvForced      .... 1
 Energy Change          TolE            ....  1.000e-08 Eh
 1-El. energy change                    ....  1.000e-05 Eh
 Orbital Gradient       TolG            ....  1.000e-05
 Orbital Rotation angle TolX            ....  1.000e-05
 DIIS Error             TolErr          ....  5.000e-07


Diagonalization of the overlap matrix:
Smallest eigenvalue                        ... 2.262e-04
Time for diagonalization                   ...    0.372 sec
Threshold for overlap eigenvalues          ... 1.000e-08
Number of eigenvalues below threshold      ... 0
Time for construction of square roots      ...    0.195 sec
Total time needed                          ...    0.573 sec

Time for model grid setup =    1.004 sec

------------------------------
INITIAL GUESS: MODEL POTENTIAL
------------------------------
Loading Hartree-Fock densities                     ... done
Calculating cut-offs                               ... done
Initializing the effective Hamiltonian             ... done
Setting up the integral package (SHARK)            ... done
Starting the Coulomb interaction                   ... done (   1.1 sec)
Reading the grid                                   ... done
Mapping shells                                     ... done
Starting the XC term evaluation                    ... done (   0.2 sec)
Transforming the Hamiltonian                       ... done (   0.2 sec)
Diagonalizing the Hamiltonian                      ... done (   0.3 sec)
Back transforming the eigenvectors                 ... done (   0.1 sec)
Now organizing SCF variables                       ... done
                      ------------------
                      INITIAL GUESS DONE (   2.9 sec)
                      ------------------
--------------
SCF ITERATIONS
--------------
ITER       Energy         Delta-E        Max-DP      RMS-DP      [F,P]     Damp
               ***  Starting incremental Fock matrix formation  ***
  0  -2121.6506467484   0.000000000000 0.06927084  0.00121131  0.2345141 0.7000
  1  -2122.3194103436  -0.668763595168 0.05262854  0.00098172  0.1450260 0.7000
                               ***Turning on DIIS***
  2  -2122.7351866146  -0.415776271006 0.11689408  0.00222086  0.0805274 0.0000
  3  -2117.7001578839   5.035028730685 0.03385881  0.00068695  0.0444348 0.0000
  4  -2123.4023723193  -5.702214435441 0.00895412  0.00022996  0.0071350 0.0000
  5  -2123.5827959199  -0.180423600563 0.00519272  0.00013743  0.0050480 0.0000
  6  -2123.5644572363   0.018338683562 0.00378392  0.00009182  0.0021865 0.0000
  7  -2123.6700730690  -0.105615832714 0.00330045  0.00007530  0.0016833 0.0000
  8  -2123.6967870813  -0.026714012211 0.00309567  0.00007442  0.0015702 0.0000
  9  -2123.6568440005   0.039943080785 0.00265115  0.00005313  0.0012402 0.0000
 10  -2123.6781423729  -0.021298372414 0.00666654  0.00011890  0.0009370 0.0000
                      *** Initiating the SOSCF procedure ***
                           *** Shutting down DIIS ***
                      *** Re-Reading the Fockian *** 
                      *** Removing any level shift *** 
ITER      Energy       Delta-E        Grad      Rot      Max-DP    RMS-DP
 11  -2123.52007280   0.1580695745  0.000213  0.000213  0.000259  0.000006
               *** Restarting incremental Fock matrix formation ***
 12  -2123.61443308  -0.0943602811  0.000879  0.007206  0.001658  0.000041
 13  -2123.61457869  -0.0001456090  0.001189  0.029736  0.008779  0.000152
 14  -2123.61483791  -0.0002592212  0.000356  0.005112  0.001500  0.000025
 15  -2123.61487365  -0.0000357385  0.000436  0.017036  0.003648  0.000063
 16  -2123.61492115  -0.0000475060  0.000249  0.007391  0.001377  0.000030
 17  -2123.61494066  -0.0000195094  0.000359  0.011281  0.001694  0.000036
 18  -2123.61496074  -0.0000200813  0.000241  0.007818  0.001348  0.000025
 19  -2123.61496990  -0.0000091592  0.000142  0.003398  0.000584  0.000010
 20  -2123.61497269  -0.0000027898  0.000111  0.002356  0.000404  0.000008
 21  -2123.61497491  -0.0000022153  0.000074  0.002688  0.000429  0.000010
 22  -2123.61497654  -0.0000016318  0.000052  0.001913  0.000335  0.000007
 23  -2123.61497732  -0.0000007785  0.000049  0.001381  0.000255  0.000005
 24  -2123.61497773  -0.0000004116  0.000021  0.000556  0.000136  0.000003
 25  -2123.61497791  -0.0000001794  0.000020  0.000556  0.000114  0.000002
 26  -2123.61497802  -0.0000001058  0.000018  0.000703  0.000138  0.000002
 27  -2123.61497810  -0.0000000834  0.000016  0.000514  0.000099  0.000002
 28  -2123.61497815  -0.0000000467  0.000010  0.000304  0.000053  0.000001
 29  -2123.61497818  -0.0000000293  0.000006  0.000099  0.000021  0.000000
 30  -2123.61497819  -0.0000000118  0.000003  0.000040  0.000012  0.000000
 31  -2123.61497819  -0.0000000034  0.000003  0.000044  0.000016  0.000000
               *** Restarting incremental Fock matrix formation ***
                  ***Gradient check signals convergence***
              ***Rediagonalizing the Fockian in SOSCF/NRSCF***

               *****************************************************
               *                     SUCCESS                       *
               *           SCF CONVERGED AFTER  32 CYCLES          *
               *****************************************************


----------------
TOTAL SCF ENERGY
----------------

Total Energy       :        -2123.61497819 Eh          -57786.50137 eV

Components:
Nuclear Repulsion  :         6222.42418147 Eh          169320.77008 eV
Electronic Energy  :        -8346.03915966 Eh         -227107.27144 eV
One Electron Energy:       -15286.28164285 Eh         -415960.87054 eV
Two Electron Energy:         6940.24248319 Eh          188853.59910 eV

Virial components:
Potential Energy   :        -4245.59676231 Eh         -115528.56126 eV
Kinetic Energy     :         2121.98178411 Eh           57742.05990 eV
Virial Ratio       :            2.00076966


---------------
SCF CONVERGENCE
---------------

  Last Energy change         ...   -2.8722e-09  Tolerance :   1.0000e-08
  Last MAX-Density change    ...    1.3051e-05  Tolerance :   1.0000e-07
  Last RMS-Density change    ...    1.7354e-07  Tolerance :   5.0000e-09
  Last Orbital Gradient      ...    1.3969e-06  Tolerance :   1.0000e-05
  Last Orbital Rotation      ...    3.6528e-05  Tolerance :   1.0000e-05

             **** THE GBW FILE WAS UPDATED (/scratch/allen/tmpyp4_amber_gaff2/conf1/conf1/Conf105.orca.gbw) ****
             **** DENSITY /scratch/allen/tmpyp4_amber_gaff2/conf1/conf1/Conf105.orca.scfp WAS UPDATED ****
             **** ENERGY FILE WAS UPDATED (/scratch/allen/tmpyp4_amber_gaff2/conf1/conf1/Conf105.orca.en.tmp) ****
             **** THE GBW FILE WAS UPDATED (/scratch/allen/tmpyp4_amber_gaff2/conf1/conf1/Conf105.orca.gbw) ****
             **** DENSITY /scratch/allen/tmpyp4_amber_gaff2/conf1/conf1/Conf105.orca.scfp WAS UPDATED ****
----------------
ORBITAL ENERGIES
----------------

  NO   OCC          E(Eh)            E(eV) 
   0   2.0000     -15.679446      -426.6594 
   1   2.0000     -15.636430      -425.4889 
   2   2.0000     -15.623545      -425.1383 
   3   2.0000     -15.599044      -424.4716 
   4   2.0000     -15.517797      -422.2607 
   5   2.0000     -15.509883      -422.0454 
   6   2.0000     -15.448351      -420.3710 
   7   2.0000     -15.432833      -419.9487 
   8   2.0000     -11.326824      -308.2185 
   9   2.0000     -11.326564      -308.2115 
  10   2.0000     -11.325545      -308.1837 
  11   2.0000     -11.300988      -307.5155 
  12   2.0000     -11.295165      -307.3571 
  13   2.0000     -11.292598      -307.2872 
  14   2.0000     -11.288991      -307.1891 
  15   2.0000     -11.283736      -307.0461 
  16   2.0000     -11.278041      -306.8911 
  17   2.0000     -11.277790      -306.8843 
  18   2.0000     -11.277439      -306.8747 
  19   2.0000     -11.262227      -306.4608 
  20   2.0000     -11.261379      -306.4377 
  21   2.0000     -11.261134      -306.4310 
  22   2.0000     -11.258702      -306.3649 
  23   2.0000     -11.239825      -305.8512 
  24   2.0000     -11.232232      -305.6446 
  25   2.0000     -11.231398      -305.6219 
  26   2.0000     -11.227718      -305.5217 
  27   2.0000     -11.222315      -305.3747 
  28   2.0000     -11.222146      -305.3701 
  29   2.0000     -11.205602      -304.9199 
  30   2.0000     -11.204620      -304.8932 
  31   2.0000     -11.203797      -304.8708 
  32   2.0000     -11.202994      -304.8490 
  33   2.0000     -11.202829      -304.8445 
  34   2.0000     -11.187896      -304.4381 
  35   2.0000     -11.187796      -304.4354 
  36   2.0000     -11.184859      -304.3555 
  37   2.0000     -11.184523      -304.3464 
  38   2.0000     -11.182688      -304.2964 
  39   2.0000     -11.168432      -303.9085 
  40   2.0000     -11.166946      -303.8680 
  41   2.0000     -11.162195      -303.7388 
  42   2.0000     -11.159151      -303.6559 
  43   2.0000     -11.158475      -303.6376 
  44   2.0000     -11.154051      -303.5172 
  45   2.0000     -11.153926      -303.5137 
  46   2.0000     -11.153465      -303.5012 
  47   2.0000     -11.150004      -303.4070 
  48   2.0000     -11.148514      -303.3665 
  49   2.0000     -11.141776      -303.1832 
  50   2.0000     -11.125351      -302.7362 
  51   2.0000     -11.122196      -302.6503 
  52   2.0000      -1.358710       -36.9724 
  53   2.0000      -1.323365       -36.0106 
  54   2.0000      -1.311872       -35.6979 
  55   2.0000      -1.291212       -35.1357 
  56   2.0000      -1.218907       -33.1681 
  57   2.0000      -1.206721       -32.8365 
  58   2.0000      -1.169456       -31.8225 
  59   2.0000      -1.144627       -31.1469 
  60   2.0000      -1.140515       -31.0350 
  61   2.0000      -1.111421       -30.2433 
  62   2.0000      -1.101200       -29.9652 
  63   2.0000      -1.082957       -29.4688 
  64   2.0000      -1.079990       -29.3880 
  65   2.0000      -1.047295       -28.4983 
  66   2.0000      -1.037392       -28.2289 
  67   2.0000      -1.036490       -28.2043 
  68   2.0000      -1.017364       -27.6839 
  69   2.0000      -1.013823       -27.5875 
  70   2.0000      -1.005434       -27.3592 
  71   2.0000      -0.989020       -26.9126 
  72   2.0000      -0.984554       -26.7911 
  73   2.0000      -0.977187       -26.5906 
  74   2.0000      -0.969543       -26.3826 
  75   2.0000      -0.959672       -26.1140 
  76   2.0000      -0.951273       -25.8855 
  77   2.0000      -0.945221       -25.7208 
  78   2.0000      -0.926853       -25.2210 
  79   2.0000      -0.918910       -25.0048 
  80   2.0000      -0.906582       -24.6693 
  81   2.0000      -0.888758       -24.1843 
  82   2.0000      -0.875072       -23.8119 
  83   2.0000      -0.869789       -23.6682 
  84   2.0000      -0.863664       -23.5015 
  85   2.0000      -0.852249       -23.1909 
  86   2.0000      -0.844015       -22.9668 
  87   2.0000      -0.831791       -22.6342 
  88   2.0000      -0.822384       -22.3782 
  89   2.0000      -0.796202       -21.6658 
  90   2.0000      -0.792393       -21.5621 
  91   2.0000      -0.750838       -20.4314 
  92   2.0000      -0.733786       -19.9673 
  93   2.0000      -0.726884       -19.7795 
  94   2.0000      -0.722075       -19.6486 
  95   2.0000      -0.716142       -19.4872 
  96   2.0000      -0.712230       -19.3808 
  97   2.0000      -0.708067       -19.2675 
  98   2.0000      -0.699841       -19.0436 
  99   2.0000      -0.694805       -18.9066 
 100   2.0000      -0.694049       -18.8860 
 101   2.0000      -0.683201       -18.5909 
 102   2.0000      -0.682260       -18.5652 
 103   2.0000      -0.677905       -18.4467 
 104   2.0000      -0.672473       -18.2989 
 105   2.0000      -0.668558       -18.1924 
 106   2.0000      -0.666007       -18.1230 
 107   2.0000      -0.656288       -17.8585 
 108   2.0000      -0.654252       -17.8031 
 109   2.0000      -0.651265       -17.7218 
 110   2.0000      -0.647684       -17.6244 
 111   2.0000      -0.645803       -17.5732 
 112   2.0000      -0.644108       -17.5271 
 113   2.0000      -0.639242       -17.3947 
 114   2.0000      -0.634129       -17.2555 
 115   2.0000      -0.628789       -17.1102 
 116   2.0000      -0.622553       -16.9405 
 117   2.0000      -0.616278       -16.7698 
 118   2.0000      -0.613949       -16.7064 
 119   2.0000      -0.610877       -16.6228 
 120   2.0000      -0.608338       -16.5537 
 121   2.0000      -0.604362       -16.4455 
 122   2.0000      -0.594859       -16.1869 
 123   2.0000      -0.588976       -16.0268 
 124   2.0000      -0.586467       -15.9586 
 125   2.0000      -0.582883       -15.8610 
 126   2.0000      -0.575518       -15.6606 
 127   2.0000      -0.573304       -15.6004 
 128   2.0000      -0.568989       -15.4830 
 129   2.0000      -0.559749       -15.2316 
 130   2.0000      -0.556618       -15.1463 
 131   2.0000      -0.546998       -14.8846 
 132   2.0000      -0.543801       -14.7976 
 133   2.0000      -0.539010       -14.6672 
 134   2.0000      -0.534571       -14.5464 
 135   2.0000      -0.531332       -14.4583 
 136   2.0000      -0.521085       -14.1794 
 137   2.0000      -0.518972       -14.1220 
 138   2.0000      -0.514895       -14.0110 
 139   2.0000      -0.512181       -13.9371 
 140   2.0000      -0.510023       -13.8784 
 141   2.0000      -0.508293       -13.8314 
 142   2.0000      -0.501921       -13.6580 
 143   2.0000      -0.500112       -13.6087 
 144   2.0000      -0.495754       -13.4902 
 145   2.0000      -0.494940       -13.4680 
 146   2.0000      -0.493466       -13.4279 
 147   2.0000      -0.484692       -13.1891 
 148   2.0000      -0.481969       -13.1151 
 149   2.0000      -0.464277       -12.6336 
 150   2.0000      -0.462707       -12.5909 
 151   2.0000      -0.456068       -12.4102 
 152   2.0000      -0.449797       -12.2396 
 153   2.0000      -0.442182       -12.0324 
 154   2.0000      -0.438957       -11.9446 
 155   2.0000      -0.437456       -11.9038 
 156   2.0000      -0.427080       -11.6214 
 157   2.0000      -0.419995       -11.4286 
 158   2.0000      -0.400485       -10.8978 
 159   2.0000      -0.385854       -10.4996 
 160   2.0000      -0.384269       -10.4565 
 161   2.0000      -0.372272       -10.1300 
 162   2.0000      -0.360676        -9.8145 
 163   2.0000      -0.358056        -9.7432 
 164   2.0000      -0.348836        -9.4923 
 165   2.0000      -0.339135        -9.2283 
 166   2.0000      -0.337209        -9.1759 
 167   2.0000      -0.332498        -9.0477 
 168   2.0000      -0.318479        -8.6662 
 169   2.0000      -0.299425        -8.1478 
 170   2.0000      -0.297754        -8.1023 
 171   2.0000      -0.285187        -7.7603 
 172   2.0000      -0.282614        -7.6903 
 173   2.0000      -0.261636        -7.1195 
 174   2.0000      -0.236775        -6.4430 
 175   2.0000      -0.185111        -5.0371 
 176   2.0000      -0.174874        -4.7586 
 177   2.0000      -0.062379        -1.6974 
 178   2.0000      -0.051818        -1.4100 
 179   0.0000       0.033726         0.9177 
 180   0.0000       0.062974         1.7136 
 181   0.0000       0.091239         2.4827 
 182   0.0000       0.096845         2.6353 
 183   0.0000       0.109208         2.9717 
 184   0.0000       0.136192         3.7060 
 185   0.0000       0.142536         3.8786 
 186   0.0000       0.145847         3.9687 
 187   0.0000       0.161723         4.4007 
 188   0.0000       0.163646         4.4530 
 189   0.0000       0.164514         4.4766 
 190   0.0000       0.170801         4.6477 
 191   0.0000       0.181728         4.9451 
 192   0.0000       0.183677         4.9981 
 193   0.0000       0.185577         5.0498 
 194   0.0000       0.202658         5.5146 
 195   0.0000       0.207929         5.6580 
 196   0.0000       0.210542         5.7291 
 197   0.0000       0.214866         5.8468 
 198   0.0000       0.218245         5.9388 
 199   0.0000       0.224289         6.1032 
 200   0.0000       0.227475         6.1899 
 201   0.0000       0.235580         6.4105 
 202   0.0000       0.238141         6.4801 
 203   0.0000       0.244051         6.6410 
 204   0.0000       0.246787         6.7154 
 205   0.0000       0.254893         6.9360 
 206   0.0000       0.255656         6.9568 
 207   0.0000       0.256963         6.9923 
 208   0.0000       0.260577         7.0907 
 209   0.0000       0.263234         7.1629 
 210   0.0000       0.265447         7.2232 
 211   0.0000       0.266770         7.2592 
 212   0.0000       0.268572         7.3082 
 213   0.0000       0.272761         7.4222 
 214   0.0000       0.275311         7.4916 
 215   0.0000       0.276463         7.5230 
 216   0.0000       0.280161         7.6236 
 217   0.0000       0.284562         7.7433 
 218   0.0000       0.286779         7.8036 
 219   0.0000       0.287832         7.8323 
 220   0.0000       0.291988         7.9454 
 221   0.0000       0.294167         8.0047 
 222   0.0000       0.296315         8.0632 
 223   0.0000       0.296805         8.0765 
 224   0.0000       0.297401         8.0927 
 225   0.0000       0.303139         8.2488 
 226   0.0000       0.304285         8.2800 
 227   0.0000       0.306036         8.3277 
 228   0.0000       0.309810         8.4304 
 229   0.0000       0.313814         8.5393 
 230   0.0000       0.318717         8.6727 
 231   0.0000       0.322534         8.7766 
 232   0.0000       0.324374         8.8267 
 233   0.0000       0.330552         8.9948 
 234   0.0000       0.335032         9.1167 
 235   0.0000       0.348052         9.4710 
 236   0.0000       0.358480         9.7547 
 237   0.0000       0.371002        10.0955 
 238   0.0000       0.394279        10.7289 
 239   0.0000       0.395874        10.7723 
 240   0.0000       0.403912        10.9910 
 241   0.0000       0.409568        11.1449 
 242   0.0000       0.412729        11.2309 
 243   0.0000       0.417067        11.3490 
 244   0.0000       0.423508        11.5242 
 245   0.0000       0.431620        11.7450 
 246   0.0000       0.434472        11.8226 
 247   0.0000       0.439044        11.9470 
 248   0.0000       0.442243        12.0340 
 249   0.0000       0.446359        12.1460 
 250   0.0000       0.448191        12.1959 
 251   0.0000       0.455358        12.3909 
 252   0.0000       0.458510        12.4767 
 253   0.0000       0.464445        12.6382 
 254   0.0000       0.469859        12.7855 
 255   0.0000       0.477196        12.9852 
 256   0.0000       0.479916        13.0592 
 257   0.0000       0.485642        13.2150 
 258   0.0000       0.487486        13.2652 
 259   0.0000       0.495318        13.4783 
 260   0.0000       0.500160        13.6100 
 261   0.0000       0.503713        13.7067 
 262   0.0000       0.506300        13.7771 
 263   0.0000       0.506783        13.7903 
 264   0.0000       0.513233        13.9658 
 265   0.0000       0.517274        14.0758 
 266   0.0000       0.522792        14.2259 
 267   0.0000       0.527460        14.3529 
 268   0.0000       0.529165        14.3993 
 269   0.0000       0.536323        14.5941 
 270   0.0000       0.543405        14.7868 
 271   0.0000       0.545011        14.8305 
 272   0.0000       0.546391        14.8680 
 273   0.0000       0.554757        15.0957 
 274   0.0000       0.563197        15.3254 
 275   0.0000       0.565618        15.3912 
 276   0.0000       0.567907        15.4535 
 277   0.0000       0.569923        15.5084 
 278   0.0000       0.578127        15.7316 
 279   0.0000       0.580911        15.8074 
 280   0.0000       0.588017        16.0007 
 281   0.0000       0.591398        16.0928 
 282   0.0000       0.592971        16.1355 
 283   0.0000       0.597629        16.2623 
 284   0.0000       0.600675        16.3452 
 285   0.0000       0.601947        16.3798 
 286   0.0000       0.607777        16.5385 
 287   0.0000       0.614583        16.7237 
 288   0.0000       0.615387        16.7455 
 289   0.0000       0.618196        16.8220 
 290   0.0000       0.622932        16.9508 
 291   0.0000       0.625017        17.0076 
 292   0.0000       0.629470        17.1287 
 293   0.0000       0.634140        17.2558 
 294   0.0000       0.644273        17.5316 
 295   0.0000       0.648656        17.6508 
 296   0.0000       0.654722        17.8159 
 297   0.0000       0.659622        17.9492 
 298   0.0000       0.663794        18.0627 
 299   0.0000       0.665473        18.1085 
 300   0.0000       0.670942        18.2573 
 301   0.0000       0.672929        18.3113 
 302   0.0000       0.675347        18.3771 
 303   0.0000       0.677474        18.4350 
 304   0.0000       0.682895        18.5825 
 305   0.0000       0.684472        18.6254 
 306   0.0000       0.686006        18.6672 
 307   0.0000       0.687477        18.7072 
 308   0.0000       0.689808        18.7706 
 309   0.0000       0.694897        18.9091 
 310   0.0000       0.700058        19.0496 
 311   0.0000       0.702652        19.1201 
 312   0.0000       0.709840        19.3157 
 313   0.0000       0.710694        19.3390 
 314   0.0000       0.711295        19.3553 
 315   0.0000       0.714204        19.4345 
 316   0.0000       0.716159        19.4877 
 317   0.0000       0.718505        19.5515 
 318   0.0000       0.721733        19.6394 
 319   0.0000       0.722848        19.6697 
 320   0.0000       0.725066        19.7301 
 321   0.0000       0.729593        19.8532 
 322   0.0000       0.730359        19.8741 
 323   0.0000       0.732869        19.9424 
 324   0.0000       0.737791        20.0763 
 325   0.0000       0.739913        20.1341 
 326   0.0000       0.741598        20.1799 
 327   0.0000       0.742197        20.1962 
 328   0.0000       0.749809        20.4033 
 329   0.0000       0.752278        20.4705 
 330   0.0000       0.755452        20.5569 
 331   0.0000       0.757235        20.6054 
 332   0.0000       0.759162        20.6579 
 333   0.0000       0.761934        20.7333 
 334   0.0000       0.765545        20.8316 
 335   0.0000       0.769341        20.9348 
 336   0.0000       0.775228        21.0950 
 337   0.0000       0.779451        21.2099 
 338   0.0000       0.783868        21.3301 
 339   0.0000       0.786144        21.3921 
 340   0.0000       0.787076        21.4174 
 341   0.0000       0.792366        21.5614 
 342   0.0000       0.795184        21.6381 
 343   0.0000       0.798033        21.7156 
 344   0.0000       0.801057        21.7979 
 345   0.0000       0.805499        21.9187 
 346   0.0000       0.810272        22.0486 
 347   0.0000       0.811282        22.0761 
 348   0.0000       0.813743        22.1431 
 349   0.0000       0.815355        22.1869 
 350   0.0000       0.818086        22.2612 
 351   0.0000       0.819899        22.3106 
 352   0.0000       0.822812        22.3899 
 353   0.0000       0.823689        22.4137 
 354   0.0000       0.825998        22.4765 
 355   0.0000       0.828085        22.5333 
 356   0.0000       0.833049        22.6684 
 357   0.0000       0.835339        22.7307 
 358   0.0000       0.837338        22.7851 
 359   0.0000       0.837924        22.8011 
 360   0.0000       0.841490        22.8981 
 361   0.0000       0.843735        22.9592 
 362   0.0000       0.846176        23.0256 
 363   0.0000       0.848438        23.0872 
 364   0.0000       0.851318        23.1655 
 365   0.0000       0.852329        23.1931 
 366   0.0000       0.856025        23.2936 
 367   0.0000       0.858807        23.3693 
 368   0.0000       0.861052        23.4304 
 369   0.0000       0.864132        23.5142 
 370   0.0000       0.865855        23.5611 
 371   0.0000       0.867484        23.6054 
 372   0.0000       0.872993        23.7554 
 373   0.0000       0.874946        23.8085 
 374   0.0000       0.877576        23.8801 
 375   0.0000       0.880981        23.9727 
 376   0.0000       0.884518        24.0690 
 377   0.0000       0.887862        24.1599 
 378   0.0000       0.889120        24.1942 
 379   0.0000       0.890551        24.2331 
 380   0.0000       0.894257        24.3340 
 381   0.0000       0.898338        24.4450 
 382   0.0000       0.900249        24.4970 
 383   0.0000       0.903414        24.5831 
 384   0.0000       0.905270        24.6337 
 385   0.0000       0.906019        24.6540 
 386   0.0000       0.908382        24.7183 
 387   0.0000       0.912190        24.8220 
 388   0.0000       0.914860        24.8946 
 389   0.0000       0.917250        24.9596 
 390   0.0000       0.921066        25.0635 
 391   0.0000       0.921969        25.0881 
 392   0.0000       0.924168        25.1479 
 393   0.0000       0.925479        25.1836 
 394   0.0000       0.929190        25.2846 
 395   0.0000       0.931387        25.3443 
 396   0.0000       0.933064        25.3900 
 397   0.0000       0.934553        25.4305 
 398   0.0000       0.939354        25.5611 
 399   0.0000       0.941572        25.6215 
 400   0.0000       0.945036        25.7157 
 401   0.0000       0.949473        25.8365 
 402   0.0000       0.952934        25.9306 
 403   0.0000       0.956483        26.0272 
 404   0.0000       0.957236        26.0477 
 405   0.0000       0.959421        26.1072 
 406   0.0000       0.959731        26.1156 
 407   0.0000       0.964084        26.2341 
 408   0.0000       0.964739        26.2519 
 409   0.0000       0.966456        26.2986 
 410   0.0000       0.975788        26.5525 
 411   0.0000       0.981196        26.6997 
 412   0.0000       0.985112        26.8062 
 413   0.0000       0.988020        26.8854 
 414   0.0000       0.994251        27.0549 
 415   0.0000       0.994848        27.0712 
 416   0.0000       1.002205        27.2714 
 417   0.0000       1.005561        27.3627 
 418   0.0000       1.008449        27.4413 
 419   0.0000       1.017524        27.6882 
 420   0.0000       1.022893        27.8343 
 421   0.0000       1.028364        27.9832 
 422   0.0000       1.033861        28.1328 
 423   0.0000       1.036069        28.1929 
 424   0.0000       1.042752        28.3747 
 425   0.0000       1.048582        28.5334 
 426   0.0000       1.053071        28.6555 
 427   0.0000       1.060300        28.8522 
 428   0.0000       1.068298        29.0699 
 429   0.0000       1.070581        29.1320 
 430   0.0000       1.080720        29.4079 
 431   0.0000       1.083920        29.4950 
 432   0.0000       1.086871        29.5753 
 433   0.0000       1.090508        29.6742 
 434   0.0000       1.094676        29.7877 
 435   0.0000       1.100425        29.9441 
 436   0.0000       1.105577        30.0843 
 437   0.0000       1.111516        30.2459 
 438   0.0000       1.114856        30.3368 
 439   0.0000       1.115989        30.3676 
 440   0.0000       1.119068        30.4514 
 441   0.0000       1.121727        30.5238 
 442   0.0000       1.126877        30.6639 
 443   0.0000       1.129345        30.7310 
 444   0.0000       1.134575        30.8734 
 445   0.0000       1.135578        30.9007 
 446   0.0000       1.139109        30.9967 
 447   0.0000       1.142125        31.0788 
 448   0.0000       1.144823        31.1522 
 449   0.0000       1.149407        31.2770 
 450   0.0000       1.154282        31.4096 
 451   0.0000       1.156524        31.4706 
 452   0.0000       1.158452        31.5231 
 453   0.0000       1.159650        31.5557 
 454   0.0000       1.162666        31.6377 
 455   0.0000       1.168304        31.7912 
 456   0.0000       1.169807        31.8321 
 457   0.0000       1.176244        32.0072 
 458   0.0000       1.179205        32.0878 
 459   0.0000       1.187494        32.3134 
 460   0.0000       1.188831        32.3497 
 461   0.0000       1.191650        32.4264 
 462   0.0000       1.202339        32.7173 
 463   0.0000       1.207204        32.8497 
 464   0.0000       1.208770        32.8923 
 465   0.0000       1.210587        32.9417 
 466   0.0000       1.212264        32.9874 
 467   0.0000       1.216043        33.0902 
 468   0.0000       1.224981        33.3334 
 469   0.0000       1.226177        33.3660 
 470   0.0000       1.227783        33.4097 
 471   0.0000       1.231416        33.5085 
 472   0.0000       1.237685        33.6791 
 473   0.0000       1.241497        33.7829 
 474   0.0000       1.243918        33.8487 
 475   0.0000       1.246083        33.9076 
 476   0.0000       1.247514        33.9466 
 477   0.0000       1.248383        33.9702 
 478   0.0000       1.255093        34.1528 
 479   0.0000       1.256104        34.1803 
 480   0.0000       1.259594        34.2753 
 481   0.0000       1.262161        34.3452 
 482   0.0000       1.264568        34.4107 
 483   0.0000       1.269154        34.5354 
 484   0.0000       1.272870        34.6366 
 485   0.0000       1.277393        34.7596 
 486   0.0000       1.279183        34.8083 
 487   0.0000       1.284497        34.9529 
 488   0.0000       1.289153        35.0796 
 489   0.0000       1.292254        35.1640 
 490   0.0000       1.296000        35.2660 
 491   0.0000       1.298719        35.3399 
 492   0.0000       1.303791        35.4780 
 493   0.0000       1.309574        35.6353 
 494   0.0000       1.309997        35.6468 
 495   0.0000       1.313162        35.7329 
 496   0.0000       1.316990        35.8371 
 497   0.0000       1.319450        35.9041 
 498   0.0000       1.331174        36.2231 
 499   0.0000       1.331711        36.2377 
 500   0.0000       1.334660        36.3179 
 501   0.0000       1.335555        36.3423 
[...]
      pz      :     0.021822  p :     0.079355
      px      :     0.042979
      py      :     0.014554
 77 H s       :     0.893781  s :     0.893781
      pz      :     0.047264  p :     0.078490
      px      :     0.015005
      py      :     0.016222
 78 H s       :     0.894206  s :     0.894206
      pz      :     0.025517  p :     0.078406
      px      :     0.020665
      py      :     0.032224
 79 H s       :     0.907550  s :     0.907550
      pz      :     0.022439  p :     0.087111
      px      :     0.021867
      py      :     0.042805
 80 H s       :     0.877304  s :     0.877304
      pz      :     0.038350  p :     0.083440
      px      :     0.029606
      py      :     0.015484
 81 H s       :     0.888063  s :     0.888063
      pz      :     0.037629  p :     0.083468
      px      :     0.016086
      py      :     0.029754
 82 H s       :     0.914593  s :     0.914593
      pz      :     0.022387  p :     0.087053
      px      :     0.031035
      py      :     0.033631
 83 H s       :     0.872200  s :     0.872200
      pz      :     0.039204  p :     0.083766
      px      :     0.015243
      py      :     0.029319
 84 H s       :     0.888109  s :     0.888109
      pz      :     0.035809  p :     0.084188
      px      :     0.031769
      py      :     0.016610
 85 H s       :     0.895170  s :     0.895170
      pz      :     0.022508  p :     0.079644
      px      :     0.014128
      py      :     0.043009
 86 H s       :     0.890652  s :     0.890652
      pz      :     0.024710  p :     0.078889
      px      :     0.033000
      py      :     0.021178
 87 H s       :     0.890817  s :     0.890817
      pz      :     0.047868  p :     0.078634
      px      :     0.015642
      py      :     0.015124
 88 H s       :     0.917304  s :     0.917304
      pz      :     0.022470  p :     0.086882
      px      :     0.042095
      py      :     0.022317
 89 H s       :     0.874014  s :     0.874014
      pz      :     0.037852  p :     0.084006
      px      :     0.030496
      py      :     0.015658


                      *****************************
                      * MAYER POPULATION ANALYSIS *
                      *****************************

  NA   - Mulliken gross atomic population
  ZA   - Total nuclear charge
  QA   - Mulliken gross atomic charge
  VA   - Mayer's total valence
  BVA  - Mayer's bonded valence
  FA   - Mayer's free valence

  ATOM       NA         ZA         QA         VA         BVA        FA
  0 C      5.7762     6.0000     0.2238     3.8125     3.8125    -0.0000
  1 N      7.4257     7.0000    -0.4257     3.4337     3.4337    -0.0000
  2 C      6.0676     6.0000    -0.0676     3.9178     3.9178     0.0000
  3 N      7.3419     7.0000    -0.3419     3.4296     3.4296     0.0000
  4 C      6.0828     6.0000    -0.0828     3.9728     3.9728    -0.0000
  5 N      7.5643     7.0000    -0.5643     3.0738     3.0738     0.0000
  6 C      6.0321     6.0000    -0.0321     3.9727     3.9727    -0.0000
  7 N      7.3373     7.0000    -0.3373     3.4440     3.4440    -0.0000
  8 C      5.7792     6.0000     0.2208     3.8123     3.8123    -0.0000
  9 N      7.5650     7.0000    -0.5650     3.0898     3.0898    -0.0000
 10 C      5.8917     6.0000     0.1083     3.8739     3.8739    -0.0000
 11 N      7.4382     7.0000    -0.4382     3.3810     3.3810    -0.0000
 12 C      6.0600     6.0000    -0.0600     3.9124     3.9124     0.0000
 13 N      7.4474     7.0000    -0.4474     3.3383     3.3383     0.0000
 14 C      5.7763     6.0000     0.2237     3.8054     3.8054     0.0000
 15 N      7.4411     7.0000    -0.4411     3.3675     3.3675    -0.0000
 16 C      5.7503     6.0000     0.2497     3.8016     3.8016    -0.0000
 17 C      6.0381     6.0000    -0.0381     3.9756     3.9756    -0.0000
 18 C      6.1793     6.0000    -0.1793     3.7009     3.7009     0.0000
 19 C      5.7737     6.0000     0.2263     3.8976     3.8976    -0.0000
 20 C      5.8034     6.0000     0.1966     3.8220     3.8220    -0.0000
 21 C      6.0668     6.0000    -0.0668     3.8961     3.8961     0.0000
 22 C      6.0871     6.0000    -0.0871     3.9848     3.9848    -0.0000
 23 C      6.0610     6.0000    -0.0610     3.9881     3.9881    -0.0000
 24 C      5.7844     6.0000     0.2156     3.8274     3.8274    -0.0000
 25 C      5.8859     6.0000     0.1141     3.8911     3.8911     0.0000
 26 C      6.0701     6.0000    -0.0701     3.9051     3.9051    -0.0000
 27 C      5.7609     6.0000     0.2391     3.8979     3.8979    -0.0000
 28 C      6.0434     6.0000    -0.0434     3.9891     3.9891     0.0000
 29 C      6.1926     6.0000    -0.1926     3.7288     3.7288    -0.0000
 30 C      5.7743     6.0000     0.2257     3.7839     3.7839    -0.0000
 31 C      5.8044     6.0000     0.1956     3.8320     3.8320     0.0000
 32 C      6.0650     6.0000    -0.0650     3.9144     3.9144    -0.0000
 33 C      6.0960     6.0000    -0.0960     3.9858     3.9858    -0.0000
 34 C      6.0499     6.0000    -0.0499     3.9973     3.9973     0.0000
 35 C      5.8137     6.0000     0.1863     3.8286     3.8286     0.0000
 36 C      5.8812     6.0000     0.1188     3.9044     3.9044    -0.0000
 37 C      6.0690     6.0000    -0.0690     3.9156     3.9156    -0.0000
 38 C      5.7575     6.0000     0.2425     3.7969     3.7969     0.0000
 39 C      6.0645     6.0000    -0.0645     3.9966     3.9966     0.0000
 40 C      6.1988     6.0000    -0.1988     3.7494     3.7494    -0.0000
 41 C      5.7831     6.0000     0.2169     3.8760     3.8760     0.0000
 42 C      5.7905     6.0000     0.2095     3.8306     3.8306     0.0000
 43 C      6.0761     6.0000    -0.0761     3.9049     3.9049    -0.0000
 44 C      6.0899     6.0000    -0.0899     3.9845     3.9845    -0.0000
 45 C      6.0432     6.0000    -0.0432     3.9945     3.9945     0.0000
 46 C      5.8085     6.0000     0.1915     3.8220     3.8220     0.0000
 47 C      5.8838     6.0000     0.1162     3.8957     3.8957     0.0000
 48 C      6.0806     6.0000    -0.0806     3.8990     3.8990    -0.0000
 49 C      5.7862     6.0000     0.2138     3.8711     3.8711     0.0000
 50 C      6.0619     6.0000    -0.0619     3.9899     3.9899     0.0000
 51 C      6.1902     6.0000    -0.1902     3.7389     3.7389    -0.0000
 52 H      0.9289     1.0000     0.0711     0.9836     0.9836    -0.0000
 53 H      1.0101     1.0000    -0.0101     1.0012     1.0012     0.0000
 54 H      0.9414     1.0000     0.0586     1.0054     1.0054    -0.0000
 55 H      0.9301     1.0000     0.0699     0.9842     0.9842    -0.0000
 56 H      0.9253     1.0000     0.0747     0.9726     0.9726    -0.0000
 57 H      0.9313     1.0000     0.0687     0.9840     0.9840    -0.0000
 58 H      0.9329     1.0000     0.0671     0.9869     0.9869     0.0000
 59 H      1.0238     1.0000    -0.0238     0.9966     0.9966    -0.0000
 60 H      0.9428     1.0000     0.0572     1.0066     1.0066    -0.0000
 61 H      0.8246     1.0000     0.1754     1.0433     1.0433     0.0000
 62 H      0.8302     1.0000     0.1698     1.0434     1.0434    -0.0000
 63 H      0.9448     1.0000     0.0552     0.9859     0.9859    -0.0000
 64 H      1.0303     1.0000    -0.0303     0.9937     0.9937     0.0000
 65 H      0.9564     1.0000     0.0436     1.0084     1.0084    -0.0000
 66 H      0.9431     1.0000     0.0569     0.9846     0.9846    -0.0000
 67 H      0.9391     1.0000     0.0609     0.9718     0.9718    -0.0000
 68 H      0.9426     1.0000     0.0574     0.9865     0.9865     0.0000
 69 H      0.9403     1.0000     0.0597     0.9831     0.9831    -0.0000
 70 H      1.0181     1.0000    -0.0181     0.9966     0.9966    -0.0000
 71 H      0.9517     1.0000     0.0483     1.0073     1.0073     0.0000
 72 H      0.9563     1.0000     0.0437     0.9858     0.9858    -0.0000
 73 H      1.0181     1.0000    -0.0181     0.9969     0.9969    -0.0000
 74 H      0.9649     1.0000     0.0351     1.0095     1.0095     0.0000
 75 H      0.9576     1.0000     0.0424     0.9864     0.9864     0.0000
 76 H      0.9487     1.0000     0.0513     0.9707     0.9707     0.0000
 77 H      0.9500     1.0000     0.0500     0.9845     0.9845     0.0000
 78 H      0.9509     1.0000     0.0491     0.9839     0.9839     0.0000
 79 H      1.0121     1.0000    -0.0121     1.0012     1.0012    -0.0000
 80 H      0.9651     1.0000     0.0349     1.0065     1.0065     0.0000
 81 H      0.9482     1.0000     0.0518     0.9853     0.9853    -0.0000
 82 H      1.0234     1.0000    -0.0234     0.9948     0.9948    -0.0000
 83 H      0.9569     1.0000     0.0431     1.0103     1.0103     0.0000
 84 H      0.9491     1.0000     0.0509     0.9861     0.9861     0.0000
 85 H      0.9439     1.0000     0.0561     0.9714     0.9714    -0.0000
 86 H      0.9435     1.0000     0.0565     0.9841     0.9841    -0.0000
 87 H      0.9446     1.0000     0.0554     0.9853     0.9853     0.0000
 88 H      1.0283     1.0000    -0.0283     0.9921     0.9921    -0.0000
 89 H      0.9584     1.0000     0.0416     1.0061     1.0061     0.0000

  Mayer bond orders larger than 0.100000
B(  0-C ,  1-N ) :   1.1662 B(  0-C , 17-C ) :   1.5657 B(  0-C , 52-H ) :   0.9680 
B(  1-N ,  8-C ) :   1.1596 B(  1-N , 10-C ) :   0.9413 B(  2-C , 12-C ) :   1.5611 
B(  2-C , 16-C ) :   1.2930 B(  2-C , 53-H ) :   0.9788 B(  3-N , 14-C ) :   1.1836 
B(  3-N , 16-C ) :   1.2014 B(  3-N , 61-H ) :   0.8966 B(  4-C ,  6-C ) :   1.3193 
B(  4-C , 17-C ) :   1.3237 B(  4-C , 18-C ) :   1.1297 B(  5-N , 19-C ) :   1.3832 
B(  5-N , 27-C ) :   1.4343 B(  6-C ,  8-C ) :   1.5706 B(  6-C , 54-H ) :   0.9711 
B(  7-N , 30-C ) :   1.1866 B(  7-N , 38-C ) :   1.2111 B(  7-N , 62-H ) :   0.9001 
B(  8-C , 55-H ) :   0.9690 B(  9-N , 41-C ) :   1.4238 B(  9-N , 49-C ) :   1.4031 
B( 10-C , 56-H ) :   0.9764 B( 10-C , 57-H ) :   0.9815 B( 10-C , 58-H ) :   0.9821 
B( 11-N , 20-C ) :   1.1101 B( 11-N , 24-C ) :   1.1342 B( 11-N , 25-C ) :   0.9592 
B( 12-C , 14-C ) :   1.2939 B( 12-C , 59-H ) :   0.9778 B( 13-N , 31-C ) :   1.0969 
B( 13-N , 35-C ) :   1.0867 B( 13-N , 36-C ) :   0.9744 B( 14-C , 18-C ) :   1.2403 
B( 15-N , 42-C ) :   1.1232 B( 15-N , 46-C ) :   1.1000 B( 15-N , 47-C ) :   0.9644 
B( 16-C , 51-C ) :   1.2284 B( 17-C , 60-H ) :   0.9712 B( 18-C , 19-C ) :   1.2764 
B( 19-C , 21-C ) :   1.1831 B( 20-C , 28-C ) :   1.6234 B( 20-C , 63-H ) :   0.9706 
B( 21-C , 26-C ) :   1.6650 B( 21-C , 64-H ) :   0.9732 B( 22-C , 23-C ) :   1.2681 
B( 22-C , 28-C ) :   1.2811 B( 22-C , 29-C ) :   1.2433 B( 23-C , 24-C ) :   1.6254 
B( 23-C , 65-H ) :   0.9717 B( 24-C , 66-H ) :   0.9689 B( 25-C , 67-H ) :   0.9763 
B( 25-C , 68-H ) :   0.9832 B( 25-C , 69-H ) :   0.9819 B( 26-C , 27-C ) :   1.1869 
B( 26-C , 70-H ) :   0.9747 B( 27-C , 29-C ) :   1.2350 B( 28-C , 71-H ) :   0.9710 
B( 29-C , 30-C ) :   1.1916 B( 30-C , 32-C ) :   1.3346 B( 31-C , 39-C ) :   1.6651 
B( 31-C , 72-H ) :   0.9705 B( 32-C , 37-C ) :   1.5243 B( 32-C , 73-H ) :   0.9773 
B( 33-C , 34-C ) :   1.2482 B( 33-C , 39-C ) :   1.2400 B( 33-C , 40-C ) :   1.3164 
B( 34-C , 35-C ) :   1.6628 B( 34-C , 74-H ) :   0.9708 B( 35-C , 75-H ) :   0.9705 
B( 36-C , 76-H ) :   0.9758 B( 36-C , 77-H ) :   0.9824 B( 36-C , 78-H ) :   0.9836 
B( 37-C , 38-C ) :   1.3317 B( 37-C , 79-H ) :   0.9788 B( 38-C , 40-C ) :   1.1908 
B( 39-C , 80-H ) :   0.9720 B( 40-C , 41-C ) :   1.1857 B( 41-C , 43-C ) :   1.2427 
B( 42-C , 50-C ) :   1.6380 B( 42-C , 81-H ) :   0.9696 B( 43-C , 48-C ) :   1.6084 
B( 43-C , 82-H ) :   0.9749 B( 44-C , 45-C ) :   1.2775 B( 44-C , 50-C ) :   1.2567 
B( 44-C , 51-C ) :   1.2520 B( 45-C , 46-C ) :   1.6321 B( 45-C , 83-H ) :   0.9705 
B( 46-C , 84-H ) :   0.9706 B( 47-C , 85-H ) :   0.9761 B( 47-C , 86-H ) :   0.9827 
B( 47-C , 87-H ) :   0.9828 B( 48-C , 49-C ) :   1.2387 B( 48-C , 88-H ) :   0.9730 
B( 49-C , 51-C ) :   1.1983 B( 50-C , 89-H ) :   0.9719 

-------
TIMINGS
-------

Total SCF time: 0 days 0 hours 26 min 32 sec 

Total time                  ....    1592.141 sec
Sum of individual times     ....    1588.265 sec  ( 99.8%)

Fock matrix formation       ....    1565.889 sec  ( 98.4%)
Diagonalization             ....       6.686 sec  (  0.4%)
Density matrix formation    ....       0.413 sec  (  0.0%)
Population analysis         ....       0.426 sec  (  0.0%)
Initial guess               ....       1.935 sec  (  0.1%)
Orbital Transformation      ....       0.000 sec  (  0.0%)
Orbital Orthonormalization  ....       0.000 sec  (  0.0%)
DIIS solution               ....       2.906 sec  (  0.2%)
SOSCF solution              ....       9.005 sec  (  0.6%)

Maximum memory used throughout the entire SCF-calculation: 302.6 MB


           ************************************************************
           *        Program running with 16 parallel MPI-processes    *
           *              working on a common directory               *
           ************************************************************

------------------------------------------------------------------------------
                                ORCA  MP2 
------------------------------------------------------------------------------

Freezing NCore=104 chemical core electrons

----------
MP2 ENERGY (disk based algorithm)
----------

Dimension of the basis                    ...  918
Memory devoted to MP2                     ... 2000 MB   
Data format for buffers                   ... DOUBLE
Compression type for matrix containers    ... UNCOMPRESSED

-------------------------------
PARTIAL EXCHANGE TRANSFORMATION
-------------------------------

Transformation type                        ... one-operator
Generation of integrals (i,mue|j,nue)      ... ON
Generation of integrals (mue,kappa|nue,tau)... OFF
Generation of integrals (i,mue|a,nue)      ... OFF
Dimension of the basis                     ...  918
Number of internal MOs                     ...  127 (  52- 178)
Pair cutoff                                ... 2.500e-12 Eh
Number of AO pairs in the trafo            ... 421821
Total Number of distinct AO pairs          ... 421821
Memory devoted for trafo                   ... 2000.0 MB 
Max. Number of MO pairs treated together   ...  311      
Number Format for Storage                  ... Double (8 Byte)
Integral package used                      ... LIBINT

Starting integral evaluation:
    ... done with AO integral generation
Closing buffer AOK     (37.93 GB; CompressionRatio= 1.34)
Collecting buffer AOK 
Number of MO pairs included in the trafo   ... 8128
------------------------
SORTING OF (i,mue|j,nue)
------------------------

IBATCH = 1 of  2
IBATCH = 2 of  2
Closing buffer KAO     (51.03 GB; CompressionRatio= 1.00)
Collecting buffer KAO 
N(AO-Batches) Done                         ...  85680660 
N(AO-Batches) Skipped                      ...  81850787 
N(IJ)-pairs Skipped                        ...         0 
TOTAL TIME for half transformation         ...  2553.287 sec
AO-integral generation                     ...   177.383 sec
Half transformation                        ...   314.954 sec
K-integral sorting                         ...  1922.442 sec
Process 10:   Internal MO 132
Process 13:   Internal MO 156

Finished integral transformation - now doing MP2 part

OPERATOR COMBINATION   0   0: ij=( 52..178, 52..178)
Process  4:   Internal MO  84
Process  1:   Internal MO  60
Process  7:   Internal MO 108
Process  0:   Internal MO  54
Process  2:   Internal MO  69
Process  0:   Internal MO  57
Process  5:   Internal MO  93
Process  8:   Internal MO 117
Process  2:   Internal MO  72
Process  1:   Internal MO  63
Process  6:   Internal MO 102
Process 11:   Internal MO 141
Process 14:   Internal MO 165
Process  4:   Internal MO  87
Process  2:   Internal MO  75
Process  3:   Internal MO  78
Process  1:   Internal MO  66
Process  9:   Internal MO 126
Process 12:   Internal MO 150
Process  5:   Internal MO  96
Process  3:   Internal MO  81
Process 10:   Internal MO 135
Process  6:   Internal MO 105
Process  4:   Internal MO  90
Process  7:   Internal MO 111
Process  8:   Internal MO 120
Process 15:   Internal MO 174
Process 13:   Internal MO 159
Process  5:   Internal MO  99
Process  9:   Internal MO 129
Process  7:   Internal MO 114
Process 11:   Internal MO 144
Process  8:   Internal MO 123
Process 14:   Internal MO 168
Process 10:   Internal MO 138
Process 12:   Internal MO 153
Process 15:   Internal MO 177
Process 13:   Internal MO 162
Process 11:   Internal MO 147
Process 14:   Internal MO 171
-----------------------------------------------
 MP2 CORRELATION ENERGY   :     -7.279896991 Eh
-----------------------------------------------


-------
TIMINGS
-------
Total time                : 2845.201 sec
Integral trafo            : 2555.187 sec ( 89.8%)
K(i,j)                    :    6.973 sec (  0.2%)
T(i,j)                    :    0.069 sec (  0.0%)

---------------------------------------
MP2 TOTAL ENERGY:    -2130.894875185 Eh
---------------------------------------

Maximum memory used throughout the entire MP2-calculation: 2275.2 MB

-------------------------   --------------------
FINAL SINGLE POINT ENERGY     -2130.894875185023
-------------------------   --------------------


                            ***************************************
                            *     ORCA property calculations      *
                            ***************************************


  WARNING: The energy has been calculated at the MP2 level but the densities
           used in the property calculations are still SCF densities
           MP2 response densities have not been calculated 
           use %mp2 Density relaxed end
           or  %mp2 Density unrelaxed end

                                    ---------------------
                                    Active property flags
                                    ---------------------
   (+) Dipole Moment


------------------------------------------------------------------------------
                       ORCA ELECTRIC PROPERTIES CALCULATION
------------------------------------------------------------------------------

Dipole Moment Calculation                       ... on
Quadrupole Moment Calculation                   ... off
Polarizability Calculation                      ... off
GBWName                                         ... /scratch/allen/tmpyp4_amber_gaff2/conf1/conf1/Conf105.orca.gbw
Electron density                                ... /scratch/allen/tmpyp4_amber_gaff2/conf1/conf1/Conf105.orca.scfp
The origin for moment calculation is the CENTER OF MASS  = ( 0.002252, -0.002555  0.003695)

-------------
DIPOLE MOMENT
-------------
                                X             Y             Z
Electronic contribution:     -2.98198       2.85664      -0.17652
Nuclear contribution   :     -0.01235       0.17572       0.21925
                        -----------------------------------------
Total Dipole Moment    :     -2.99433       3.03236       0.04273
                        -----------------------------------------
Magnitude (a.u.)       :      4.26182
Magnitude (Debye)      :     10.83268



--------------------
Rotational spectrum 
--------------------
 
Rotational constants in cm-1:     0.001498     0.001473     0.000763 
Rotational constants in MHz :    44.900424    44.154204    22.863973 

 Dipole components along the rotational axes: 
x,y,z [a.u.] :    -3.923545     1.663529     0.039331 
x,y,z [Debye]:    -9.972858     4.228355     0.099971 

 

Timings for individual modules:

Sum of individual times         ...     4460.179 sec (=  74.336 min)
GTO integral calculation        ...        2.695 sec (=   0.045 min)   0.1 %
SCF iterations                  ...     1593.070 sec (=  26.551 min)  35.7 %
MP2 module                      ...     2864.414 sec (=  47.740 min)  64.2 %
                             ****ORCA TERMINATED NORMALLY****
TOTAL RUN TIME: 0 days 1 hours 14 minutes 23 seconds 452 msec
# of primitive gaussian functions

