
                                 *****************
                                 * O   R   C   A *
                                 *****************

                                            #,                                       
                                            ###                                      
                                            ####                                     
                                            #####                                    
                                            ######                                   
                                           ########,                                 
                                     ,,################,,,,,                         
                               ,,#################################,,                 
                          ,,##########################################,,             
                       ,#########################################, ''#####,          
                    ,#############################################,,   '####,        
                  ,##################################################,,,,####,       
                ,###########''''           ''''###############################       
              ,#####''   ,,,,##########,,,,          '''####'''          '####       
            ,##' ,,,,###########################,,,                        '##       
           ' ,,###''''                  '''############,,,                           
         ,,##''                                '''############,,,,        ,,,,,,###''
      ,#''                                            '''#######################'''  
     '                                                          ''''####''''         
             ,#######,   #######,   ,#######,      ##                                
            ,#'     '#,  ##    ##  ,#'     '#,    #''#        ######   ,####,        
            ##       ##  ##   ,#'  ##            #'  '#       #        #'  '#        
            ##       ##  #######   ##           ,######,      #####,   #    #        
            '#,     ,#'  ##    ##  '#,     ,#' ,#      #,         ##   #,  ,#        
             '#######'   ##     ##  '#######'  #'      '#     #####' # '####'        



                  #######################################################
                  #                        -***-                        #
                  #          Department of theory and spectroscopy      #
                  #    Directorship and core code : Frank Neese         #
                  #        Max Planck Institute fuer Kohlenforschung    #
                  #                Kaiser Wilhelm Platz 1               #
                  #                 D-45470 Muelheim/Ruhr               #
                  #                      Germany                        #
                  #                                                     #
                  #                  All rights reserved                #
                  #                        -***-                        #
                  #######################################################


                         Program Version 5.0.4 -  RELEASE  -


 With contributions from (in alphabetic order):
   Daniel Aravena         : Magnetic Suceptibility
   Michael Atanasov       : Ab Initio Ligand Field Theory (pilot matlab implementation)
   Alexander A. Auer      : GIAO ZORA, VPT2 properties, NMR spectrum
   Ute Becker             : Parallelization
   Giovanni Bistoni       : ED, misc. LED, open-shell LED, HFLD
   Martin Brehm           : Molecular dynamics
   Dmytro Bykov           : SCF Hessian
   Vijay G. Chilkuri      : MRCI spin determinant printing, contributions to CSF-ICE
   Dipayan Datta          : RHF DLPNO-CCSD density
   Achintya Kumar Dutta   : EOM-CC, STEOM-CC
   Dmitry Ganyushin       : Spin-Orbit,Spin-Spin,Magnetic field MRCI
   Miquel Garcia          : C-PCM and meta-GGA Hessian, CC/C-PCM, Gaussian charge scheme
   Yang Guo               : DLPNO-NEVPT2, F12-NEVPT2, CIM, IAO-localization
   Andreas Hansen         : Spin unrestricted coupled pair/coupled cluster methods
   Benjamin Helmich-Paris : MC-RPA, TRAH-SCF, COSX integrals
   Lee Huntington         : MR-EOM, pCC
   Robert Izsak           : Overlap fitted RIJCOSX, COSX-SCS-MP3, EOM
   Marcus Kettner         : VPT2
   Christian Kollmar      : KDIIS, OOCD, Brueckner-CCSD(T), CCSD density, CASPT2, CASPT2-K
   Simone Kossmann        : Meta GGA functionals, TD-DFT gradient, OOMP2, MP2 Hessian
   Martin Krupicka        : Initial AUTO-CI
   Lucas Lang             : DCDCAS
   Marvin Lechner         : AUTO-CI (C++ implementation), FIC-MRCC
   Dagmar Lenk            : GEPOL surface, SMD
   Dimitrios Liakos       : Extrapolation schemes; Compound Job, initial MDCI parallelization
   Dimitrios Manganas     : Further ROCIS development; embedding schemes
   Dimitrios Pantazis     : SARC Basis sets
   Anastasios Papadopoulos: AUTO-CI, single reference methods and gradients
   Taras Petrenko         : DFT Hessian,TD-DFT gradient, ASA, ECA, R-Raman, ABS, FL, XAS/XES, NRVS
   Peter Pinski           : DLPNO-MP2, DLPNO-MP2 Gradient
   Christoph Reimann      : Effective Core Potentials
   Marius Retegan         : Local ZFS, SOC
   Christoph Riplinger    : Optimizer, TS searches, QM/MM, DLPNO-CCSD(T), (RO)-DLPNO pert. Triples
   Tobias Risthaus        : Range-separated hybrids, TD-DFT gradient, RPA, STAB
   Michael Roemelt        : Original ROCIS implementation
   Masaaki Saitow         : Open-shell DLPNO-CCSD energy and density
   Barbara Sandhoefer     : DKH picture change effects
   Avijit Sen             : IP-ROCIS
   Kantharuban Sivalingam : CASSCF convergence, NEVPT2, FIC-MRCI
   Bernardo de Souza      : ESD, SOC TD-DFT
   Georgi Stoychev        : AutoAux, RI-MP2 NMR, DLPNO-MP2 response
   Willem Van den Heuvel  : Paramagnetic NMR
   Boris Wezisla          : Elementary symmetry handling
   Frank Wennmohs         : Technical directorship


 We gratefully acknowledge several colleagues who have allowed us to
 interface, adapt or use parts of their codes:
   Stefan Grimme, W. Hujo, H. Kruse, P. Pracht,  : VdW corrections, initial TS optimization,
                  C. Bannwarth, S. Ehlert          DFT functionals, gCP, sTDA/sTD-DF
   Ed Valeev, F. Pavosevic, A. Kumar             : LibInt (2-el integral package), F12 methods
   Garnet Chan, S. Sharma, J. Yang, R. Olivares  : DMRG
   Ulf Ekstrom                                   : XCFun DFT Library
   Mihaly Kallay                                 : mrcc  (arbitrary order and MRCC methods)
   Jiri Pittner, Ondrej Demel                    : Mk-CCSD
   Frank Weinhold                                : gennbo (NPA and NBO analysis)
   Christopher J. Cramer and Donald G. Truhlar   : smd solvation model
   Lars Goerigk                                  : TD-DFT with DH, B97 family of functionals
   V. Asgeirsson, H. Jonsson                     : NEB implementation
   FAccTs GmbH                                   : IRC, NEB, NEB-TS, DLPNO-Multilevel, CI-OPT
                                                   MM, QMMM, 2- and 3-layer-ONIOM, Crystal-QMMM,
                                                   LR-CPCM, SF, NACMEs, symmetry and pop. for TD-DFT,
                                                   nearIR, NL-DFT gradient (VV10), updates on ESD,
                                                   ML-optimized integration grids
   S Lehtola, MJT Oliveira, MAL Marques          : LibXC Library
   Liviu Ungur et al                             : ANISO software


 Your calculation uses the libint2 library for the computation of 2-el integrals
 For citations please refer to: http://libint.valeyev.net

 Your ORCA version has been built with support for libXC version: 5.1.0
 For citations please refer to: https://tddft.org/programs/libxc/

 This ORCA versions uses:
   CBLAS   interface :  Fast vector & matrix operations
   LAPACKE interface :  Fast linear algebra routines
   SCALAPACK package :  Parallel linear algebra routines
   Shared memory     :  Shared parallel matrices
   BLAS/LAPACK       :  OpenBLAS 0.3.15  USE64BITINT DYNAMIC_ARCH NO_AFFINITY Sandybridge SINGLE_THREADED
        Core in use  :  Sandybridge
   Copyright (c) 2011-2014, The OpenBLAS Project


================================================================================

----- Orbital basis set information -----
Your calculation utilizes the basis: cc-pVDZ 
       H, B-Ne : Obtained from the ccRepo (grant-hill.group.shef.ac.uk/ccrepo) Feb. 2017
                 T. H. Dunning, Jr., J. Chem. Phys. 90, 1007 (1989)
            He : Obtained from the ccRepo (grant-hill.group.shef.ac.uk/ccrepo) Feb. 2017
                 D. E. Woon, T. H. Dunning, Jr., J. Chem. Phys. 100, 2975 (1994)
  Li-Be, Na-Mg : Obtained from the ccRepo (grant-hill.group.shef.ac.uk/ccrepo) Feb. 2017
                 B. P. Prascher, D. E. Woon, K. A. Peterson, T. H. Dunning, Jr., A. K. Wilson, Theor. Chem. Acc. 128, 69 (2011)
         Al-Ar : Obtained from the ccRepo (grant-hill.group.shef.ac.uk/ccrepo) Feb. 2017
                 D. E. Woon, T. H. Dunning, Jr., J. Chem. Phys. 98, 1358 (1993)
            Ca : Obtained from the Peterson Research Group Website (tyr0.chem.wsu.edu/~kipeters) Feb. 2017
                 J. Koput, K. A. Peterson, J. Phys. Chem. 106, 9595 (2002)
         Sc-Zn : Obtained from the ccRepo (grant-hill.group.shef.ac.uk/ccrepo) Feb. 2017
                 N. B. Balabanov, K. A. Peterson, J. Chem. Phys. 123, 064107 (2005)
                 N. B. Balabanov, K. A. Peterson, J. Chem. Phys. 125, 074110 (2006)
         Ga-Kr : Obtained from the ccRepo (grant-hill.group.shef.ac.uk/ccrepo) Feb. 2017
                 A. K. Wilson, D. E. Woon, K. A. Peterson, T. H. Dunning, Jr., J. Chem. Phys. 110, 7667 (1999)

================================================================================
                                        WARNINGS
                       Please study these warnings very carefully!
================================================================================


WARNING: No MP2 level density has been requested!
         To caclulate MP2 level properties use
         %mp2 Density relaxed end
         or
         %mp2 Density unrelaxed end

WARNING: Post HF methods need fully converged wavefunctions
  ===> : Setting SCFConvForced true
         You can overwrite this default with %scf ConvForced false 


INFO   : the flag for use of the SHARK integral package has been found!

================================================================================
                                       INPUT FILE
================================================================================
NAME = /scratch/allen/tmpyp4_amber_gaff2/2.Mdgx/conf11/conf11/Conf91.orca
|  1> ! PAL2
|  2> ! mp2 cc-pvdz TightSCF  NoKeepInts
|  3> 
|  4> %scf
|  5>   MaxCore 2000
|  6> end
|  7> %mp2
|  8>   MaxCore 2000
|  9> end
| 10> * xyz 0 1
| 11>    C       -3.97400         5.87600        -1.07900
| 12>    C        1.47400         4.04100         0.05700
| 13>    C       -2.80200         4.09300         0.04900
| 14>    C       -3.21700         4.65800         1.26500
| 15>    C       -3.99100         5.80100         1.27000
| 16>    C       -5.21800         7.59800         0.14800
| 17>    C        0.13200         4.30700         0.06100
| 18>    C       -0.56900         3.05600         0.04700
| 19>    C        1.64900         2.61800         0.02300
| 20>    C       -3.20300         4.73100        -1.13500
| 21>    N       -4.35600         6.39600         0.11000
| 22>    N        0.38800         2.06700         0.02500
| 23>    N       -2.01000         0.39500        -0.07500
| 24>    N       -0.38800        -2.07400        -0.02700
| 25>    N        2.01000        -0.40100         0.06500
| 26>    C       -1.96000         2.86100         0.02400
| 27>    C       -2.62300         1.61500        -0.01800
| 28>    C       -5.57300        -4.32900         1.06600
| 29>    C       -4.07300         1.47100         0.05600
| 30>    C       -4.10600        -2.75600        -0.02600
| 31>    C       -4.99500        -2.75700        -1.11100
| 32>    C       -6.13200        -3.54200        -1.07600
| 33>    C       -7.65100        -5.11300         0.04000
| 34>    C       -4.32400         0.14100         0.03700
| 35>    C       -3.02500        -0.52000        -0.04800
| 36>    C       -4.42200        -3.56600         1.07500
| 37>    N       -6.40700        -4.31300         0.00100
| 38>    C       -2.86700        -1.92200        -0.04000
| 39>    C       -1.65000        -2.62400        -0.02700
| 40>    C        3.56800        -6.14200        -1.04000
| 41>    C       -1.47600        -4.04900        -0.03400
| 42>    C        2.80300        -4.09900        -0.00800
| 43>    C        3.65700        -4.38400         1.06900
| 44>    C        4.42700        -5.53000         1.05900
| 45>    C        5.24500        -7.58800         0.01400
| 46>    C       -0.13400        -4.31500        -0.02200
| 47>    C        0.56800        -3.06400        -0.02700
| 48>    C        2.77500        -5.01200        -1.07400
| 49>    N        4.37600        -6.39100         0.01700
| 50>    C        1.95900        -2.86900        -0.00900
| 51>    C        2.62100        -1.62200         0.00900
| 52>    C        5.54300         4.33900        -1.13000
| 53>    C        4.07000        -1.47900        -0.09400
| 54>    C        4.10400         2.75100        -0.02100
| 55>    C        5.02700         2.72900         1.03600
| 56>    C        6.16600         3.50900         0.97800
| 57>    C        7.61900         5.15300        -0.11500
| 58>    C        4.32100        -0.14800        -0.09200
| 59>    C        3.02500         0.51400         0.01500
| 60>    C        4.38700         3.58200        -1.11500
| 61>    C        2.86600         1.91600         0.01300
| 62>    N        6.41300         4.29600        -0.09500
| 63>    H       -4.29600         6.40800        -1.96600
| 64>    H        2.27400         4.76600         0.08100
| 65>    H       -2.94700         4.20700         2.21200
| 66>    H       -4.34200         6.26800         2.18100
| 67>    H       -6.26300         7.28500         0.19500
| 68>    H       -4.96200         8.18500         1.03000
| 69>    H       -5.04300         8.18300        -0.75400
| 70>    H       -0.33200         5.28200         0.06900
| 71>    H       -2.90400         4.35100        -2.10500
| 72>    H        0.18200         1.07200         0.00500
| 73>    H       -0.18300        -1.08000        -0.02100
| 74>    H       -5.86400        -4.96200         1.89500
| 75>    H       -4.79400         2.27200         0.13900
| 76>    H       -4.80000        -2.16000        -1.99400
| 77>    H       -6.84100        -3.58200        -1.89300
| 78>    H       -8.42800        -4.53600         0.54600
| 79>    H       -7.95600        -5.33700        -0.98100
| 80>    H       -7.45600        -6.03700         0.58400
| 81>    H       -5.28700        -0.34400         0.10000
| 82>    H       -3.78000        -3.60100         1.94700
| 83>    H        3.58700        -6.86800        -1.84300
| 84>    H       -2.27600        -4.77400        -0.05000
| 85>    H        3.71400        -3.72400         1.92600
| 86>    H        5.09200        -5.79500         1.87100
| 87>    H        6.20500        -7.32900        -0.43900
| 88>    H        5.39300        -7.91700         1.04200
| 89>    H        4.75900        -8.37300        -0.56400
| 90>    H        0.32900        -5.29000        -0.00800
| 91>    H        2.14600        -4.84200        -1.94000
| 92>    H        5.80800         4.98600        -1.95600
| 93>    H        4.78800        -2.28100        -0.18500
| 94>    H        4.86000         2.11400         1.91200
| 95>    H        6.90100         3.53100         1.77200
| 96>    H        7.38300         6.10900         0.35600
| 97>    H        8.41400         4.65200         0.43500
| 98>    H        7.92100         5.31000        -1.15000
| 99>    H        5.28300         0.33600        -0.17900
|100>    H        3.72000         3.63200        -1.96700
|101> *
|102> 
|103>                          ****END OF INPUT****
================================================================================

                       ****************************
                       * Single Point Calculation *
                       ****************************

---------------------------------
CARTESIAN COORDINATES (ANGSTROEM)
---------------------------------
  C     -3.974000    5.876000   -1.079000
  C      1.474000    4.041000    0.057000
  C     -2.802000    4.093000    0.049000
  C     -3.217000    4.658000    1.265000
  C     -3.991000    5.801000    1.270000
  C     -5.218000    7.598000    0.148000
  C      0.132000    4.307000    0.061000
  C     -0.569000    3.056000    0.047000
  C      1.649000    2.618000    0.023000
  C     -3.203000    4.731000   -1.135000
  N     -4.356000    6.396000    0.110000
  N      0.388000    2.067000    0.025000
  N     -2.010000    0.395000   -0.075000
  N     -0.388000   -2.074000   -0.027000
  N      2.010000   -0.401000    0.065000
  C     -1.960000    2.861000    0.024000
  C     -2.623000    1.615000   -0.018000
  C     -5.573000   -4.329000    1.066000
  C     -4.073000    1.471000    0.056000
  C     -4.106000   -2.756000   -0.026000
  C     -4.995000   -2.757000   -1.111000
  C     -6.132000   -3.542000   -1.076000
  C     -7.651000   -5.113000    0.040000
  C     -4.324000    0.141000    0.037000
  C     -3.025000   -0.520000   -0.048000
  C     -4.422000   -3.566000    1.075000
  N     -6.407000   -4.313000    0.001000
  C     -2.867000   -1.922000   -0.040000
  C     -1.650000   -2.624000   -0.027000
  C      3.568000   -6.142000   -1.040000
  C     -1.476000   -4.049000   -0.034000
  C      2.803000   -4.099000   -0.008000
  C      3.657000   -4.384000    1.069000
  C      4.427000   -5.530000    1.059000
  C      5.245000   -7.588000    0.014000
  C     -0.134000   -4.315000   -0.022000
  C      0.568000   -3.064000   -0.027000
  C      2.775000   -5.012000   -1.074000
  N      4.376000   -6.391000    0.017000
  C      1.959000   -2.869000   -0.009000
  C      2.621000   -1.622000    0.009000
  C      5.543000    4.339000   -1.130000
  C      4.070000   -1.479000   -0.094000
  C      4.104000    2.751000   -0.021000
  C      5.027000    2.729000    1.036000
  C      6.166000    3.509000    0.978000
  C      7.619000    5.153000   -0.115000
  C      4.321000   -0.148000   -0.092000
  C      3.025000    0.514000    0.015000
  C      4.387000    3.582000   -1.115000
  C      2.866000    1.916000    0.013000
  N      6.413000    4.296000   -0.095000
  H     -4.296000    6.408000   -1.966000
  H      2.274000    4.766000    0.081000
  H     -2.947000    4.207000    2.212000
  H     -4.342000    6.268000    2.181000
  H     -6.263000    7.285000    0.195000
  H     -4.962000    8.185000    1.030000
  H     -5.043000    8.183000   -0.754000
  H     -0.332000    5.282000    0.069000
  H     -2.904000    4.351000   -2.105000
  H      0.182000    1.072000    0.005000
  H     -0.183000   -1.080000   -0.021000
  H     -5.864000   -4.962000    1.895000
  H     -4.794000    2.272000    0.139000
  H     -4.800000   -2.160000   -1.994000
  H     -6.841000   -3.582000   -1.893000
  H     -8.428000   -4.536000    0.546000
  H     -7.956000   -5.337000   -0.981000
  H     -7.456000   -6.037000    0.584000
  H     -5.287000   -0.344000    0.100000
  H     -3.780000   -3.601000    1.947000
  H      3.587000   -6.868000   -1.843000
  H     -2.276000   -4.774000   -0.050000
  H      3.714000   -3.724000    1.926000
  H      5.092000   -5.795000    1.871000
  H      6.205000   -7.329000   -0.439000
  H      5.393000   -7.917000    1.042000
  H      4.759000   -8.373000   -0.564000
  H      0.329000   -5.290000   -0.008000
  H      2.146000   -4.842000   -1.940000
  H      5.808000    4.986000   -1.956000
  H      4.788000   -2.281000   -0.185000
  H      4.860000    2.114000    1.912000
  H      6.901000    3.531000    1.772000
  H      7.383000    6.109000    0.356000
  H      8.414000    4.652000    0.435000
  H      7.921000    5.310000   -1.150000
  H      5.283000    0.336000   -0.179000
  H      3.720000    3.632000   -1.967000

----------------------------
CARTESIAN COORDINATES (A.U.)
----------------------------
  NO LB      ZA    FRAG     MASS         X           Y           Z
   0 C     6.0000    0    12.011   -7.509772   11.104031   -2.039014
   1 C     6.0000    0    12.011    2.785456    7.636383    0.107714
   2 C     6.0000    0    12.011   -5.295013    7.734649    0.092597
   3 C     6.0000    0    12.011   -6.079249    8.802344    2.390504
   4 C     6.0000    0    12.011   -7.541897   10.962301    2.399952
   5 C     6.0000    0    12.011   -9.860591   14.358139    0.279679
   6 C     6.0000    0    12.011    0.249444    8.139050    0.115273
   7 C     6.0000    0    12.011   -1.075254    5.775003    0.088817
   8 C     6.0000    0    12.011    3.116158    4.947303    0.043464
   9 C     6.0000    0    12.011   -6.052793    8.940294   -2.144839
  10 N     7.0000    0    14.007   -8.231647   12.086688    0.207870
  11 N     7.0000    0    14.007    0.733214    3.906064    0.047243
  12 N     7.0000    0    14.007   -3.798350    0.746442   -0.141729
  13 N     7.0000    0    14.007   -0.733214   -3.919292   -0.051023
  14 N     7.0000    0    14.007    3.798350   -0.757780    0.122832
  15 C     6.0000    0    12.011   -3.703863    5.406506    0.045353
  16 C     6.0000    0    12.011   -4.956752    3.051908   -0.034015
  17 C     6.0000    0    12.011  -10.531444   -8.180624    2.014448
  18 C     6.0000    0    12.011   -7.696855    2.779787    0.105825
  19 C     6.0000    0    12.011   -7.759216   -5.208085   -0.049133
  20 C     6.0000    0    12.011   -9.439182   -5.209975   -2.099486
  21 C     6.0000    0    12.011  -11.587801   -6.693410   -2.033345
  22 C     6.0000    0    12.011  -14.458295   -9.662170    0.075589
  23 C     6.0000    0    12.011   -8.171176    0.266451    0.069920
  24 C     6.0000    0    12.011   -5.716422   -0.982658   -0.090707
  25 C     6.0000    0    12.011   -8.356369   -6.738763    2.031456
  26 N     7.0000    0    14.007  -12.107475   -8.150389    0.001890
  27 C     6.0000    0    12.011   -5.417845   -3.632054   -0.075589
  28 C     6.0000    0    12.011   -3.118048   -4.958641   -0.051023
  29 C     6.0000    0    12.011    6.742543  -11.606698   -1.965315
  30 C     6.0000    0    12.011   -2.789236   -7.651501   -0.064251
  31 C     6.0000    0    12.011    5.296902   -7.745987   -0.015118
  32 C     6.0000    0    12.011    6.910728   -8.284559    2.020117
  33 C     6.0000    0    12.011    8.365818  -10.450186    2.001220
  34 C     6.0000    0    12.011    9.911614  -14.339242    0.026456
  35 C     6.0000    0    12.011   -0.253223   -8.154168   -0.041574
  36 C     6.0000    0    12.011    1.073364   -5.790121   -0.051023
  37 C     6.0000    0    12.011    5.243990   -9.471307   -2.029566
  38 N     7.0000    0    14.007    8.269442  -12.077240    0.032125
  39 C     6.0000    0    12.011    3.701973   -5.421624   -0.017008
  40 C     6.0000    0    12.011    4.952972   -3.065136    0.017008
  41 C     6.0000    0    12.011   10.474752    8.199522   -2.135391
  42 C     6.0000    0    12.011    7.691185   -2.794905   -0.177634
  43 C     6.0000    0    12.011    7.755436    5.198637   -0.039684
  44 C     6.0000    0    12.011    9.499653    5.157063    1.957756
  45 C     6.0000    0    12.011   11.652051    6.631049    1.848152
  46 C     6.0000    0    12.011   14.397823    9.737759   -0.217319
  47 C     6.0000    0    12.011    8.165507   -0.279679   -0.173855
  48 C     6.0000    0    12.011    5.716422    0.971319    0.028346
  49 C     6.0000    0    12.011    8.290229    6.768999   -2.107045
  50 C     6.0000    0    12.011    5.415955    3.620715    0.024566
  51 N     7.0000    0    14.007   12.118814    8.118263   -0.179524
  52 H     1.0000    0     1.008   -8.118263   12.109365   -3.715202
  53 H     1.0000    0     1.008    4.297237    9.006435    0.153068
  54 H     1.0000    0     1.008   -5.569023    7.950078    4.180074
  55 H     1.0000    0     1.008   -8.205191   11.844803    4.121493
  56 H     1.0000    0     1.008  -11.835355   13.766655    0.368497
  57 H     1.0000    0     1.008   -9.376821   15.467408    1.946418
  58 H     1.0000    0     1.008   -9.529889   15.463629   -1.424854
  59 H     1.0000    0     1.008   -0.627389    9.981533    0.130391
  60 H     1.0000    0     1.008   -5.487765    8.222198   -3.977874
  61 H     1.0000    0     1.008    0.343930    2.025786    0.009449
  62 H     1.0000    0     1.008   -0.345820   -2.040904   -0.039684
  63 H     1.0000    0     1.008  -11.081354   -9.376821    3.581031
  64 H     1.0000    0     1.008   -9.059347    4.293458    0.262672
  65 H     1.0000    0     1.008   -9.070685   -4.081808   -3.768114
  66 H     1.0000    0     1.008  -12.927616   -6.768999   -3.577252
  67 H     1.0000    0     1.008  -15.926612   -8.571798    1.031790
  68 H     1.0000    0     1.008  -15.034661  -10.085468   -1.853821
  69 H     1.0000    0     1.008  -14.089798  -11.408277    1.103600
  70 H     1.0000    0     1.008   -9.990982   -0.650066    0.188973
  71 H     1.0000    0     1.008   -7.143165   -6.804904    3.679297
  72 H     1.0000    0     1.008    6.778448  -12.978639   -3.482765
  73 H     1.0000    0     1.008   -4.301017   -9.021553   -0.094486
  74 H     1.0000    0     1.008    7.018443   -7.037340    3.639613
  75 H     1.0000    0     1.008    9.622485  -10.950963    3.535678
  76 H     1.0000    0     1.008   11.725751  -13.849803   -0.829590
  77 H     1.0000    0     1.008   10.191293  -14.960962    1.969095
  78 H     1.0000    0     1.008    8.993207  -15.822677   -1.065806
  79 H     1.0000    0     1.008    0.621720   -9.996651   -0.015118
  80 H     1.0000    0     1.008    4.055352   -9.150054   -3.666069
  81 H     1.0000    0     1.008   10.975529    9.422175   -3.696304
  82 H     1.0000    0     1.008    9.048009   -4.310465   -0.349599
  83 H     1.0000    0     1.008    9.184069    3.994881    3.613156
  84 H     1.0000    0     1.008   13.041000    6.672623    3.348595
  85 H     1.0000    0     1.008   13.951848   11.544337    0.672743
  86 H     1.0000    0     1.008   15.900156    8.791006    0.822031
  87 H     1.0000    0     1.008   14.968521   10.034446   -2.173185
  88 H     1.0000    0     1.008    9.983423    0.634948   -0.338261
  89 H     1.0000    0     1.008    7.029781    6.863485   -3.717091

--------------------------------
INTERNAL COORDINATES (ANGSTROEM)
--------------------------------
 C      0   0   0     0.000000000000     0.00000000     0.00000000
 C      1   0   0     5.859899743170     0.00000000     0.00000000
 C      1   2   0     2.413515485759    39.33913558     0.00000000
 C      3   1   2     1.403604645190    87.93398461   108.89089423
 C      4   3   1     1.380416603783   120.14712118     0.09950172
 C      5   4   3     2.448187492820   152.51429843     1.69208091
 C      2   1   3     1.368114030335    13.52197583   334.13388788
 C      7   2   3     1.434084376876   108.05010202     0.84668783
 C      2   1   3     1.434123425651   114.80737108    37.46775053
 C      1   2   3     1.381521624876    39.59870338   311.62662967
 N      1   2   3     1.352791558223   102.26961745    75.60004247
 N      9   2   1     1.376127174356   106.58526707   346.52971780
 N     12   9   2     2.925062050624   168.53581413   171.12065651
 N     13  12   9     2.954513327098    91.55032014    11.12112580
 N     14  13  12     2.925371258490    88.43092389   359.84326247
 C      8   7   2     1.404790019896   127.24786865   181.11170171
 C     13  12   9     1.366535034311    81.72106996   188.00453233
 C     14  13  12     5.758810554272    80.56209567   166.76250791
 C     17  13  12     1.459010623676   111.08861209   183.82872609
 C     18  14  13     2.412235892279    27.27532823    36.33507194
 C     20  18  14     1.402692767501    87.95206320   148.94598259
 C     21  20  18     1.382106725257   120.14573887   359.70382047
 C     18  14  13     2.446510985056   144.15733107    82.80075377
 C     19  17  13     1.353610726908   106.29293361   359.75308708
 C     13  12   9     1.366813447402   172.21332906    33.46711076
 C     18  14  13     1.380960173213    15.08449437   309.23336894
 N     22  21  20     1.352773077792   120.73759875     0.27865223
 C     25  13  17     1.410897586645   125.60330303   182.37774668
 C     14  13  12     1.376642291955    80.24689249   177.85461986
 C     14  13  12     5.764089607215   164.51507311   312.20821879
 C     29  14  13     1.435600919476   106.58649366   178.76395472
 C     30  14  13     2.413316804732    27.10625047    82.12560436
 C     32  30  14     1.403734305344    87.90059683   149.76154742
 C     33  32  30     1.380694028378   120.14881443   359.74174632
 C     34  33  32     2.448777858443   152.49203239     2.45173620
 C     31  29  14     1.368160809262   108.16950133     0.70383075
 C     14  13  12     1.376239804685   169.26375223   353.09862627
 C     30  14  13     1.380907310430    14.68948582   353.70041132
 N     34  33  32     1.352658863128   120.85575621     0.19603406
 C     37  14  29     1.404717053360   126.01551127   180.90772073
 C     15  14  13     1.366491126938    81.61824056   183.09049352
 C      2   1   3     4.249062720177   144.50761423   160.55672774
 C     41  15  14     1.459677704153   111.05201287   175.08990246
 C     42   2   1     2.412953791518    41.78584867   205.96284554
 C     44  42   2     1.403446472082    87.95153797   233.97558675
 C     45  44  42     1.381696421071   120.11137308     0.19721020
 C     42   2   1     2.450019795838   135.97209175   116.27769464
 C     43  41  15     1.354461516618   106.26758155     0.30894352
 C     15  14  13     1.367461151185   171.87382904   332.35056460
 C     42   2   1     1.381886391857    32.59078432   254.81812473
 C      9   2   1     1.404988612053   126.98745415   167.53405533
 N     42   2   1     1.352765315936   113.57249190   144.01428384
 H      1   2   3     1.083271434129   126.07733560   212.01942012
 H      2   1   3     1.079907866440   118.86902706   205.92775326
 H      4   3   1     1.083102026588   121.07485931   179.58492572
 H      5   4   3     1.082225022812   122.83379407   179.45258510
 H      6   5   4     1.091880487966   104.44957630   100.05891618
 H      6   5   4     1.089967430706    84.64843446   209.50992599
 H      6   5   4     1.089244692436   133.88469065   322.34369545
 H      7   2  54     1.079807853278   126.66122480     1.30600390
 H     10   1   2     1.083836242243   118.73881582   251.45979404
 H     12   9   2     1.016297692608   125.29023241   180.00180175
 H     14  13  12     1.014936943854    44.97226959   359.42596618
 H     18  14  13     1.082871645210   128.03556573   234.20482432
 H     19  17  13     1.080893611786   126.41830519   178.11313280
 H     21  20  18     1.083569563987   121.05669627   180.67006309
 H     22  21  20     1.082483256222   122.73097286   180.59748951
 H     23  18  14     1.092105306278   103.92715769   234.93429879
 H     23  18  14     1.088871893291   134.19244188    12.25587044
 H     23  18  14     1.089833473518    84.85857450   125.45241208
 H     24  19  17     1.080075460327   127.28078426   178.44613241
 H     26  18  14     1.083408048706   118.76995697   244.94906660
 H     30  14  13     1.082703098730   127.99711412   279.66882698
 H     31  29  14     1.079759695488   125.22293469   180.92530585
 H     33  32  30     1.083188810873   121.01964473   180.74284758
 H     34  33  32     1.082494341787   122.70821597   180.59516895
 H     35  34  33     1.092652735319   105.73575241    97.19771933
 H     35  34  33     1.089462711615    84.05943581   206.43036958
 H     35  34  33     1.089268102902   133.08365142   318.50306270
 H     36  31  29     1.079439669458   126.61599965   178.98859863
 H     38  30  73     1.083742127999   118.77264435   359.90091293
 H     42   2   1     1.082178358682   119.31790784     0.64581429
 H     43  41  15     1.080281907652   126.36969097   182.06329380
 H     45  44  42     1.083277434455   121.10105945   179.58025624
 H     46  45  44     1.082194529648   122.72144639   179.46906377
 H     47  42   2     1.091546151109   106.65128841   315.16475048
 H     47  42   2     1.088818625851   132.46019523    94.52397119
 H     47  42   2     1.089531091801    83.63838232   206.04504406
 H     48  43  41     1.080402239909   127.23657387   181.62955349
 H     50  42   2     1.083186502870   118.77001737    94.71359229

---------------------------
INTERNAL COORDINATES (A.U.)
---------------------------
 C      0   0   0     0.000000000000     0.00000000     0.00000000
 C      1   0   0    11.073605686826     0.00000000     0.00000000
 C      1   2   0     4.560883288063    39.33913558     0.00000000
 C      3   1   2     2.652428379710    87.93398461   108.89089423
 C      4   3   1     2.608609331868   120.14712118     0.09950172
 C      5   4   3     4.626403885921   152.51429843     1.69208091
 C      2   1   3     2.585360837309    13.52197583   334.13388788
 C      7   2   3     2.710026725231   108.05010202     0.84668783
 C      2   1   3     2.710100516721   114.80737108    37.46775053
 C      1   2   3     2.610697519106    39.59870338   311.62662967
 N      1   2   3     2.556405561322   102.26961745    75.60004247
 N      9   2   1     2.600503484979   106.58526707   346.52971780
 N     12   9   2     5.527566200405   168.53581413   171.12065651
 N     13  12   9     5.583221047236    91.55032014    11.12112580
 N     14  13  12     5.528150518591    88.43092389   359.84326247
 C      8   7   2     2.654668413270   127.24786865   181.11170171
 C     13  12   9     2.582376967257    81.72106996   188.00453233
 C     14  13  12    10.882574804710    80.56209567   166.76250791
 C     17  13  12     2.757130505230   111.08861209   183.82872609
 C     18  14  13     4.558465206823    27.27532823    36.33507194
 C     20  18  14     2.650705180609    87.95206320   148.94598259
 C     21  20  18     2.611803198586   120.14573887   359.70382047
 C     18  14  13     4.623235745386   144.15733107    82.80075377
 C     19  17  13     2.557953565794   106.29293361   359.75308708
 C     13  12   9     2.582903091751   172.21332906    33.46711076
 C     18  14  13     2.609636529225    15.08449437   309.23336894
 N     22  21  20     2.556370638369   120.73759875     0.27865223
 C     25  13  17     2.666210041769   125.60330303   182.37774668
 C     14  13  12     2.601476916169    80.24689249   177.85461986
 C     14  13  12    10.892550769017   164.51507311   312.20821879
 C     29  14  13     2.712892575415   106.58649366   178.76395472
 C     30  14  13     4.560507835333    27.10625047    82.12560436
 C     32  30  14     2.652673401891    87.90059683   149.76154742
 C     33  32  30     2.609133588376   120.14881443   359.74174632
 C     34  33  32     4.627519515267   152.49203239     2.45173620
 C     31  29  14     2.585449236669   108.16950133     0.70383075
 C     14  13  12     2.600716325456   169.26375223   353.09862627
 C     30  14  13     2.609536633043    14.68948582   353.70041132
 N     34  33  32     2.556154803934   120.85575621     0.19603406
 C     37  14  29     2.654530526499   126.01551127   180.90772073
 C     15  14  13     2.582293994346    81.61824056   183.09049352
 C      2   1   3     8.029564866989   144.50761423   160.55672774
 C     41  15  14     2.758391104639   111.05201287   175.08990246
 C     42   2   1     4.559821839776    41.78584867   205.96284554
 C     44  42   2     2.652129475853    87.95153797   233.97558675
 C     45  44  42     2.611027836043   120.11137308     0.19721020
 C     42   2   1     4.629866436820   135.97209175   116.27769464
 C     43  41  15     2.559561325344   106.26758155     0.30894352
 C     15  14  13     2.584127074516   171.87382904   332.35056460
 C     42   2   1     2.611386828803    32.59078432   254.81812473
 C      9   2   1     2.655043698059   126.98745415   167.53405533
 N     42   2   1     2.556355970587   113.57249190   144.01428384
 H      1   2   3     2.047086339204   126.07733560   212.01942012
 H      2   1   3     2.040730117440   118.86902706   205.92775326
 H      4   3   1     2.046766205347   121.07485931   179.58492572
 H      5   4   3     2.045108908391   122.83379407   179.45258510
 H      6   5   4     2.063355093227   104.44957630   100.05891618
 H      6   5   4     2.059739938928    84.64843446   209.50992599
 H      6   5   4     2.058374161531   133.88469065   322.34369545
 H      7   2  54     2.040541119952   126.66122480     1.30600390
 H     10   1   2     2.048153671858   118.73881582   251.45979404
 H     12   9   2     1.920524309565   125.29023241   180.00180175
 H     14  13  12     1.917952867083    44.97226959   359.42596618
 H     18  14  13     2.046330847636   128.03556573   234.20482432
 H     19  17  13     2.042592906181   126.41830519   178.11313280
 H     21  20  18     2.047649722989   121.05669627   180.67006309
 H     22  21  20     2.045596898814   122.73097286   180.59748951
 H     23  18  14     2.063779938267   103.92715769   234.93429879
 H     23  18  14     2.057669673245   134.19244188    12.25587044
 H     23  18  14     2.059486796529    84.85857450   125.45241208
 H     24  19  17     2.041046823986   127.28078426   178.44613241
 H     26  18  14     2.047344503340   118.76995697   244.94906660
 H     30  14  13     2.046012340948   127.99711412   279.66882698
 H     31  29  14     2.040450114918   125.22293469   180.92530585
 H     33  32  30     2.046930203877   121.01964473   180.74284758
 H     34  33  32     2.045617847496   122.70821597   180.59516895
 H     35  34  33     2.064814429233   105.73575241    97.19771933
 H     35  34  33     2.058786158072    84.05943581   206.43036958
 H     35  34  33     2.058418400901   133.08365142   318.50306270
 H     36  31  29     2.039845353366   126.61599965   178.98859863
 H     38  30  73     2.047975821711   118.77264435   359.90091293
 H     42   2   1     2.045020725966   119.31790784     0.64581429
 H     43  41  15     2.041436952892   126.36969097   182.06329380
 H     45  44  42     2.047097678177   121.10105945   179.58025624
 H     46  45  44     2.045051284662   122.72144639   179.46906377
 H     47  42   2     2.062723288131   106.65128841   315.16475048
 H     47  42   2     2.057569012371   132.46019523    94.52397119
 H     47  42   2     2.058915377895    83.63838232   206.04504406
 H     48  43  41     2.041664347903   127.23657387   181.62955349
 H     50  42   2     2.046925842384   118.77001737    94.71359229

---------------------
BASIS SET INFORMATION
---------------------
There are 3 groups of distinct atoms

 Group   1 Type C   : 17s4p1d contracted to 3s2p1d pattern {881/31/1}
 Group   2 Type N   : 17s4p1d contracted to 3s2p1d pattern {881/31/1}
 Group   3 Type H   : 4s1p contracted to 2s1p pattern {31/1}

Atom   0C    basis set group =>   1
Atom   1N    basis set group =>   2
Atom   2C    basis set group =>   1
Atom   3N    basis set group =>   2
Atom   4C    basis set group =>   1
Atom   5N    basis set group =>   2
Atom   6C    basis set group =>   1
Atom   7N    basis set group =>   2
Atom   8C    basis set group =>   1
Atom   9N    basis set group =>   2
Atom  10C    basis set group =>   1
Atom  11N    basis set group =>   2
Atom  12C    basis set group =>   1
Atom  13N    basis set group =>   2
Atom  14C    basis set group =>   1
Atom  15N    basis set group =>   2
Atom  16C    basis set group =>   1
Atom  17C    basis set group =>   1
Atom  18C    basis set group =>   1
Atom  19C    basis set group =>   1
Atom  20C    basis set group =>   1
Atom  21C    basis set group =>   1
Atom  22C    basis set group =>   1
Atom  23C    basis set group =>   1
Atom  24C    basis set group =>   1
Atom  25C    basis set group =>   1
Atom  26C    basis set group =>   1
Atom  27C    basis set group =>   1
Atom  28C    basis set group =>   1
Atom  29C    basis set group =>   1
Atom  30C    basis set group =>   1
Atom  31C    basis set group =>   1
Atom  32C    basis set group =>   1
Atom  33C    basis set group =>   1
Atom  34C    basis set group =>   1
Atom  35C    basis set group =>   1
Atom  36C    basis set group =>   1
Atom  37C    basis set group =>   1
Atom  38C    basis set group =>   1
Atom  39C    basis set group =>   1
Atom  40C    basis set group =>   1
Atom  41C    basis set group =>   1
Atom  42C    basis set group =>   1
Atom  43C    basis set group =>   1
Atom  44C    basis set group =>   1
Atom  45C    basis set group =>   1
Atom  46C    basis set group =>   1
Atom  47C    basis set group =>   1
Atom  48C    basis set group =>   1
Atom  49C    basis set group =>   1
Atom  50C    basis set group =>   1
Atom  51C    basis set group =>   1
Atom  52H    basis set group =>   3
Atom  53H    basis set group =>   3
Atom  54H    basis set group =>   3
Atom  55H    basis set group =>   3
Atom  56H    basis set group =>   3
Atom  57H    basis set group =>   3
Atom  58H    basis set group =>   3
Atom  59H    basis set group =>   3
Atom  60H    basis set group =>   3
Atom  61H    basis set group =>   3
Atom  62H    basis set group =>   3
Atom  63H    basis set group =>   3
Atom  64H    basis set group =>   3
Atom  65H    basis set group =>   3
Atom  66H    basis set group =>   3
Atom  67H    basis set group =>   3
Atom  68H    basis set group =>   3
Atom  69H    basis set group =>   3
Atom  70H    basis set group =>   3
Atom  71H    basis set group =>   3
Atom  72H    basis set group =>   3
Atom  73H    basis set group =>   3
Atom  74H    basis set group =>   3
Atom  75H    basis set group =>   3
Atom  76H    basis set group =>   3
Atom  77H    basis set group =>   3
Atom  78H    basis set group =>   3
Atom  79H    basis set group =>   3
Atom  80H    basis set group =>   3
Atom  81H    basis set group =>   3
Atom  82H    basis set group =>   3
Atom  83H    basis set group =>   3
Atom  84H    basis set group =>   3
Atom  85H    basis set group =>   3
Atom  86H    basis set group =>   3
Atom  87H    basis set group =>   3
Atom  88H    basis set group =>   3
Atom  89H    basis set group =>   3


           ************************************************************
           *        Program running with 16 parallel MPI-processes    *
           *              working on a common directory               *
           ************************************************************
------------------------------------------------------------------------------
                           ORCA GTO INTEGRAL CALCULATION
------------------------------------------------------------------------------
------------------------------------------------------------------------------
                   ___                                                        
                  /   \      - P O W E R E D   B Y -                         
                 /     \                                                     
                 |  |  |   _    _      __       _____    __    __             
                 |  |  |  | |  | |    /  \     |  _  \  |  |  /  |          
                  \  \/   | |  | |   /    \    | | | |  |  | /  /          
                 / \  \   | |__| |  /  /\  \   | |_| |  |  |/  /          
                |  |  |   |  __  | /  /__\  \  |    /   |      \           
                |  |  |   | |  | | |   __   |  |    \   |  |\   \          
                \     /   | |  | | |  |  |  |  | |\  \  |  | \   \       
                 \___/    |_|  |_| |__|  |__|  |_| \__\ |__|  \__/        
                                                                              
                      - O R C A' S   B I G   F R I E N D -                    
                                      &                                       
                       - I N T E G R A L  F E E D E R -                       
                                                                              
 v1 FN, 2020, v2 2021                                                         
------------------------------------------------------------------------------


Reading SHARK input file /scratch/allen/tmpyp4_amber_gaff2/conf1/conf1/Conf91.orca.SHARKINP.tmp ... ok
----------------------
SHARK INTEGRAL PACKAGE
----------------------

Number of atoms                             ...     90
Number of basis functions                   ...   1230
Number of shells                            ...    738
Maximum angular momentum                    ...      2
Integral batch strategy                     ... SHARK/LIBINT Hybrid
RI-J (if used) integral strategy            ... SPLIT-RIJ (Revised 2003 algorithm where possible)
Printlevel                                  ...      1
Contraction scheme used                     ... PARTIAL GENERAL contraction
Coulomb Range Separation                    ... NOT USED
Exchange Range Separation                   ... NOT USED
Finite Nucleus Model                        ... NOT USED
Auxiliary Coulomb fitting basis             ... NOT available
Auxiliary J/K fitting basis                 ... NOT available
Auxiliary Correlation fitting basis         ... NOT available
Auxiliary 'external' fitting basis          ... NOT available
Integral threshold                          ...     2.500000e-11
Primitive cut-off                           ...     2.500000e-12
Primitive pair pre-selection threshold      ...     2.500000e-12

Calculating pre-screening integrals         ... done (  0.1 sec) Dimension = 738
Calculating pre-screening integrals (ORCA)  ... done (  0.3 sec) Dimension = 426
Organizing shell pair data                  ... done (  0.5 sec)
Shell pair information
Total number of shell pairs                 ...    272691
Shell pairs after pre-screening             ...     71618
Total number of primitive shell pairs       ...    422091
Primitive shell pairs kept                  ...     92363
          la=0 lb=0:  29418 shell pairs
          la=1 lb=0:  25967 shell pairs
          la=1 lb=1:   4688 shell pairs
          la=2 lb=0:   7899 shell pairs
          la=2 lb=1:   3116 shell pairs
          la=2 lb=2:    530 shell pairs

Calculating one electron integrals          ... done (  0.2 sec)
Calculating Nuclear repulsion               ... done (  0.0 sec) ENN=   6221.823538785444 Eh

SHARK setup successfully completed in   1.7 seconds

Maximum memory used throughout the entire GTOINT-calculation: 98.9 MB


           ************************************************************
           *        Program running with 16 parallel MPI-processes    *
           *              working on a common directory               *
           ************************************************************
-------------------------------------------------------------------------------
                                 ORCA SCF
-------------------------------------------------------------------------------

------------
SCF SETTINGS
------------
Hamiltonian:
 Ab initio Hamiltonian  Method          .... Hartree-Fock(GTOs)


General Settings:
 Integral files         IntName         .... /scratch/allen/tmpyp4_amber_gaff2/conf1/conf1/Conf91.orca
 Hartree-Fock type      HFTyp           .... RHF
 Total Charge           Charge          ....    0
 Multiplicity           Mult            ....    1
 Number of Electrons    NEL             ....  358
 Basis Dimension        Dim             ....  918
 Nuclear Repulsion      ENuc            ....   6221.8235387854 Eh

Convergence Acceleration:
 DIIS                   CNVDIIS         .... on
   Start iteration      DIISMaxIt       ....    12
   Startup error        DIISStart       ....  0.200000
   # of expansion vecs  DIISMaxEq       ....     5
   Bias factor          DIISBfac        ....   1.050
   Max. coefficient     DIISMaxC        ....  10.000
 Trust-Rad. Augm. Hess. CNVTRAH         .... auto
   Auto Start mean grad. ratio tolernc. ....  1.125000
   Auto Start start iteration           ....    20
   Auto Start num. interpolation iter.  ....    10
   Max. Number of Micro iterations      ....    16
   Max. Number of Macro iterations      .... Maxiter - #DIIS iter
   Number of Davidson start vectors     ....     2
   Converg. threshold I  (grad. norm)   ....   1.000e-05
   Converg. threshold II (energy diff.) ....   1.000e-08
   Grad. Scal. Fac. for Micro threshold ....   0.100
   Minimum threshold for Micro iter.    ....   0.010
   NR start threshold (gradient norm)   ....   0.001
   Initial trust radius                 ....   0.400
   Minimum AH scaling param. (alpha)    ....   1.000
   Maximum AH scaling param. (alpha)    .... 1000.000
   Orbital update algorithm             .... Taylor
   White noise on init. David. guess    .... on
   Maximum white noise                  ....   0.010
   Quad. conv. algorithm                .... NR
 SOSCF                  CNVSOSCF        .... on
   Start iteration      SOSCFMaxIt      ....   150
   Startup grad/error   SOSCFStart      ....  0.003300
 Level Shifting         CNVShift        .... on
   Level shift para.    LevelShift      ....    0.2500
   Turn off err/grad.   ShiftErr        ....    0.0010
 Zerner damping         CNVZerner       .... off
 Static damping         CNVDamp         .... on
   Fraction old density DampFac         ....    0.7000
   Max. Damping (<1)    DampMax         ....    0.9800
   Min. Damping (>=0)   DampMin         ....    0.0000
   Turn off err/grad.   DampErr         ....    0.1000
 Fernandez-Rico         CNVRico         .... off

SCF Procedure:
 Maximum # iterations   MaxIter         ....   125
 SCF integral mode      SCFMode         .... Direct
   Integral package                     .... SHARK and LIBINT hybrid scheme
 Reset frequency        DirectResetFreq ....    20
 Integral Threshold     Thresh          ....  2.500e-11 Eh
 Primitive CutOff       TCut            ....  2.500e-12 Eh

Convergence Tolerance:
 Convergence Check Mode ConvCheckMode   .... Total+1el-Energy
 Convergence forced     ConvForced      .... 1
 Energy Change          TolE            ....  1.000e-08 Eh
 1-El. energy change                    ....  1.000e-05 Eh
 Orbital Gradient       TolG            ....  1.000e-05
 Orbital Rotation angle TolX            ....  1.000e-05
 DIIS Error             TolErr          ....  5.000e-07


Diagonalization of the overlap matrix:
Smallest eigenvalue                        ... 2.264e-04
Time for diagonalization                   ...    0.350 sec
Threshold for overlap eigenvalues          ... 1.000e-08
Number of eigenvalues below threshold      ... 0
Time for construction of square roots      ...    0.192 sec
Total time needed                          ...    0.548 sec

Time for model grid setup =    0.997 sec

------------------------------
INITIAL GUESS: MODEL POTENTIAL
------------------------------
Loading Hartree-Fock densities                     ... done
Calculating cut-offs                               ... done
Initializing the effective Hamiltonian             ... done
Setting up the integral package (SHARK)            ... done
Starting the Coulomb interaction                   ... done (   1.1 sec)
Reading the grid                                   ... done
Mapping shells                                     ... done
Starting the XC term evaluation                    ... done (   0.2 sec)
Transforming the Hamiltonian                       ... done (   0.2 sec)
Diagonalizing the Hamiltonian                      ... done (   0.3 sec)
Back transforming the eigenvectors                 ... done (   0.1 sec)
Now organizing SCF variables                       ... done
                      ------------------
                      INITIAL GUESS DONE (   2.9 sec)
                      ------------------
--------------
SCF ITERATIONS
--------------
ITER       Energy         Delta-E        Max-DP      RMS-DP      [F,P]     Damp
               ***  Starting incremental Fock matrix formation  ***
  0  -2121.6407445573   0.000000000000 0.06934404  0.00121199  0.2351553 0.7000
  1  -2122.3097787162  -0.669034158966 0.05272078  0.00098193  0.1454770 0.7000
                               ***Turning on DIIS***
  2  -2122.7259817274  -0.416203011193 0.11743779  0.00221895  0.0807700 0.0000
  3  -2117.7731526564   4.952829070995 0.03440153  0.00068528  0.0442541 0.0000
  4  -2123.4148984096  -5.641745753175 0.00936135  0.00023059  0.0074094 0.0000
  5  -2123.5810760663  -0.166177656723 0.00558134  0.00013892  0.0051683 0.0000
  6  -2123.5594571974   0.021618868925 0.00473875  0.00009546  0.0024930 0.0000
  7  -2123.6636252593  -0.104168061918 0.00426173  0.00008087  0.0019695 0.0000
  8  -2123.6916611806  -0.028035921263 0.00416294  0.00008276  0.0018565 0.0000
  9  -2123.6502919882   0.041369192357 0.00302054  0.00006125  0.0015057 0.0000
 10  -2123.6735091345  -0.023217146241 0.00306602  0.00006008  0.0011520 0.0000
 11  -2123.6697579556   0.003751178907 0.00915718  0.00014187  0.0009903 0.0000
                      *** Initiating the SOSCF procedure ***
                           *** Shutting down DIIS ***
                      *** Re-Reading the Fockian *** 
                      *** Removing any level shift *** 
ITER      Energy       Delta-E        Grad      Rot      Max-DP    RMS-DP
 12  -2123.50997588   0.1597820737  0.000372  0.000372  0.000444  0.000010
               *** Restarting incremental Fock matrix formation ***
 13  -2123.60872999  -0.0987541092  0.001400  0.013910  0.002486  0.000059
 14  -2123.60902625  -0.0002962592  0.001958  0.076403  0.015735  0.000262
 15  -2123.60981092  -0.0007846667  0.000868  0.036122  0.009076  0.000124
 16  -2123.60999198  -0.0001810649  0.000762  0.010384  0.003738  0.000038
 17  -2123.61005435  -0.0000623656  0.000394  0.003701  0.001437  0.000028
 18  -2123.61008532  -0.0000309729  0.000238  0.002468  0.001085  0.000017
 19  -2123.61009587  -0.0000105541  0.000104  0.002111  0.000698  0.000012
 20  -2123.61010045  -0.0000045734  0.000104  0.000931  0.000261  0.000005
 21  -2123.61010202  -0.0000015674  0.000056  0.001385  0.000212  0.000005
 22  -2123.61010275  -0.0000007382  0.000039  0.001149  0.000178  0.000004
 23  -2123.61010317  -0.0000004191  0.000025  0.001339  0.000240  0.000004
 24  -2123.61010351  -0.0000003359  0.000022  0.001288  0.000257  0.000004
 25  -2123.61010371  -0.0000002031  0.000019  0.000763  0.000176  0.000003
 26  -2123.61010382  -0.0000001082  0.000013  0.000494  0.000129  0.000002
 27  -2123.61010388  -0.0000000643  0.000009  0.000266  0.000077  0.000001
 28  -2123.61010391  -0.0000000296  0.000007  0.000220  0.000064  0.000001
 29  -2123.61010393  -0.0000000185  0.000009  0.000231  0.000070  0.000001
 30  -2123.61010395  -0.0000000146  0.000005  0.000148  0.000044  0.000001
 31  -2123.61010395  -0.0000000063  0.000003  0.000050  0.000014  0.000000
                  ***Gradient check signals convergence***
              ***Rediagonalizing the Fockian in SOSCF/NRSCF***

               *****************************************************
               *                     SUCCESS                       *
               *           SCF CONVERGED AFTER  32 CYCLES          *
               *****************************************************


----------------
TOTAL SCF ENERGY
----------------

Total Energy       :        -2123.61010395 Eh          -57786.36873 eV

Components:
Nuclear Repulsion  :         6221.82353879 Eh          169304.42576 eV
Electronic Energy  :        -8345.43364274 Eh         -227090.79449 eV
One Electron Energy:       -15285.13647891 Eh         -415929.70905 eV
Two Electron Energy:         6939.70283617 Eh          188838.91456 eV

Virial components:
Potential Energy   :        -4245.59276204 Eh         -115528.45241 eV
Kinetic Energy     :         2121.98265809 Eh           57742.08368 eV
Virial Ratio       :            2.00076695


---------------
SCF CONVERGENCE
---------------

  Last Energy change         ...   -3.6016e-10  Tolerance :   1.0000e-08
  Last MAX-Density change    ...    6.8998e-06  Tolerance :   1.0000e-07
  Last RMS-Density change    ...    1.2334e-07  Tolerance :   5.0000e-09
  Last Orbital Gradient      ...    1.6123e-06  Tolerance :   1.0000e-05
  Last Orbital Rotation      ...    2.3296e-05  Tolerance :   1.0000e-05

             **** THE GBW FILE WAS UPDATED (/scratch/allen/tmpyp4_amber_gaff2/conf1/conf1/Conf91.orca.gbw) ****
             **** DENSITY /scratch/allen/tmpyp4_amber_gaff2/conf1/conf1/Conf91.orca.scfp WAS UPDATED ****
             **** ENERGY FILE WAS UPDATED (/scratch/allen/tmpyp4_amber_gaff2/conf1/conf1/Conf91.orca.en.tmp) ****
             **** THE GBW FILE WAS UPDATED (/scratch/allen/tmpyp4_amber_gaff2/conf1/conf1/Conf91.orca.gbw) ****
             **** DENSITY /scratch/allen/tmpyp4_amber_gaff2/conf1/conf1/Conf91.orca.scfp WAS UPDATED ****
----------------
ORBITAL ENERGIES
----------------

  NO   OCC          E(Eh)            E(eV) 
   0   2.0000     -15.721210      -427.7959 
   1   2.0000     -15.628087      -425.2619 
   2   2.0000     -15.618320      -424.9961 
   3   2.0000     -15.575744      -423.8375 
   4   2.0000     -15.520838      -422.3435 
   5   2.0000     -15.503949      -421.8839 
   6   2.0000     -15.451433      -420.4549 
   7   2.0000     -15.426576      -419.7785 
   8   2.0000     -11.359007      -309.0943 
   9   2.0000     -11.357002      -309.0397 
  10   2.0000     -11.350836      -308.8720 
  11   2.0000     -11.314882      -307.8936 
  12   2.0000     -11.296151      -307.3839 
  13   2.0000     -11.290410      -307.2277 
  14   2.0000     -11.289454      -307.2017 
  15   2.0000     -11.287376      -307.1451 
  16   2.0000     -11.287140      -307.1387 
  17   2.0000     -11.281343      -306.9810 
  18   2.0000     -11.280020      -306.9449 
  19   2.0000     -11.270982      -306.6990 
  20   2.0000     -11.262643      -306.4721 
  21   2.0000     -11.242421      -305.9218 
  22   2.0000     -11.238717      -305.8210 
  23   2.0000     -11.231858      -305.6344 
  24   2.0000     -11.226511      -305.4889 
  25   2.0000     -11.225607      -305.4643 
  26   2.0000     -11.222640      -305.3836 
  27   2.0000     -11.218758      -305.2779 
  28   2.0000     -11.218455      -305.2697 
  29   2.0000     -11.211599      -305.0831 
  30   2.0000     -11.209685      -305.0310 
  31   2.0000     -11.195848      -304.6545 
  32   2.0000     -11.194737      -304.6243 
  33   2.0000     -11.193434      -304.5888 
  34   2.0000     -11.187616      -304.4305 
  35   2.0000     -11.186862      -304.4100 
  36   2.0000     -11.182365      -304.2876 
  37   2.0000     -11.179563      -304.2114 
  38   2.0000     -11.179473      -304.2089 
  39   2.0000     -11.178297      -304.1769 
  40   2.0000     -11.170647      -303.9688 
  41   2.0000     -11.165511      -303.8290 
  42   2.0000     -11.164509      -303.8017 
  43   2.0000     -11.162163      -303.7379 
  44   2.0000     -11.160549      -303.6940 
  45   2.0000     -11.144202      -303.2492 
  46   2.0000     -11.143596      -303.2327 
  47   2.0000     -11.140395      -303.1456 
  48   2.0000     -11.136859      -303.0493 
  49   2.0000     -11.130428      -302.8744 
  50   2.0000     -11.116285      -302.4895 
  51   2.0000     -11.110496      -302.3320 
  52   2.0000      -1.392400       -37.8891 
  53   2.0000      -1.316397       -35.8210 
  54   2.0000      -1.307364       -35.5752 
  55   2.0000      -1.271143       -34.5896 
  56   2.0000      -1.224709       -33.3260 
  57   2.0000      -1.199977       -32.6530 
  58   2.0000      -1.178667       -32.0731 
  59   2.0000      -1.165722       -31.7209 
  60   2.0000      -1.136539       -30.9268 
  61   2.0000      -1.110245       -30.2113 
  62   2.0000      -1.105772       -30.0896 
  63   2.0000      -1.097154       -29.8551 
  64   2.0000      -1.065440       -28.9921 
  65   2.0000      -1.058196       -28.7950 
  66   2.0000      -1.040880       -28.3238 
  67   2.0000      -1.032325       -28.0910 
  68   2.0000      -1.015343       -27.6289 
  69   2.0000      -1.003858       -27.3164 
  70   2.0000      -0.998409       -27.1681 
  71   2.0000      -0.995353       -27.0849 
  72   2.0000      -0.985679       -26.8217 
  73   2.0000      -0.975778       -26.5523 
  74   2.0000      -0.964529       -26.2462 
  75   2.0000      -0.961161       -26.1545 
  76   2.0000      -0.950687       -25.8695 
  77   2.0000      -0.940304       -25.5870 
  78   2.0000      -0.936085       -25.4722 
  79   2.0000      -0.919458       -25.0197 
  80   2.0000      -0.911983       -24.8163 
  81   2.0000      -0.891486       -24.2586 
  82   2.0000      -0.886922       -24.1344 
  83   2.0000      -0.868025       -23.6202 
  84   2.0000      -0.859853       -23.3978 
  85   2.0000      -0.846144       -23.0248 
  86   2.0000      -0.828918       -22.5560 
  87   2.0000      -0.825982       -22.4761 
  88   2.0000      -0.820010       -22.3136 
  89   2.0000      -0.794232       -21.6122 
  90   2.0000      -0.785615       -21.3777 
  91   2.0000      -0.772753       -21.0277 
  92   2.0000      -0.741079       -20.1658 
  93   2.0000      -0.733567       -19.9614 
  94   2.0000      -0.728999       -19.8371 
  95   2.0000      -0.724401       -19.7119 
  96   2.0000      -0.716191       -19.4885 
  97   2.0000      -0.710303       -19.3283 
  98   2.0000      -0.707702       -19.2576 
  99   2.0000      -0.704774       -19.1779 
 100   2.0000      -0.695814       -18.9341 
 101   2.0000      -0.688170       -18.7261 
 102   2.0000      -0.683982       -18.6121 
 103   2.0000      -0.675655       -18.3855 
 104   2.0000      -0.672177       -18.2909 
 105   2.0000      -0.672000       -18.2860 
 106   2.0000      -0.666621       -18.1397 
 107   2.0000      -0.661447       -17.9989 
 108   2.0000      -0.651968       -17.7409 
 109   2.0000      -0.648773       -17.6540 
 110   2.0000      -0.648367       -17.6430 
 111   2.0000      -0.641860       -17.4659 
 112   2.0000      -0.640423       -17.4268 
 113   2.0000      -0.635506       -17.2930 
 114   2.0000      -0.633639       -17.2422 
 115   2.0000      -0.629023       -17.1166 
 116   2.0000      -0.627045       -17.0628 
 117   2.0000      -0.614428       -16.7194 
 118   2.0000      -0.610750       -16.6194 
 119   2.0000      -0.608664       -16.5626 
 120   2.0000      -0.608129       -16.5480 
 121   2.0000      -0.600511       -16.3407 
 122   2.0000      -0.593162       -16.1407 
 123   2.0000      -0.589160       -16.0319 
 124   2.0000      -0.584090       -15.8939 
 125   2.0000      -0.577984       -15.7277 
 126   2.0000      -0.574548       -15.6342 
 127   2.0000      -0.571732       -15.5576 
 128   2.0000      -0.570534       -15.5250 
 129   2.0000      -0.569212       -15.4890 
 130   2.0000      -0.556273       -15.1369 
 131   2.0000      -0.542653       -14.7663 
 132   2.0000      -0.542025       -14.7492 
 133   2.0000      -0.538109       -14.6427 
 134   2.0000      -0.533461       -14.5162 
 135   2.0000      -0.529104       -14.3977 
 136   2.0000      -0.519559       -14.1379 
 137   2.0000      -0.515565       -14.0292 
 138   2.0000      -0.513842       -13.9824 
 139   2.0000      -0.511831       -13.9276 
 140   2.0000      -0.509599       -13.8669 
 141   2.0000      -0.503323       -13.6961 
 142   2.0000      -0.501084       -13.6352 
 143   2.0000      -0.497406       -13.5351 
 144   2.0000      -0.495307       -13.4780 
 145   2.0000      -0.492498       -13.4015 
 146   2.0000      -0.488238       -13.2856 
 147   2.0000      -0.472966       -12.8701 
 148   2.0000      -0.469815       -12.7843 
 149   2.0000      -0.465829       -12.6758 
 150   2.0000      -0.462900       -12.5961 
 151   2.0000      -0.459977       -12.5166 
 152   2.0000      -0.451920       -12.2974 
 153   2.0000      -0.440741       -11.9932 
 154   2.0000      -0.432531       -11.7698 
 155   2.0000      -0.430800       -11.7227 
 156   2.0000      -0.418628       -11.3914 
 157   2.0000      -0.416532       -11.3344 
 158   2.0000      -0.410867       -11.1802 
 159   2.0000      -0.410708       -11.1759 
 160   2.0000      -0.381357       -10.3773 
 161   2.0000      -0.369259       -10.0480 
 162   2.0000      -0.353099        -9.6083 
 163   2.0000      -0.351549        -9.5661 
 164   2.0000      -0.345444        -9.4000 
 165   2.0000      -0.341772        -9.3001 
 166   2.0000      -0.337810        -9.1923 
 167   2.0000      -0.316401        -8.6097 
 168   2.0000      -0.311643        -8.4802 
 169   2.0000      -0.305225        -8.3056 
 170   2.0000      -0.298048        -8.1103 
 171   2.0000      -0.282366        -7.6836 
 172   2.0000      -0.275240        -7.4897 
 173   2.0000      -0.266645        -7.2558 
 174   2.0000      -0.228629        -6.2213 
 175   2.0000      -0.182886        -4.9766 
 176   2.0000      -0.173095        -4.7101 
 177   2.0000      -0.062700        -1.7062 
 178   2.0000      -0.050756        -1.3812 
 179   0.0000       0.036293         0.9876 
 180   0.0000       0.053961         1.4683 
 181   0.0000       0.072689         1.9780 
 182   0.0000       0.098735         2.6867 
 183   0.0000       0.102316         2.7842 
 184   0.0000       0.122584         3.3357 
 185   0.0000       0.141714         3.8562 
 186   0.0000       0.149267         4.0618 
 187   0.0000       0.160261         4.3609 
 188   0.0000       0.164909         4.4874 
 189   0.0000       0.166764         4.5379 
 190   0.0000       0.167508         4.5581 
 191   0.0000       0.173314         4.7161 
 192   0.0000       0.180938         4.9236 
 193   0.0000       0.196238         5.3399 
 194   0.0000       0.199497         5.4286 
 195   0.0000       0.206158         5.6098 
 196   0.0000       0.212422         5.7803 
 197   0.0000       0.212558         5.7840 
 198   0.0000       0.216597         5.8939 
 199   0.0000       0.218125         5.9355 
 200   0.0000       0.229167         6.2360 
 201   0.0000       0.237104         6.4519 
 202   0.0000       0.237347         6.4586 
 203   0.0000       0.240372         6.5409 
 204   0.0000       0.241585         6.5739 
 205   0.0000       0.244924         6.6647 
 206   0.0000       0.247249         6.7280 
 207   0.0000       0.248616         6.7652 
 208   0.0000       0.251019         6.8306 
 209   0.0000       0.258379         7.0309 
 210   0.0000       0.263620         7.1735 
 211   0.0000       0.267174         7.2702 
 212   0.0000       0.268742         7.3128 
 213   0.0000       0.274142         7.4598 
 214   0.0000       0.279129         7.5955 
 215   0.0000       0.280602         7.6356 
 216   0.0000       0.283499         7.7144 
 217   0.0000       0.285135         7.7589 
 218   0.0000       0.287546         7.8245 
 219   0.0000       0.289730         7.8839 
 220   0.0000       0.290367         7.9013 
 221   0.0000       0.294603         8.0166 
 222   0.0000       0.299334         8.1453 
 223   0.0000       0.300086         8.1658 
 224   0.0000       0.300469         8.1762 
 225   0.0000       0.305428         8.3111 
 226   0.0000       0.306911         8.3515 
 227   0.0000       0.307614         8.3706 
 228   0.0000       0.318186         8.6583 
 229   0.0000       0.320896         8.7320 
 230   0.0000       0.327686         8.9168 
 231   0.0000       0.330716         8.9992 
 232   0.0000       0.333565         9.0768 
 233   0.0000       0.336965         9.1693 
 234   0.0000       0.340584         9.2678 
 235   0.0000       0.356143         9.6911 
 236   0.0000       0.358419         9.7531 
 237   0.0000       0.361841         9.8462 
 238   0.0000       0.373036        10.1508 
 239   0.0000       0.386550        10.5186 
 240   0.0000       0.393993        10.7211 
 241   0.0000       0.398865        10.8537 
 242   0.0000       0.408431        11.1140 
 243   0.0000       0.416701        11.3390 
 244   0.0000       0.423762        11.5312 
 245   0.0000       0.430974        11.7274 
 246   0.0000       0.436416        11.8755 
 247   0.0000       0.438748        11.9389 
 248   0.0000       0.443716        12.0741 
 249   0.0000       0.444713        12.1012 
 250   0.0000       0.451999        12.2995 
 251   0.0000       0.455880        12.4051 
 252   0.0000       0.457033        12.4365 
 253   0.0000       0.468979        12.7616 
 254   0.0000       0.471782        12.8378 
 255   0.0000       0.476411        12.9638 
 256   0.0000       0.480286        13.0692 
 257   0.0000       0.483152        13.1472 
 258   0.0000       0.484983        13.1971 
 259   0.0000       0.493415        13.4265 
 260   0.0000       0.501539        13.6476 
 261   0.0000       0.503497        13.7008 
 262   0.0000       0.506501        13.7826 
 263   0.0000       0.509786        13.8720 
 264   0.0000       0.512394        13.9429 
 265   0.0000       0.517169        14.0729 
 266   0.0000       0.520618        14.1667 
 267   0.0000       0.525416        14.2973 
 268   0.0000       0.532034        14.4774 
 269   0.0000       0.538282        14.6474 
 270   0.0000       0.543263        14.7829 
 271   0.0000       0.544309        14.8114 
 272   0.0000       0.546499        14.8710 
 273   0.0000       0.548745        14.9321 
 274   0.0000       0.553288        15.0557 
 275   0.0000       0.560679        15.2569 
 276   0.0000       0.568526        15.4704 
 277   0.0000       0.571917        15.5626 
 278   0.0000       0.578206        15.7338 
 279   0.0000       0.586115        15.9490 
 280   0.0000       0.588671        16.0186 
 281   0.0000       0.593685        16.1550 
 282   0.0000       0.597162        16.2496 
 283   0.0000       0.598366        16.2824 
 284   0.0000       0.599069        16.3015 
 285   0.0000       0.602923        16.4064 
 286   0.0000       0.605066        16.4647 
 287   0.0000       0.609221        16.5777 
 288   0.0000       0.613385        16.6911 
 289   0.0000       0.618288        16.8245 
 290   0.0000       0.625541        17.0218 
 291   0.0000       0.630865        17.1667 
 292   0.0000       0.633239        17.2313 
 293   0.0000       0.638125        17.3643 
 294   0.0000       0.641386        17.4530 
 295   0.0000       0.646755        17.5991 
 296   0.0000       0.647603        17.6222 
 297   0.0000       0.654795        17.8179 
 298   0.0000       0.660669        17.9777 
 299   0.0000       0.661911        18.0115 
 300   0.0000       0.663455        18.0535 
 301   0.0000       0.667961        18.1761 
 302   0.0000       0.669426        18.2160 
 303   0.0000       0.674379        18.3508 
 304   0.0000       0.677914        18.4470 
 305   0.0000       0.679837        18.4993 
 306   0.0000       0.683297        18.5934 
 307   0.0000       0.686648        18.6846 
 308   0.0000       0.690109        18.7788 
 309   0.0000       0.693535        18.8721 
 310   0.0000       0.699253        19.0277 
 311   0.0000       0.702313        19.1109 
 312   0.0000       0.704406        19.1679 
 313   0.0000       0.707622        19.2554 
 314   0.0000       0.712034        19.3754 
 315   0.0000       0.715053        19.4576 
 316   0.0000       0.715818        19.4784 
 317   0.0000       0.717608        19.5271 
 318   0.0000       0.719765        19.5858 
 319   0.0000       0.723029        19.6746 
 320   0.0000       0.726198        19.7609 
 321   0.0000       0.728776        19.8310 
 322   0.0000       0.731943        19.9172 
 323   0.0000       0.737888        20.0790 
 324   0.0000       0.738747        20.1023 
 325   0.0000       0.742926        20.2161 
 326   0.0000       0.744775        20.2664 
 327   0.0000       0.749437        20.3932 
 328   0.0000       0.753663        20.5082 
 329   0.0000       0.755283        20.5523 
 330   0.0000       0.757739        20.6191 
 331   0.0000       0.762469        20.7478 
 332   0.0000       0.763095        20.7649 
 333   0.0000       0.765448        20.8289 
 334   0.0000       0.766888        20.8681 
 335   0.0000       0.768345        20.9077 
 336   0.0000       0.768824        20.9208 
 337   0.0000       0.774739        21.0817 
 338   0.0000       0.783360        21.3163 
 339   0.0000       0.785427        21.3726 
 340   0.0000       0.789951        21.4957 
 341   0.0000       0.790587        21.5130 
 342   0.0000       0.793655        21.5964 
 343   0.0000       0.794262        21.6130 
 344   0.0000       0.797089        21.6899 
 345   0.0000       0.798089        21.7171 
 346   0.0000       0.804915        21.9029 
 347   0.0000       0.806486        21.9456 
 348   0.0000       0.812699        22.1147 
 349   0.0000       0.814354        22.1597 
 350   0.0000       0.817492        22.2451 
 351   0.0000       0.819460        22.2986 
 352   0.0000       0.824462        22.4348 
 353   0.0000       0.826236        22.4830 
 354   0.0000       0.827843        22.5268 
 355   0.0000       0.830393        22.5961 
 356   0.0000       0.831769        22.6336 
 357   0.0000       0.837079        22.7781 
 358   0.0000       0.840290        22.8654 
 359   0.0000       0.840775        22.8787 
 360   0.0000       0.845333        23.0027 
 361   0.0000       0.845697        23.0126 
 362   0.0000       0.849020        23.1030 
 363   0.0000       0.850958        23.1557 
 364   0.0000       0.852476        23.1971 
 365   0.0000       0.857746        23.3405 
 366   0.0000       0.858369        23.3574 
 367   0.0000       0.859409        23.3857 
 368   0.0000       0.860885        23.4259 
 369   0.0000       0.863696        23.5024 
 370   0.0000       0.866662        23.5831 
 371   0.0000       0.868797        23.6412 
 372   0.0000       0.870290        23.6818 
 373   0.0000       0.871366        23.7111 
 374   0.0000       0.875830        23.8326 
 375   0.0000       0.878082        23.8938 
 376   0.0000       0.878514        23.9056 
 377   0.0000       0.879634        23.9361 
 378   0.0000       0.883661        24.0456 
 379   0.0000       0.887173        24.1412 
 380   0.0000       0.890778        24.2393 
 381   0.0000       0.891108        24.2483 
 382   0.0000       0.902297        24.5527 
 383   0.0000       0.903450        24.5841 
 384   0.0000       0.904145        24.6030 
 385   0.0000       0.908340        24.7172 
 386   0.0000       0.910101        24.7651 
 387   0.0000       0.916060        24.9273 
 388   0.0000       0.917972        24.9793 
 389   0.0000       0.919088        25.0097 
 390   0.0000       0.921043        25.0629 
 391   0.0000       0.924799        25.1651 
 392   0.0000       0.928680        25.2707 
 393   0.0000       0.933601        25.4046 
 394   0.0000       0.933704        25.4074 
 395   0.0000       0.935643        25.4601 
 396   0.0000       0.936690        25.4886 
 397   0.0000       0.939987        25.5783 
 398   0.0000       0.941502        25.6196 
 399   0.0000       0.942885        25.6572 
 400   0.0000       0.945081        25.7170 
 401   0.0000       0.948538        25.8110 
 402   0.0000       0.952453        25.9176 
 403   0.0000       0.956506        26.0279 
 404   0.0000       0.958012        26.0688 
 405   0.0000       0.960769        26.1438 
 406   0.0000       0.962730        26.1972 
 407   0.0000       0.968007        26.3408 
 408   0.0000       0.969646        26.3854 
 409   0.0000       0.975541        26.5458 
 410   0.0000       0.981045        26.6956 
 411   0.0000       0.984836        26.7987 
 412   0.0000       0.988026        26.8856 
 413   0.0000       0.995902        27.0999 
 414   0.0000       0.997054        27.1312 
 415   0.0000       1.000469        27.2242 
 416   0.0000       1.004333        27.3293 
 417   0.0000       1.005943        27.3731 
 418   0.0000       1.008805        27.4510 
 419   0.0000       1.016245        27.6534 
 420   0.0000       1.021034        27.7837 
 421   0.0000       1.025084        27.8939 
 422   0.0000       1.032054        28.0836 
 423   0.0000       1.037759        28.2388 
 424   0.0000       1.039235        28.2790 
 425   0.0000       1.045722        28.4555 
 426   0.0000       1.056747        28.7556 
 427   0.0000       1.062455        28.9109 
 428   0.0000       1.065849        29.0032 
 429   0.0000       1.071013        29.1438 
 430   0.0000       1.074265        29.2322 
 431   0.0000       1.082924        29.4679 
 432   0.0000       1.084861        29.5206 
 433   0.0000       1.088456        29.6184 
 434   0.0000       1.094081        29.7715 
 435   0.0000       1.097563        29.8662 
 436   0.0000       1.104288        30.0492 
 437   0.0000       1.106730        30.1157 
 438   0.0000       1.112547        30.2739 
 439   0.0000       1.115234        30.3471 
 440   0.0000       1.117630        30.4123 
 441   0.0000       1.118759        30.4430 
 442   0.0000       1.124013        30.5860 
 443   0.0000       1.129033        30.7226 
 444   0.0000       1.132612        30.8199 
 445   0.0000       1.134234        30.8641 
 446   0.0000       1.141978        31.0748 
 447   0.0000       1.143872        31.1263 
 448   0.0000       1.145423        31.1686 
 449   0.0000       1.148823        31.2611 
 450   0.0000       1.154851        31.4251 
 451   0.0000       1.156580        31.4722 
 452   0.0000       1.159112        31.5410 
 453   0.0000       1.160689        31.5839 
 454   0.0000       1.165907        31.7259 
 455   0.0000       1.167971        31.7821 
 456   0.0000       1.176127        32.0040 
 457   0.0000       1.178073        32.0570 
 458   0.0000       1.182681        32.1824 
 459   0.0000       1.187068        32.3018 
 460   0.0000       1.188894        32.3514 
 461   0.0000       1.190989        32.4085 
 462   0.0000       1.200209        32.6594 
 463   0.0000       1.202706        32.7273 
 464   0.0000       1.204979        32.7892 
 465   0.0000       1.207436        32.8560 
 466   0.0000       1.210376        32.9360 
 467   0.0000       1.212928        33.0054 
 468   0.0000       1.217268        33.1235 
 469   0.0000       1.218590        33.1595 
 470   0.0000       1.226346        33.3706 
 471   0.0000       1.228835        33.4383 
 472   0.0000       1.233383        33.5620 
 473   0.0000       1.237422        33.6720 
 474   0.0000       1.238886        33.7118 
 475   0.0000       1.242940        33.8221 
 476   0.0000       1.246829        33.9279 
 477   0.0000       1.250129        34.0177 
 478   0.0000       1.257320        34.2134 
 479   0.0000       1.257754        34.2252 
 480   0.0000       1.258311        34.2404 
 481   0.0000       1.264509        34.4090 
 482   0.0000       1.266107        34.4525 
 483   0.0000       1.270170        34.5631 
 484   0.0000       1.273366        34.6501 
 485   0.0000       1.282065        34.8868 
 486   0.0000       1.284819        34.9617 
 487   0.0000       1.287669        35.0393 
 488   0.0000       1.289441        35.0875 
 489   0.0000       1.291360        35.1397 
 490   0.0000       1.295088        35.2411 
 491   0.0000       1.300331        35.3838 
 492   0.0000       1.302830        35.4518 
 493   0.0000       1.306181        35.5430 
 494   0.0000       1.309095        35.6223 
 495   0.0000       1.315004        35.7831 
 496   0.0000       1.320408        35.9301 
 497   0.0000       1.323412        36.0119 
 498   0.0000       1.325192        36.0603 
 499   0.0000       1.331022        36.2189 
 500   0.0000       1.332302        36.2538 
 501   0.0000       1.336544        36.3692 
 502   0.0000       1.340067        36.4651 
[...]
      pz      :     0.021739  p :     0.079232
      px      :     0.042793
      py      :     0.014701
 77 H s       :     0.896421  s :     0.896421
      pz      :     0.047056  p :     0.078269
      px      :     0.015002
      py      :     0.016212
 78 H s       :     0.896815  s :     0.896815
      pz      :     0.025412  p :     0.078179
      px      :     0.020727
      py      :     0.032041
 79 H s       :     0.906961  s :     0.906961
      pz      :     0.022674  p :     0.087345
      px      :     0.021914
      py      :     0.042758
 80 H s       :     0.880922  s :     0.880922
      pz      :     0.038064  p :     0.083071
      px      :     0.029430
      py      :     0.015578
 81 H s       :     0.889040  s :     0.889040
      pz      :     0.037517  p :     0.083224
      px      :     0.016070
      py      :     0.029637
 82 H s       :     0.914130  s :     0.914130
      pz      :     0.022557  p :     0.087193
      px      :     0.030855
      py      :     0.033780
 83 H s       :     0.872343  s :     0.872343
      pz      :     0.039151  p :     0.083582
      px      :     0.015248
      py      :     0.029182
 84 H s       :     0.889105  s :     0.889105
      pz      :     0.035805  p :     0.084542
      px      :     0.031812
      py      :     0.016925
 85 H s       :     0.896519  s :     0.896519
      pz      :     0.022507  p :     0.079581
      px      :     0.014168
      py      :     0.042905
 86 H s       :     0.890851  s :     0.890851
      pz      :     0.024692  p :     0.078887
      px      :     0.032986
      py      :     0.021209
 87 H s       :     0.891556  s :     0.891556
      pz      :     0.047775  p :     0.078562
      px      :     0.015665
      py      :     0.015121
 88 H s       :     0.918843  s :     0.918843
      pz      :     0.022598  p :     0.086819
      px      :     0.041904
      py      :     0.022318
 89 H s       :     0.875911  s :     0.875911
      pz      :     0.037781  p :     0.084043
      px      :     0.030450
      py      :     0.015812


                      *****************************
                      * MAYER POPULATION ANALYSIS *
                      *****************************

  NA   - Mulliken gross atomic population
  ZA   - Total nuclear charge
  QA   - Mulliken gross atomic charge
  VA   - Mayer's total valence
  BVA  - Mayer's bonded valence
  FA   - Mayer's free valence

  ATOM       NA         ZA         QA         VA         BVA        FA
  0 C      5.7605     6.0000     0.2395     3.7981     3.7981     0.0000
  1 N      7.4101     7.0000    -0.4101     3.4874     3.4874    -0.0000
  2 C      6.0663     6.0000    -0.0663     3.9210     3.9210    -0.0000
  3 N      7.3444     7.0000    -0.3444     3.4187     3.4187     0.0000
  4 C      6.0659     6.0000    -0.0659     3.9509     3.9509    -0.0000
  5 N      7.5663     7.0000    -0.5663     3.0650     3.0650     0.0000
  6 C      6.0244     6.0000    -0.0244     3.9565     3.9565    -0.0000
  7 N      7.3368     7.0000    -0.3368     3.4459     3.4459    -0.0000
  8 C      5.7650     6.0000     0.2350     3.7979     3.7979    -0.0000
  9 N      7.5665     7.0000    -0.5665     3.0928     3.0928    -0.0000
 10 C      5.8970     6.0000     0.1030     3.8565     3.8565     0.0000
 11 N      7.4403     7.0000    -0.4403     3.3702     3.3702     0.0000
 12 C      6.0580     6.0000    -0.0580     3.9082     3.9082     0.0000
 13 N      7.4521     7.0000    -0.4521     3.3115     3.3115    -0.0000
 14 C      5.7811     6.0000     0.2189     3.8117     3.8117     0.0000
 15 N      7.4419     7.0000    -0.4419     3.3616     3.3616    -0.0000
 16 C      5.7416     6.0000     0.2584     3.8067     3.8067    -0.0000
 17 C      6.0324     6.0000    -0.0324     3.9595     3.9595    -0.0000
 18 C      6.1745     6.0000    -0.1745     3.6691     3.6691     0.0000
 19 C      5.7698     6.0000     0.2302     3.9040     3.9040     0.0000
 20 C      5.8146     6.0000     0.1854     3.8206     3.8206    -0.0000
 21 C      6.0671     6.0000    -0.0671     3.8893     3.8893    -0.0000
 22 C      6.0925     6.0000    -0.0925     3.9850     3.9850    -0.0000
 23 C      6.0696     6.0000    -0.0696     3.9884     3.9884    -0.0000
 24 C      5.7823     6.0000     0.2177     3.8313     3.8313     0.0000
 25 C      5.8848     6.0000     0.1152     3.8946     3.8946    -0.0000
 26 C      6.0647     6.0000    -0.0647     3.9101     3.9101    -0.0000
 27 C      5.7496     6.0000     0.2504     3.9040     3.9040    -0.0000
 28 C      6.0386     6.0000    -0.0386     3.9912     3.9912    -0.0000
 29 C      6.1979     6.0000    -0.1979     3.7281     3.7281     0.0000
 30 C      5.7807     6.0000     0.2193     3.7767     3.7767     0.0000
 31 C      5.8143     6.0000     0.1857     3.8341     3.8341     0.0000
 32 C      6.0642     6.0000    -0.0642     3.9128     3.9128     0.0000
 33 C      6.1046     6.0000    -0.1046     3.9837     3.9837    -0.0000
 34 C      6.0505     6.0000    -0.0505     4.0003     4.0003    -0.0000
 35 C      5.8241     6.0000     0.1759     3.8302     3.8302     0.0000
 36 C      5.8783     6.0000     0.1217     3.9124     3.9124     0.0000
 37 C      6.0710     6.0000    -0.0710     3.9130     3.9130     0.0000
 38 C      5.7547     6.0000     0.2453     3.7936     3.7936    -0.0000
 39 C      6.0658     6.0000    -0.0658     3.9997     3.9997    -0.0000
 40 C      6.2060     6.0000    -0.2060     3.7537     3.7537    -0.0000
 41 C      5.7842     6.0000     0.2158     3.8730     3.8730     0.0000
 42 C      5.7872     6.0000     0.2128     3.8335     3.8335     0.0000
 43 C      6.0778     6.0000    -0.0778     3.9050     3.9050     0.0000
 44 C      6.0930     6.0000    -0.0930     3.9826     3.9826    -0.0000
 45 C      6.0368     6.0000    -0.0368     3.9967     3.9967    -0.0000
 46 C      5.8184     6.0000     0.1816     3.8194     3.8194    -0.0000
 47 C      5.8830     6.0000     0.1170     3.8977     3.8977    -0.0000
 48 C      6.0828     6.0000    -0.0828     3.8969     3.8969    -0.0000
 49 C      5.7943     6.0000     0.2057     3.8598     3.8598     0.0000
 50 C      6.0693     6.0000    -0.0693     3.9904     3.9904    -0.0000
 51 C      6.1885     6.0000    -0.1885     3.7435     3.7435    -0.0000
 52 H      0.9152     1.0000     0.0848     0.9816     0.9816     0.0000
 53 H      1.0059     1.0000    -0.0059     1.0029     1.0029     0.0000
 54 H      0.9302     1.0000     0.0698     1.0046     1.0046    -0.0000
 55 H      0.9169     1.0000     0.0831     0.9826     0.9826    -0.0000
 56 H      0.9124     1.0000     0.0876     0.9727     0.9727     0.0000
 57 H      0.9217     1.0000     0.0783     0.9849     0.9849    -0.0000
 58 H      0.9238     1.0000     0.0762     0.9871     0.9871    -0.0000
 59 H      1.0302     1.0000    -0.0302     0.9958     0.9958     0.0000
 60 H      0.9312     1.0000     0.0688     1.0046     1.0046    -0.0000
 61 H      0.8223     1.0000     0.1777     1.0439     1.0439     0.0000
 62 H      0.8328     1.0000     0.1672     1.0433     1.0433    -0.0000
 63 H      0.9483     1.0000     0.0517     0.9864     0.9864     0.0000
 64 H      1.0361     1.0000    -0.0361     0.9931     0.9931    -0.0000
 65 H      0.9606     1.0000     0.0394     1.0076     1.0076     0.0000
 66 H      0.9460     1.0000     0.0540     0.9847     0.9847    -0.0000
 67 H      0.9429     1.0000     0.0571     0.9715     0.9715     0.0000
 68 H      0.9447     1.0000     0.0553     0.9863     0.9863    -0.0000
 69 H      0.9414     1.0000     0.0586     0.9830     0.9830    -0.0000
 70 H      1.0119     1.0000    -0.0119     0.9987     0.9987     0.0000
 71 H      0.9541     1.0000     0.0459     1.0077     1.0077    -0.0000
 72 H      0.9646     1.0000     0.0354     0.9861     0.9861     0.0000
 73 H      1.0196     1.0000    -0.0196     0.9960     0.9960    -0.0000
 74 H      0.9725     1.0000     0.0275     1.0089     1.0089    -0.0000
 75 H      0.9659     1.0000     0.0341     0.9868     0.9868     0.0000
 76 H      0.9555     1.0000     0.0445     0.9700     0.9700     0.0000
 77 H      0.9552     1.0000     0.0448     0.9841     0.9841    -0.0000
 78 H      0.9560     1.0000     0.0440     0.9834     0.9834    -0.0000
 79 H      1.0115     1.0000    -0.0115     1.0021     1.0021     0.0000
 80 H      0.9728     1.0000     0.0272     1.0061     1.0061     0.0000
 81 H      0.9503     1.0000     0.0497     0.9852     0.9852     0.0000
 82 H      1.0230     1.0000    -0.0230     0.9953     0.9953    -0.0000
 83 H      0.9576     1.0000     0.0424     1.0109     1.0109    -0.0000
 84 H      0.9514     1.0000     0.0486     0.9865     0.9865    -0.0000
 85 H      0.9465     1.0000     0.0535     0.9713     0.9713    -0.0000
 86 H      0.9438     1.0000     0.0562     0.9841     0.9841     0.0000
 87 H      0.9460     1.0000     0.0540     0.9852     0.9852    -0.0000
 88 H      1.0313     1.0000    -0.0313     0.9907     0.9907    -0.0000
 89 H      0.9620     1.0000     0.0380     1.0057     1.0057    -0.0000

  Mayer bond orders larger than 0.100000
B(  0-C ,  1-N ) :   1.2168 B(  0-C , 17-C ) :   1.5056 B(  0-C , 52-H ) :   0.9665 
B(  1-N ,  8-C ) :   1.2085 B(  1-N , 10-C ) :   0.9229 B(  2-C , 12-C ) :   1.5842 
B(  2-C , 16-C ) :   1.2689 B(  2-C , 53-H ) :   0.9794 B(  3-N , 14-C ) :   1.1737 
B(  3-N , 16-C ) :   1.2020 B(  3-N , 61-H ) :   0.8950 B(  4-C ,  6-C ) :   1.3654 
B(  4-C , 17-C ) :   1.3657 B(  4-C , 18-C ) :   1.0428 B(  5-N , 19-C ) :   1.3623 
B(  5-N , 27-C ) :   1.4500 B(  6-C ,  8-C ) :   1.5071 B(  6-C , 54-H ) :   0.9704 
B(  7-N , 30-C ) :   1.1834 B(  7-N , 38-C ) :   1.2164 B(  7-N , 62-H ) :   0.9016 
B(  8-C , 55-H ) :   0.9674 B(  9-N , 41-C ) :   1.4364 B(  9-N , 49-C ) :   1.3915 
B( 10-C , 56-H ) :   0.9768 B( 10-C , 57-H ) :   0.9805 B( 10-C , 58-H ) :   0.9815 
B( 11-N , 20-C ) :   1.0945 B( 11-N , 24-C ) :   1.1343 B( 11-N , 25-C ) :   0.9629 
B( 12-C , 14-C ) :   1.2692 B( 12-C , 59-H ) :   0.9768 B( 13-N , 31-C ) :   1.0801 
B( 13-N , 35-C ) :   1.0695 B( 13-N , 36-C ) :   0.9836 B( 14-C , 18-C ) :   1.2661 
B( 15-N , 42-C ) :   1.1266 B( 15-N , 46-C ) :   1.0874 B( 15-N , 47-C ) :   0.9668 
B( 16-C , 51-C ) :   1.2518 B( 17-C , 60-H ) :   0.9708 B( 18-C , 19-C ) :   1.3168 
B( 19-C , 21-C ) :   1.1591 B( 20-C , 28-C ) :   1.6302 B( 20-C , 63-H ) :   0.9710 
B( 21-C , 26-C ) :   1.6856 B( 21-C , 64-H ) :   0.9714 B( 22-C , 23-C ) :   1.2533 
B( 22-C , 28-C ) :   1.2795 B( 22-C , 29-C ) :   1.2585 B( 23-C , 24-C ) :   1.6365 
B( 23-C , 65-H ) :   0.9723 B( 24-C , 66-H ) :   0.9691 B( 25-C , 67-H ) :   0.9762 
B( 25-C , 68-H ) :   0.9834 B( 25-C , 69-H ) :   0.9819 B( 26-C , 27-C ) :   1.1691 
B( 26-C , 70-H ) :   0.9759 B( 27-C , 29-C ) :   1.2443 B( 28-C , 71-H ) :   0.9709 
B( 29-C , 30-C ) :   1.1727 B( 30-C , 32-C ) :   1.3534 B( 31-C , 39-C ) :   1.6879 
B( 31-C , 72-H ) :   0.9709 B( 32-C , 37-C ) :   1.5069 B( 32-C , 73-H ) :   0.9771 
B( 33-C , 34-C ) :   1.2301 B( 33-C , 39-C ) :   1.2224 B( 33-C , 40-C ) :   1.3646 
B( 34-C , 35-C ) :   1.6865 B( 34-C , 74-H ) :   0.9710 B( 35-C , 75-H ) :   0.9709 
B( 36-C , 76-H ) :   0.9754 B( 36-C , 77-H ) :   0.9826 B( 36-C , 78-H ) :   0.9838 
B( 37-C , 38-C ) :   1.3464 B( 37-C , 79-H ) :   0.9794 B( 38-C , 40-C ) :   1.1767 
B( 39-C , 80-H ) :   0.9721 B( 40-C , 41-C ) :   1.1655 B( 41-C , 43-C ) :   1.2589 
B( 42-C , 50-C ) :   1.6429 B( 42-C , 81-H ) :   0.9696 B( 43-C , 48-C ) :   1.5922 
B( 43-C , 82-H ) :   0.9757 B( 44-C , 45-C ) :   1.2814 B( 44-C , 50-C ) :   1.2476 
B( 44-C , 51-C ) :   1.2463 B( 45-C , 46-C ) :   1.6333 B( 45-C , 83-H ) :   0.9702 
B( 46-C , 84-H ) :   0.9710 B( 47-C , 85-H ) :   0.9759 B( 47-C , 86-H ) :   0.9825 
B( 47-C , 87-H ) :   0.9830 B( 48-C , 49-C ) :   1.2530 B( 48-C , 88-H ) :   0.9725 
B( 49-C , 51-C ) :   1.1875 B( 50-C , 89-H ) :   0.9723 

-------
TIMINGS
-------

Total SCF time: 0 days 0 hours 25 min 51 sec 

Total time                  ....    1551.658 sec
Sum of individual times     ....    1547.903 sec  ( 99.8%)

Fock matrix formation       ....    1525.442 sec  ( 98.3%)
Diagonalization             ....       7.193 sec  (  0.5%)
Density matrix formation    ....       0.426 sec  (  0.0%)
Population analysis         ....       0.417 sec  (  0.0%)
Initial guess               ....       1.909 sec  (  0.1%)
Orbital Transformation      ....       0.000 sec  (  0.0%)
Orbital Orthonormalization  ....       0.000 sec  (  0.0%)
DIIS solution               ....       3.097 sec  (  0.2%)
SOSCF solution              ....       8.423 sec  (  0.5%)

Maximum memory used throughout the entire SCF-calculation: 302.6 MB


           ************************************************************
           *        Program running with 16 parallel MPI-processes    *
           *              working on a common directory               *
           ************************************************************

------------------------------------------------------------------------------
                                ORCA  MP2 
------------------------------------------------------------------------------

Freezing NCore=104 chemical core electrons

----------
MP2 ENERGY (disk based algorithm)
----------

Dimension of the basis                    ...  918
Memory devoted to MP2                     ... 2000 MB   
Data format for buffers                   ... DOUBLE
Compression type for matrix containers    ... UNCOMPRESSED

-------------------------------
PARTIAL EXCHANGE TRANSFORMATION
-------------------------------

Transformation type                        ... one-operator
Generation of integrals (i,mue|j,nue)      ... ON
Generation of integrals (mue,kappa|nue,tau)... OFF
Generation of integrals (i,mue|a,nue)      ... OFF
Dimension of the basis                     ...  918
Number of internal MOs                     ...  127 (  52- 178)
Pair cutoff                                ... 2.500e-12 Eh
Number of AO pairs in the trafo            ... 421821
Total Number of distinct AO pairs          ... 421821
Memory devoted for trafo                   ... 2000.0 MB 
Max. Number of MO pairs treated together   ...  311      
Number Format for Storage                  ... Double (8 Byte)
Integral package used                      ... LIBINT

Starting integral evaluation:
    ... done with AO integral generation
Closing buffer AOK     (37.64 GB; CompressionRatio= 1.35)
Collecting buffer AOK 
Number of MO pairs included in the trafo   ... 8128
------------------------
SORTING OF (i,mue|j,nue)
------------------------

IBATCH = 1 of  2
IBATCH = 2 of  2
Closing buffer KAO     (51.03 GB; CompressionRatio= 1.00)
Collecting buffer KAO 
N(AO-Batches) Done                         ...  85465211 
N(AO-Batches) Skipped                      ...  82016232 
N(IJ)-pairs Skipped                        ...         0 
TOTAL TIME for half transformation         ...  2567.406 sec
AO-integral generation                     ...   177.373 sec
Half transformation                        ...   317.460 sec
K-integral sorting                         ...  1931.044 sec
Process 10:   Internal MO 132
Process 13:   Internal MO 156
Process  4:   Internal MO  84
Process  7:   Internal MO 108

Finished integral transformation - now doing MP2 part

Process  1:   Internal MO  60
OPERATOR COMBINATION   0   0: ij=( 52..178, 52..178)
Process  0:   Internal MO  54
Process  0:   Internal MO  57
Process  1:   Internal MO  63
Process  3:   Internal MO  78
Process  8:   Internal MO 117
Process  2:   Internal MO  69
Process  1:   Internal MO  66
Process  6:   Internal MO 102
Process 14:   Internal MO 165
Process 11:   Internal MO 141
Process  2:   Internal MO  72
Process  5:   Internal MO  93
Process  9:   Internal MO 126
Process  3:   Internal MO  81
Process  2:   Internal MO  75
Process 12:   Internal MO 150
Process 15:   Internal MO 174
Process  4:   Internal MO  87
Process  7:   Internal MO 111
Process 10:   Internal MO 135
Process  8:   Internal MO 120
Process  6:   Internal MO 105
Process  5:   Internal MO  96
Process  4:   Internal MO  90
Process 13:   Internal MO 159
Process  9:   Internal MO 129
Process  7:   Internal MO 114
Process 11:   Internal MO 144
Process  5:   Internal MO  99
Process 14:   Internal MO 168
Process  8:   Internal MO 123
Process 10:   Internal MO 138
Process 12:   Internal MO 153
Process 15:   Internal MO 177
Process 11:   Internal MO 147
Process 13:   Internal MO 162
Process 14:   Internal MO 171
-----------------------------------------------
 MP2 CORRELATION ENERGY   :     -7.258674051 Eh
-----------------------------------------------


-------
TIMINGS
-------
Total time                : 2854.828 sec
Integral trafo            : 2569.302 sec ( 90.0%)
K(i,j)                    :    7.888 sec (  0.3%)
T(i,j)                    :    0.080 sec (  0.0%)

---------------------------------------
MP2 TOTAL ENERGY:    -2130.868778004 Eh
---------------------------------------

Maximum memory used throughout the entire MP2-calculation: 2275.2 MB

-------------------------   --------------------
FINAL SINGLE POINT ENERGY     -2130.868778004055
-------------------------   --------------------


                            ***************************************
                            *     ORCA property calculations      *
                            ***************************************


  WARNING: The energy has been calculated at the MP2 level but the densities
           used in the property calculations are still SCF densities
           MP2 response densities have not been calculated 
           use %mp2 Density relaxed end
           or  %mp2 Density unrelaxed end

                                    ---------------------
                                    Active property flags
                                    ---------------------
   (+) Dipole Moment


------------------------------------------------------------------------------
                       ORCA ELECTRIC PROPERTIES CALCULATION
------------------------------------------------------------------------------

Dipole Moment Calculation                       ... on
Quadrupole Moment Calculation                   ... off
Polarizability Calculation                      ... off
GBWName                                         ... /scratch/allen/tmpyp4_amber_gaff2/conf1/conf1/Conf91.orca.gbw
Electron density                                ... /scratch/allen/tmpyp4_amber_gaff2/conf1/conf1/Conf91.orca.scfp
The origin for moment calculation is the CENTER OF MASS  = ( 0.001730, -0.002987  0.004010)

-------------
DIPOLE MOMENT
-------------
                                X             Y             Z
Electronic contribution:     -4.73762       5.63791      -0.15178
Nuclear contribution   :     -0.02784       0.16605       0.20865
                        -----------------------------------------
Total Dipole Moment    :     -4.76546       5.80396       0.05687
                        -----------------------------------------
Magnitude (a.u.)       :      7.50991
Magnitude (Debye)      :     19.08868



--------------------
Rotational spectrum 
--------------------
 
Rotational constants in cm-1:     0.001498     0.001472     0.000763 
Rotational constants in MHz :    44.900811    44.137379    22.868897 

 Dipole components along the rotational axes: 
x,y,z [a.u.] :     6.640636     3.506904     0.048278 
x,y,z [Debye]:    16.879156     8.913841     0.122713 

 

Timings for individual modules:

Sum of individual times         ...     4428.730 sec (=  73.812 min)
GTO integral calculation        ...        2.618 sec (=   0.044 min)   0.1 %
SCF iterations                  ...     1552.558 sec (=  25.876 min)  35.1 %
MP2 module                      ...     2873.554 sec (=  47.893 min)  64.9 %
                             ****ORCA TERMINATED NORMALLY****
TOTAL RUN TIME: 0 days 1 hours 13 minutes 51 seconds 879 msec
# of primitive gaussian functions

