
                                 *****************
                                 * O   R   C   A *
                                 *****************

                                            #,                                       
                                            ###                                      
                                            ####                                     
                                            #####                                    
                                            ######                                   
                                           ########,                                 
                                     ,,################,,,,,                         
                               ,,#################################,,                 
                          ,,##########################################,,             
                       ,#########################################, ''#####,          
                    ,#############################################,,   '####,        
                  ,##################################################,,,,####,       
                ,###########''''           ''''###############################       
              ,#####''   ,,,,##########,,,,          '''####'''          '####       
            ,##' ,,,,###########################,,,                        '##       
           ' ,,###''''                  '''############,,,                           
         ,,##''                                '''############,,,,        ,,,,,,###''
      ,#''                                            '''#######################'''  
     '                                                          ''''####''''         
             ,#######,   #######,   ,#######,      ##                                
            ,#'     '#,  ##    ##  ,#'     '#,    #''#        ######   ,####,        
            ##       ##  ##   ,#'  ##            #'  '#       #        #'  '#        
            ##       ##  #######   ##           ,######,      #####,   #    #        
            '#,     ,#'  ##    ##  '#,     ,#' ,#      #,         ##   #,  ,#        
             '#######'   ##     ##  '#######'  #'      '#     #####' # '####'        



                  #######################################################
                  #                        -***-                        #
                  #          Department of theory and spectroscopy      #
                  #    Directorship and core code : Frank Neese         #
                  #        Max Planck Institute fuer Kohlenforschung    #
                  #                Kaiser Wilhelm Platz 1               #
                  #                 D-45470 Muelheim/Ruhr               #
                  #                      Germany                        #
                  #                                                     #
                  #                  All rights reserved                #
                  #                        -***-                        #
                  #######################################################


                         Program Version 5.0.4 -  RELEASE  -


 With contributions from (in alphabetic order):
   Daniel Aravena         : Magnetic Suceptibility
   Michael Atanasov       : Ab Initio Ligand Field Theory (pilot matlab implementation)
   Alexander A. Auer      : GIAO ZORA, VPT2 properties, NMR spectrum
   Ute Becker             : Parallelization
   Giovanni Bistoni       : ED, misc. LED, open-shell LED, HFLD
   Martin Brehm           : Molecular dynamics
   Dmytro Bykov           : SCF Hessian
   Vijay G. Chilkuri      : MRCI spin determinant printing, contributions to CSF-ICE
   Dipayan Datta          : RHF DLPNO-CCSD density
   Achintya Kumar Dutta   : EOM-CC, STEOM-CC
   Dmitry Ganyushin       : Spin-Orbit,Spin-Spin,Magnetic field MRCI
   Miquel Garcia          : C-PCM and meta-GGA Hessian, CC/C-PCM, Gaussian charge scheme
   Yang Guo               : DLPNO-NEVPT2, F12-NEVPT2, CIM, IAO-localization
   Andreas Hansen         : Spin unrestricted coupled pair/coupled cluster methods
   Benjamin Helmich-Paris : MC-RPA, TRAH-SCF, COSX integrals
   Lee Huntington         : MR-EOM, pCC
   Robert Izsak           : Overlap fitted RIJCOSX, COSX-SCS-MP3, EOM
   Marcus Kettner         : VPT2
   Christian Kollmar      : KDIIS, OOCD, Brueckner-CCSD(T), CCSD density, CASPT2, CASPT2-K
   Simone Kossmann        : Meta GGA functionals, TD-DFT gradient, OOMP2, MP2 Hessian
   Martin Krupicka        : Initial AUTO-CI
   Lucas Lang             : DCDCAS
   Marvin Lechner         : AUTO-CI (C++ implementation), FIC-MRCC
   Dagmar Lenk            : GEPOL surface, SMD
   Dimitrios Liakos       : Extrapolation schemes; Compound Job, initial MDCI parallelization
   Dimitrios Manganas     : Further ROCIS development; embedding schemes
   Dimitrios Pantazis     : SARC Basis sets
   Anastasios Papadopoulos: AUTO-CI, single reference methods and gradients
   Taras Petrenko         : DFT Hessian,TD-DFT gradient, ASA, ECA, R-Raman, ABS, FL, XAS/XES, NRVS
   Peter Pinski           : DLPNO-MP2, DLPNO-MP2 Gradient
   Christoph Reimann      : Effective Core Potentials
   Marius Retegan         : Local ZFS, SOC
   Christoph Riplinger    : Optimizer, TS searches, QM/MM, DLPNO-CCSD(T), (RO)-DLPNO pert. Triples
   Tobias Risthaus        : Range-separated hybrids, TD-DFT gradient, RPA, STAB
   Michael Roemelt        : Original ROCIS implementation
   Masaaki Saitow         : Open-shell DLPNO-CCSD energy and density
   Barbara Sandhoefer     : DKH picture change effects
   Avijit Sen             : IP-ROCIS
   Kantharuban Sivalingam : CASSCF convergence, NEVPT2, FIC-MRCI
   Bernardo de Souza      : ESD, SOC TD-DFT
   Georgi Stoychev        : AutoAux, RI-MP2 NMR, DLPNO-MP2 response
   Willem Van den Heuvel  : Paramagnetic NMR
   Boris Wezisla          : Elementary symmetry handling
   Frank Wennmohs         : Technical directorship


 We gratefully acknowledge several colleagues who have allowed us to
 interface, adapt or use parts of their codes:
   Stefan Grimme, W. Hujo, H. Kruse, P. Pracht,  : VdW corrections, initial TS optimization,
                  C. Bannwarth, S. Ehlert          DFT functionals, gCP, sTDA/sTD-DF
   Ed Valeev, F. Pavosevic, A. Kumar             : LibInt (2-el integral package), F12 methods
   Garnet Chan, S. Sharma, J. Yang, R. Olivares  : DMRG
   Ulf Ekstrom                                   : XCFun DFT Library
   Mihaly Kallay                                 : mrcc  (arbitrary order and MRCC methods)
   Jiri Pittner, Ondrej Demel                    : Mk-CCSD
   Frank Weinhold                                : gennbo (NPA and NBO analysis)
   Christopher J. Cramer and Donald G. Truhlar   : smd solvation model
   Lars Goerigk                                  : TD-DFT with DH, B97 family of functionals
   V. Asgeirsson, H. Jonsson                     : NEB implementation
   FAccTs GmbH                                   : IRC, NEB, NEB-TS, DLPNO-Multilevel, CI-OPT
                                                   MM, QMMM, 2- and 3-layer-ONIOM, Crystal-QMMM,
                                                   LR-CPCM, SF, NACMEs, symmetry and pop. for TD-DFT,
                                                   nearIR, NL-DFT gradient (VV10), updates on ESD,
                                                   ML-optimized integration grids
   S Lehtola, MJT Oliveira, MAL Marques          : LibXC Library
   Liviu Ungur et al                             : ANISO software


 Your calculation uses the libint2 library for the computation of 2-el integrals
 For citations please refer to: http://libint.valeyev.net

 Your ORCA version has been built with support for libXC version: 5.1.0
 For citations please refer to: https://tddft.org/programs/libxc/

 This ORCA versions uses:
   CBLAS   interface :  Fast vector & matrix operations
   LAPACKE interface :  Fast linear algebra routines
   SCALAPACK package :  Parallel linear algebra routines
   Shared memory     :  Shared parallel matrices
   BLAS/LAPACK       :  OpenBLAS 0.3.15  USE64BITINT DYNAMIC_ARCH NO_AFFINITY Sandybridge SINGLE_THREADED
        Core in use  :  Sandybridge
   Copyright (c) 2011-2014, The OpenBLAS Project


================================================================================

----- Orbital basis set information -----
Your calculation utilizes the basis: cc-pVDZ 
       H, B-Ne : Obtained from the ccRepo (grant-hill.group.shef.ac.uk/ccrepo) Feb. 2017
                 T. H. Dunning, Jr., J. Chem. Phys. 90, 1007 (1989)
            He : Obtained from the ccRepo (grant-hill.group.shef.ac.uk/ccrepo) Feb. 2017
                 D. E. Woon, T. H. Dunning, Jr., J. Chem. Phys. 100, 2975 (1994)
  Li-Be, Na-Mg : Obtained from the ccRepo (grant-hill.group.shef.ac.uk/ccrepo) Feb. 2017
                 B. P. Prascher, D. E. Woon, K. A. Peterson, T. H. Dunning, Jr., A. K. Wilson, Theor. Chem. Acc. 128, 69 (2011)
         Al-Ar : Obtained from the ccRepo (grant-hill.group.shef.ac.uk/ccrepo) Feb. 2017
                 D. E. Woon, T. H. Dunning, Jr., J. Chem. Phys. 98, 1358 (1993)
            Ca : Obtained from the Peterson Research Group Website (tyr0.chem.wsu.edu/~kipeters) Feb. 2017
                 J. Koput, K. A. Peterson, J. Phys. Chem. 106, 9595 (2002)
         Sc-Zn : Obtained from the ccRepo (grant-hill.group.shef.ac.uk/ccrepo) Feb. 2017
                 N. B. Balabanov, K. A. Peterson, J. Chem. Phys. 123, 064107 (2005)
                 N. B. Balabanov, K. A. Peterson, J. Chem. Phys. 125, 074110 (2006)
         Ga-Kr : Obtained from the ccRepo (grant-hill.group.shef.ac.uk/ccrepo) Feb. 2017
                 A. K. Wilson, D. E. Woon, K. A. Peterson, T. H. Dunning, Jr., J. Chem. Phys. 110, 7667 (1999)

================================================================================
                                        WARNINGS
                       Please study these warnings very carefully!
================================================================================


WARNING: No MP2 level density has been requested!
         To caclulate MP2 level properties use
         %mp2 Density relaxed end
         or
         %mp2 Density unrelaxed end

WARNING: Post HF methods need fully converged wavefunctions
  ===> : Setting SCFConvForced true
         You can overwrite this default with %scf ConvForced false 


INFO   : the flag for use of the SHARK integral package has been found!

================================================================================
                                       INPUT FILE
================================================================================
NAME = /scratch/allen/tmpyp4_amber_gaff2/2.Mdgx/conf11/conf11/Conf287.orca
|  1> ! PAL2
|  2> ! mp2 cc-pvdz TightSCF  NoKeepInts
|  3> 
|  4> %scf
|  5>   MaxCore 2000
|  6> end
|  7> %mp2
|  8>   MaxCore 2000
|  9> end
| 10> * xyz 0 1
| 11>    C       -3.74600         5.98500         1.21200
| 12>    C        1.47400         4.04100         0.05700
| 13>    C       -2.80200         4.09300         0.04900
| 14>    C       -3.47900         4.52700        -1.10100
| 15>    C       -4.25800         5.66600        -1.05900
| 16>    C       -5.19700         7.61300         0.08900
| 17>    C        0.13200         4.30700         0.06100
| 18>    C       -0.56900         3.05600         0.04700
| 19>    C        1.64900         2.61800         0.02300
| 20>    C       -2.95100         4.85600         1.21800
| 21>    N       -4.38600         6.37600         0.08600
| 22>    N        0.38800         2.06700         0.02500
| 23>    N       -2.01000         0.39500        -0.07500
| 24>    N       -0.38800        -2.07400        -0.02700
| 25>    N        2.01000        -0.40100         0.06500
| 26>    C       -1.96000         2.86100         0.02400
| 27>    C       -2.62300         1.61500        -0.01800
| 28>    C       -5.57300        -4.32900         1.06600
| 29>    C       -4.07300         1.47100         0.05600
| 30>    C       -4.10600        -2.75600        -0.02600
| 31>    C       -4.99500        -2.75700        -1.11100
| 32>    C       -6.13200        -3.54200        -1.07600
| 33>    C       -7.65100        -5.11300         0.04000
| 34>    C       -4.32400         0.14100         0.03700
| 35>    C       -3.02500        -0.52000        -0.04800
| 36>    C       -4.42200        -3.56600         1.07500
| 37>    N       -6.40700        -4.31300         0.00100
| 38>    C       -2.86700        -1.92200        -0.04000
| 39>    C       -1.65000        -2.62400        -0.02700
| 40>    C        3.56800        -6.14200        -1.04000
| 41>    C       -1.47600        -4.04900        -0.03400
| 42>    C        2.80300        -4.09900        -0.00800
| 43>    C        3.65700        -4.38400         1.06900
| 44>    C        4.42700        -5.53000         1.05900
| 45>    C        5.24500        -7.58800         0.01400
| 46>    C       -0.13400        -4.31500        -0.02200
| 47>    C        0.56800        -3.06400        -0.02700
| 48>    C        2.77500        -5.01200        -1.07400
| 49>    N        4.37600        -6.39100         0.01700
| 50>    C        1.95900        -2.86900        -0.00900
| 51>    C        2.62100        -1.62200         0.00900
| 52>    C        5.54300         4.33900        -1.13000
| 53>    C        4.07000        -1.47900        -0.09400
| 54>    C        4.10400         2.75100        -0.02100
| 55>    C        5.02700         2.72900         1.03600
| 56>    C        6.16600         3.50900         0.97800
| 57>    C        7.61900         5.15300        -0.11500
| 58>    C        4.32100        -0.14800        -0.09200
| 59>    C        3.02500         0.51400         0.01500
| 60>    C        4.38700         3.58200        -1.11500
| 61>    C        2.86600         1.91600         0.01300
| 62>    N        6.41300         4.29600        -0.09500
| 63>    H       -3.89900         6.59600         2.09300
| 64>    H        2.27400         4.76600         0.08100
| 65>    H       -3.39700         3.98600        -2.03600
| 66>    H       -4.79200         6.04400        -1.92100
| 67>    H       -4.57300         8.44900        -0.23600
| 68>    H       -6.03700         7.48400        -0.59400
| 69>    H       -5.56300         7.79000         1.10000
| 70>    H       -0.33200         5.28200         0.06900
| 71>    H       -2.46500         4.56500         2.14200
| 72>    H        0.18200         1.07200         0.00500
| 73>    H       -0.18300        -1.08000        -0.02100
| 74>    H       -5.86400        -4.96200         1.89500
| 75>    H       -4.79400         2.27200         0.13900
| 76>    H       -4.80000        -2.16000        -1.99400
| 77>    H       -6.84100        -3.58200        -1.89300
| 78>    H       -8.42800        -4.53600         0.54600
| 79>    H       -7.95600        -5.33700        -0.98100
| 80>    H       -7.45600        -6.03700         0.58400
| 81>    H       -5.28700        -0.34400         0.10000
| 82>    H       -3.78000        -3.60100         1.94700
| 83>    H        3.58700        -6.86800        -1.84300
| 84>    H       -2.27600        -4.77400        -0.05000
| 85>    H        3.71400        -3.72400         1.92600
| 86>    H        5.09200        -5.79500         1.87100
| 87>    H        6.20500        -7.32900        -0.43900
| 88>    H        5.39300        -7.91700         1.04200
| 89>    H        4.75900        -8.37300        -0.56400
| 90>    H        0.32900        -5.29000        -0.00800
| 91>    H        2.14600        -4.84200        -1.94000
| 92>    H        5.80800         4.98600        -1.95600
| 93>    H        4.78800        -2.28100        -0.18500
| 94>    H        4.86000         2.11400         1.91200
| 95>    H        6.90100         3.53100         1.77200
| 96>    H        7.38300         6.10900         0.35600
| 97>    H        8.41400         4.65200         0.43500
| 98>    H        7.92100         5.31000        -1.15000
| 99>    H        5.28300         0.33600        -0.17900
|100>    H        3.72000         3.63200        -1.96700
|101> *
|102> 
|103>                          ****END OF INPUT****
================================================================================

                       ****************************
                       * Single Point Calculation *
                       ****************************

---------------------------------
CARTESIAN COORDINATES (ANGSTROEM)
---------------------------------
  C     -3.746000    5.985000    1.212000
  C      1.474000    4.041000    0.057000
  C     -2.802000    4.093000    0.049000
  C     -3.479000    4.527000   -1.101000
  C     -4.258000    5.666000   -1.059000
  C     -5.197000    7.613000    0.089000
  C      0.132000    4.307000    0.061000
  C     -0.569000    3.056000    0.047000
  C      1.649000    2.618000    0.023000
  C     -2.951000    4.856000    1.218000
  N     -4.386000    6.376000    0.086000
  N      0.388000    2.067000    0.025000
  N     -2.010000    0.395000   -0.075000
  N     -0.388000   -2.074000   -0.027000
  N      2.010000   -0.401000    0.065000
  C     -1.960000    2.861000    0.024000
  C     -2.623000    1.615000   -0.018000
  C     -5.573000   -4.329000    1.066000
  C     -4.073000    1.471000    0.056000
  C     -4.106000   -2.756000   -0.026000
  C     -4.995000   -2.757000   -1.111000
  C     -6.132000   -3.542000   -1.076000
  C     -7.651000   -5.113000    0.040000
  C     -4.324000    0.141000    0.037000
  C     -3.025000   -0.520000   -0.048000
  C     -4.422000   -3.566000    1.075000
  N     -6.407000   -4.313000    0.001000
  C     -2.867000   -1.922000   -0.040000
  C     -1.650000   -2.624000   -0.027000
  C      3.568000   -6.142000   -1.040000
  C     -1.476000   -4.049000   -0.034000
  C      2.803000   -4.099000   -0.008000
  C      3.657000   -4.384000    1.069000
  C      4.427000   -5.530000    1.059000
  C      5.245000   -7.588000    0.014000
  C     -0.134000   -4.315000   -0.022000
  C      0.568000   -3.064000   -0.027000
  C      2.775000   -5.012000   -1.074000
  N      4.376000   -6.391000    0.017000
  C      1.959000   -2.869000   -0.009000
  C      2.621000   -1.622000    0.009000
  C      5.543000    4.339000   -1.130000
  C      4.070000   -1.479000   -0.094000
  C      4.104000    2.751000   -0.021000
  C      5.027000    2.729000    1.036000
  C      6.166000    3.509000    0.978000
  C      7.619000    5.153000   -0.115000
  C      4.321000   -0.148000   -0.092000
  C      3.025000    0.514000    0.015000
  C      4.387000    3.582000   -1.115000
  C      2.866000    1.916000    0.013000
  N      6.413000    4.296000   -0.095000
  H     -3.899000    6.596000    2.093000
  H      2.274000    4.766000    0.081000
  H     -3.397000    3.986000   -2.036000
  H     -4.792000    6.044000   -1.921000
  H     -4.573000    8.449000   -0.236000
  H     -6.037000    7.484000   -0.594000
  H     -5.563000    7.790000    1.100000
  H     -0.332000    5.282000    0.069000
  H     -2.465000    4.565000    2.142000
  H      0.182000    1.072000    0.005000
  H     -0.183000   -1.080000   -0.021000
  H     -5.864000   -4.962000    1.895000
  H     -4.794000    2.272000    0.139000
  H     -4.800000   -2.160000   -1.994000
  H     -6.841000   -3.582000   -1.893000
  H     -8.428000   -4.536000    0.546000
  H     -7.956000   -5.337000   -0.981000
  H     -7.456000   -6.037000    0.584000
  H     -5.287000   -0.344000    0.100000
  H     -3.780000   -3.601000    1.947000
  H      3.587000   -6.868000   -1.843000
  H     -2.276000   -4.774000   -0.050000
  H      3.714000   -3.724000    1.926000
  H      5.092000   -5.795000    1.871000
  H      6.205000   -7.329000   -0.439000
  H      5.393000   -7.917000    1.042000
  H      4.759000   -8.373000   -0.564000
  H      0.329000   -5.290000   -0.008000
  H      2.146000   -4.842000   -1.940000
  H      5.808000    4.986000   -1.956000
  H      4.788000   -2.281000   -0.185000
  H      4.860000    2.114000    1.912000
  H      6.901000    3.531000    1.772000
  H      7.383000    6.109000    0.356000
  H      8.414000    4.652000    0.435000
  H      7.921000    5.310000   -1.150000
  H      5.283000    0.336000   -0.179000
  H      3.720000    3.632000   -1.967000

----------------------------
CARTESIAN COORDINATES (A.U.)
----------------------------
  NO LB      ZA    FRAG     MASS         X           Y           Z
   0 C     6.0000    0    12.011   -7.078914   11.310011    2.290348
   1 C     6.0000    0    12.011    2.785456    7.636383    0.107714
   2 C     6.0000    0    12.011   -5.295013    7.734649    0.092597
   3 C     6.0000    0    12.011   -6.574357    8.554790   -2.080588
   4 C     6.0000    0    12.011   -8.046454   10.707188   -2.001220
   5 C     6.0000    0    12.011   -9.820907   14.386485    0.168186
   6 C     6.0000    0    12.011    0.249444    8.139050    0.115273
   7 C     6.0000    0    12.011   -1.075254    5.775003    0.088817
   8 C     6.0000    0    12.011    3.116158    4.947303    0.043464
   9 C     6.0000    0    12.011   -5.576582    9.176510    2.301686
  10 N     7.0000    0    14.007   -8.288339   12.048894    0.162516
  11 N     7.0000    0    14.007    0.733214    3.906064    0.047243
  12 N     7.0000    0    14.007   -3.798350    0.746442   -0.141729
  13 N     7.0000    0    14.007   -0.733214   -3.919292   -0.051023
  14 N     7.0000    0    14.007    3.798350   -0.757780    0.122832
  15 C     6.0000    0    12.011   -3.703863    5.406506    0.045353
  16 C     6.0000    0    12.011   -4.956752    3.051908   -0.034015
  17 C     6.0000    0    12.011  -10.531444   -8.180624    2.014448
  18 C     6.0000    0    12.011   -7.696855    2.779787    0.105825
  19 C     6.0000    0    12.011   -7.759216   -5.208085   -0.049133
  20 C     6.0000    0    12.011   -9.439182   -5.209975   -2.099486
  21 C     6.0000    0    12.011  -11.587801   -6.693410   -2.033345
  22 C     6.0000    0    12.011  -14.458295   -9.662170    0.075589
  23 C     6.0000    0    12.011   -8.171176    0.266451    0.069920
  24 C     6.0000    0    12.011   -5.716422   -0.982658   -0.090707
  25 C     6.0000    0    12.011   -8.356369   -6.738763    2.031456
  26 N     7.0000    0    14.007  -12.107475   -8.150389    0.001890
  27 C     6.0000    0    12.011   -5.417845   -3.632054   -0.075589
  28 C     6.0000    0    12.011   -3.118048   -4.958641   -0.051023
  29 C     6.0000    0    12.011    6.742543  -11.606698   -1.965315
  30 C     6.0000    0    12.011   -2.789236   -7.651501   -0.064251
  31 C     6.0000    0    12.011    5.296902   -7.745987   -0.015118
  32 C     6.0000    0    12.011    6.910728   -8.284559    2.020117
  33 C     6.0000    0    12.011    8.365818  -10.450186    2.001220
  34 C     6.0000    0    12.011    9.911614  -14.339242    0.026456
  35 C     6.0000    0    12.011   -0.253223   -8.154168   -0.041574
  36 C     6.0000    0    12.011    1.073364   -5.790121   -0.051023
  37 C     6.0000    0    12.011    5.243990   -9.471307   -2.029566
  38 N     7.0000    0    14.007    8.269442  -12.077240    0.032125
  39 C     6.0000    0    12.011    3.701973   -5.421624   -0.017008
  40 C     6.0000    0    12.011    4.952972   -3.065136    0.017008
  41 C     6.0000    0    12.011   10.474752    8.199522   -2.135391
  42 C     6.0000    0    12.011    7.691185   -2.794905   -0.177634
  43 C     6.0000    0    12.011    7.755436    5.198637   -0.039684
  44 C     6.0000    0    12.011    9.499653    5.157063    1.957756
  45 C     6.0000    0    12.011   11.652051    6.631049    1.848152
  46 C     6.0000    0    12.011   14.397823    9.737759   -0.217319
  47 C     6.0000    0    12.011    8.165507   -0.279679   -0.173855
  48 C     6.0000    0    12.011    5.716422    0.971319    0.028346
  49 C     6.0000    0    12.011    8.290229    6.768999   -2.107045
  50 C     6.0000    0    12.011    5.415955    3.620715    0.024566
  51 N     7.0000    0    14.007   12.118814    8.118263   -0.179524
  52 H     1.0000    0     1.008   -7.368042   12.464634    3.955197
  53 H     1.0000    0     1.008    4.297237    9.006435    0.153068
  54 H     1.0000    0     1.008   -6.419400    7.532448   -3.847482
  55 H     1.0000    0     1.008   -9.055568   11.421505   -3.630164
  56 H     1.0000    0     1.008   -8.641718   15.966296   -0.445975
  57 H     1.0000    0     1.008  -11.408277   14.142710   -1.122497
  58 H     1.0000    0     1.008  -10.512546   14.720967    2.078699
  59 H     1.0000    0     1.008   -0.627389    9.981533    0.130391
  60 H     1.0000    0     1.008   -4.658175    8.626600    4.047793
  61 H     1.0000    0     1.008    0.343930    2.025786    0.009449
  62 H     1.0000    0     1.008   -0.345820   -2.040904   -0.039684
  63 H     1.0000    0     1.008  -11.081354   -9.376821    3.581031
  64 H     1.0000    0     1.008   -9.059347    4.293458    0.262672
  65 H     1.0000    0     1.008   -9.070685   -4.081808   -3.768114
  66 H     1.0000    0     1.008  -12.927616   -6.768999   -3.577252
  67 H     1.0000    0     1.008  -15.926612   -8.571798    1.031790
  68 H     1.0000    0     1.008  -15.034661  -10.085468   -1.853821
  69 H     1.0000    0     1.008  -14.089798  -11.408277    1.103600
  70 H     1.0000    0     1.008   -9.990982   -0.650066    0.188973
  71 H     1.0000    0     1.008   -7.143165   -6.804904    3.679297
  72 H     1.0000    0     1.008    6.778448  -12.978639   -3.482765
  73 H     1.0000    0     1.008   -4.301017   -9.021553   -0.094486
  74 H     1.0000    0     1.008    7.018443   -7.037340    3.639613
  75 H     1.0000    0     1.008    9.622485  -10.950963    3.535678
  76 H     1.0000    0     1.008   11.725751  -13.849803   -0.829590
  77 H     1.0000    0     1.008   10.191293  -14.960962    1.969095
  78 H     1.0000    0     1.008    8.993207  -15.822677   -1.065806
  79 H     1.0000    0     1.008    0.621720   -9.996651   -0.015118
  80 H     1.0000    0     1.008    4.055352   -9.150054   -3.666069
  81 H     1.0000    0     1.008   10.975529    9.422175   -3.696304
  82 H     1.0000    0     1.008    9.048009   -4.310465   -0.349599
  83 H     1.0000    0     1.008    9.184069    3.994881    3.613156
  84 H     1.0000    0     1.008   13.041000    6.672623    3.348595
  85 H     1.0000    0     1.008   13.951848   11.544337    0.672743
  86 H     1.0000    0     1.008   15.900156    8.791006    0.822031
  87 H     1.0000    0     1.008   14.968521   10.034446   -2.173185
  88 H     1.0000    0     1.008    9.983423    0.634948   -0.338261
  89 H     1.0000    0     1.008    7.029781    6.863485   -3.717091

--------------------------------
INTERNAL COORDINATES (ANGSTROEM)
--------------------------------
 C      0   0   0     0.000000000000     0.00000000     0.00000000
 C      1   0   0     5.688722264270     0.00000000     0.00000000
 C      1   2   0     2.413165763059    43.55346960     0.00000000
 C      3   1   2     1.403276522999    87.92238294   238.89566774
 C      4   3   1     1.380552787835   120.16270115     0.12140475
 C      5   4   3     2.447536312294   152.50595018     1.67775819
 C      2   1   3     1.368114030335    14.73209658    21.22116206
 C      7   2   3     1.434084376876   108.05010202     0.84668783
 C      2   1   3     1.434123425651   117.12048498   325.71829773
 C      1   2   3     1.380833806075    36.21324356    46.64968646
 N      1   2   3     1.352906870409   111.33739500   293.23236979
 N      9   2   1     1.376127174356   106.58526707    11.98452047
 N     12   9   2     2.925062050624   168.53581413   171.12065651
 N     13  12   9     2.954513327098    91.55032014    11.12112580
 N     14  13  12     2.925371258490    88.43092389   359.84326247
 C      8   7   2     1.404790019896   127.24786865   181.11170171
 C     13  12   9     1.366535034311    81.72106996   188.00453233
 C     14  13  12     5.758810554272    80.56209567   166.76250791
 C     17  13  12     1.459010623676   111.08861209   183.82872609
 C     18  14  13     2.412235892279    27.27532823    36.33507194
 C     20  18  14     1.402692767501    87.95206320   148.94598259
 C     21  20  18     1.382106725257   120.14573887   359.70382047
 C     18  14  13     2.446510985056   144.15733107    82.80075377
 C     19  17  13     1.353610726908   106.29293361   359.75308708
 C     13  12   9     1.366813447402   172.21332906    33.46711076
 C     18  14  13     1.380960173213    15.08449437   309.23336894
 N     22  21  20     1.352773077792   120.73759875     0.27865223
 C     25  13  17     1.410897586645   125.60330303   182.37774668
 C     14  13  12     1.376642291955    80.24689249   177.85461986
 C     14  13  12     5.764089607215   164.51507311   312.20821879
 C     29  14  13     1.435600919476   106.58649366   178.76395472
 C     30  14  13     2.413316804732    27.10625047    82.12560436
 C     32  30  14     1.403734305344    87.90059683   149.76154742
 C     33  32  30     1.380694028378   120.14881443   359.74174632
 C     34  33  32     2.448777858443   152.49203239     2.45173620
 C     31  29  14     1.368160809262   108.16950133     0.70383075
 C     14  13  12     1.376239804685   169.26375223   353.09862627
 C     30  14  13     1.380907310430    14.68948582   353.70041132
 N     34  33  32     1.352658863128   120.85575621     0.19603406
 C     37  14  29     1.404717053360   126.01551127   180.90772073
 C     15  14  13     1.366491126938    81.61824056   183.09049352
 C      2   1   3     4.249062720177   155.70951777   136.71034320
 C     41  15  14     1.459677704153   111.05201287   175.08990246
 C     42   2   1     2.412953791518    41.78584867   164.37805876
 C     44  42   2     1.403446472082    87.95153797   233.97558675
 C     45  44  42     1.381696421071   120.11137308     0.19721020
 C     42   2   1     2.450019795838   135.97209175    74.69290786
 C     43  41  15     1.354461516618   106.26758155     0.30894352
 C     15  14  13     1.367461151185   171.87382904   332.35056460
 C     42   2   1     1.381886391857    32.59078432   213.23333795
 C      9   2   1     1.404988612053   126.98745415   192.98885800
 N     42   2   1     1.352765315936   113.57249190   102.42949706
 H      1   2   3     1.083000923361   119.18240775   153.05538858
 H      2   1   3     1.079907866440   116.47660398   157.63983969
 H      4   3   1     1.083342051247   121.08650273   179.61496439
 H      5   4   3     1.082166345808   122.84648408   179.49408054
 H      6   5   4     1.092655938528   104.47922103   100.06966938
 H      6   5   4     1.090288952526    84.70012779   209.52336598
 H      6   5   4     1.089681604874   133.88789200   322.28268981
 H      7   2  54     1.079807853278   126.66122480     1.30600390
 H     10   1   2     1.083814098450   118.77712174    96.46225586
 H     12   9   2     1.016297692608   125.29023241   180.00180175
 H     14  13  12     1.014936943854    44.97226959   359.42596618
 H     18  14  13     1.082871645210   128.03556573   234.20482432
 H     19  17  13     1.080893611786   126.41830519   178.11313280
 H     21  20  18     1.083569563987   121.05669627   180.67006309
 H     22  21  20     1.082483256222   122.73097286   180.59748951
 H     23  18  14     1.092105306278   103.92715769   234.93429879
 H     23  18  14     1.088871893291   134.19244188    12.25587044
 H     23  18  14     1.089833473518    84.85857450   125.45241208
 H     24  19  17     1.080075460327   127.28078426   178.44613241
 H     26  18  14     1.083408048706   118.76995697   244.94906660
 H     30  14  13     1.082703098730   127.99711412   279.66882698
 H     31  29  14     1.079759695488   125.22293469   180.92530585
 H     33  32  30     1.083188810873   121.01964473   180.74284758
 H     34  33  32     1.082494341787   122.70821597   180.59516895
 H     35  34  33     1.092652735319   105.73575241    97.19771933
 H     35  34  33     1.089462711615    84.05943581   206.43036958
 H     35  34  33     1.089268102902   133.08365142   318.50306270
 H     36  31  29     1.079439669458   126.61599965   178.98859863
 H     38  30  73     1.083742127999   118.77264435   359.90091293
 H     42   2   1     1.082178358682   119.31790784   319.06102751
 H     43  41  15     1.080281907652   126.36969097   182.06329380
 H     45  44  42     1.083277434455   121.10105945   179.58025624
 H     46  45  44     1.082194529648   122.72144639   179.46906377
 H     47  42   2     1.091546151109   106.65128841   315.16475048
 H     47  42   2     1.088818625851   132.46019523    94.52397119
 H     47  42   2     1.089531091801    83.63838232   206.04504406
 H     48  43  41     1.080402239909   127.23657387   181.62955349
 H     50  42   2     1.083186502870   118.77001737    94.71359229

---------------------------
INTERNAL COORDINATES (A.U.)
---------------------------
 C      0   0   0     0.000000000000     0.00000000     0.00000000
 C      1   0   0    10.750127131410     0.00000000     0.00000000
 C      1   2   0     4.560222407937    43.55346960     0.00000000
 C      3   1   2     2.651808318629    87.92238294   238.89566774
 C      4   3   1     2.608866682430   120.16270115     0.12140475
 C      5   4   3     4.625173333064   152.50595018     1.67775819
 C      2   1   3     2.585360837309    14.73209658    21.22116206
 C      7   2   3     2.710026725231   108.05010202     0.84668783
 C      2   1   3     2.710100516721   117.12048498   325.71829773
 C      1   2   3     2.609397729942    36.21324356    46.64968646
 N      1   2   3     2.556623469774   111.33739500   293.23236979
 N      9   2   1     2.600503484979   106.58526707    11.98452047
 N     12   9   2     5.527566200405   168.53581413   171.12065651
 N     13  12   9     5.583221047236    91.55032014    11.12112580
 N     14  13  12     5.528150518591    88.43092389   359.84326247
 C      8   7   2     2.654668413270   127.24786865   181.11170171
 C     13  12   9     2.582376967257    81.72106996   188.00453233
 C     14  13  12    10.882574804710    80.56209567   166.76250791
 C     17  13  12     2.757130505230   111.08861209   183.82872609
 C     18  14  13     4.558465206823    27.27532823    36.33507194
 C     20  18  14     2.650705180609    87.95206320   148.94598259
 C     21  20  18     2.611803198586   120.14573887   359.70382047
 C     18  14  13     4.623235745386   144.15733107    82.80075377
 C     19  17  13     2.557953565794   106.29293361   359.75308708
 C     13  12   9     2.582903091751   172.21332906    33.46711076
 C     18  14  13     2.609636529225    15.08449437   309.23336894
 N     22  21  20     2.556370638369   120.73759875     0.27865223
 C     25  13  17     2.666210041769   125.60330303   182.37774668
 C     14  13  12     2.601476916169    80.24689249   177.85461986
 C     14  13  12    10.892550769017   164.51507311   312.20821879
 C     29  14  13     2.712892575415   106.58649366   178.76395472
 C     30  14  13     4.560507835333    27.10625047    82.12560436
 C     32  30  14     2.652673401891    87.90059683   149.76154742
 C     33  32  30     2.609133588376   120.14881443   359.74174632
 C     34  33  32     4.627519515267   152.49203239     2.45173620
 C     31  29  14     2.585449236669   108.16950133     0.70383075
 C     14  13  12     2.600716325456   169.26375223   353.09862627
 C     30  14  13     2.609536633043    14.68948582   353.70041132
 N     34  33  32     2.556154803934   120.85575621     0.19603406
 C     37  14  29     2.654530526499   126.01551127   180.90772073
 C     15  14  13     2.582293994346    81.61824056   183.09049352
 C      2   1   3     8.029564866989   155.70951777   136.71034320
 C     41  15  14     2.758391104639   111.05201287   175.08990246
 C     42   2   1     4.559821839776    41.78584867   164.37805876
 C     44  42   2     2.652129475853    87.95153797   233.97558675
 C     45  44  42     2.611027836043   120.11137308     0.19721020
 C     42   2   1     4.629866436820   135.97209175    74.69290786
 C     43  41  15     2.559561325344   106.26758155     0.30894352
 C     15  14  13     2.584127074516   171.87382904   332.35056460
 C     42   2   1     2.611386828803    32.59078432   213.23333795
 C      9   2   1     2.655043698059   126.98745415   192.98885800
 N     42   2   1     2.556355970587   113.57249190   102.42949706
 H      1   2   3     2.046575147935   119.18240775   153.05538858
 H      2   1   3     2.040730117440   116.47660398   157.63983969
 H      4   3   1     2.047219786217   121.08650273   179.61496439
 H      5   4   3     2.044998024924   122.84648408   179.49408054
 H      6   5   4     2.064820482420   104.47922103   100.06966938
 H      6   5   4     2.060347527114    84.70012779   209.52336598
 H      6   5   4     2.059199806383   133.88789200   322.28268981
 H      7   2  54     2.040541119952   126.66122480     1.30600390
 H     10   1   2     2.048111826154   118.77712174    96.46225586
 H     12   9   2     1.920524309565   125.29023241   180.00180175
 H     14  13  12     1.917952867083    44.97226959   359.42596618
 H     18  14  13     2.046330847636   128.03556573   234.20482432
 H     19  17  13     2.042592906181   126.41830519   178.11313280
 H     21  20  18     2.047649722989   121.05669627   180.67006309
 H     22  21  20     2.045596898814   122.73097286   180.59748951
 H     23  18  14     2.063779938267   103.92715769   234.93429879
 H     23  18  14     2.057669673245   134.19244188    12.25587044
 H     23  18  14     2.059486796529    84.85857450   125.45241208
 H     24  19  17     2.041046823986   127.28078426   178.44613241
 H     26  18  14     2.047344503340   118.76995697   244.94906660
 H     30  14  13     2.046012340948   127.99711412   279.66882698
 H     31  29  14     2.040450114918   125.22293469   180.92530585
 H     33  32  30     2.046930203877   121.01964473   180.74284758
 H     34  33  32     2.045617847496   122.70821597   180.59516895
 H     35  34  33     2.064814429233   105.73575241    97.19771933
 H     35  34  33     2.058786158072    84.05943581   206.43036958
 H     35  34  33     2.058418400901   133.08365142   318.50306270
 H     36  31  29     2.039845353366   126.61599965   178.98859863
 H     38  30  73     2.047975821711   118.77264435   359.90091293
 H     42   2   1     2.045020725966   119.31790784   319.06102751
 H     43  41  15     2.041436952892   126.36969097   182.06329380
 H     45  44  42     2.047097678177   121.10105945   179.58025624
 H     46  45  44     2.045051284662   122.72144639   179.46906377
 H     47  42   2     2.062723288131   106.65128841   315.16475048
 H     47  42   2     2.057569012371   132.46019523    94.52397119
 H     47  42   2     2.058915377895    83.63838232   206.04504406
 H     48  43  41     2.041664347903   127.23657387   181.62955349
 H     50  42   2     2.046925842384   118.77001737    94.71359229

---------------------
BASIS SET INFORMATION
---------------------
There are 3 groups of distinct atoms

 Group   1 Type C   : 17s4p1d contracted to 3s2p1d pattern {881/31/1}
 Group   2 Type N   : 17s4p1d contracted to 3s2p1d pattern {881/31/1}
 Group   3 Type H   : 4s1p contracted to 2s1p pattern {31/1}

Atom   0C    basis set group =>   1
Atom   1N    basis set group =>   2
Atom   2C    basis set group =>   1
Atom   3N    basis set group =>   2
Atom   4C    basis set group =>   1
Atom   5N    basis set group =>   2
Atom   6C    basis set group =>   1
Atom   7N    basis set group =>   2
Atom   8C    basis set group =>   1
Atom   9N    basis set group =>   2
Atom  10C    basis set group =>   1
Atom  11N    basis set group =>   2
Atom  12C    basis set group =>   1
Atom  13N    basis set group =>   2
Atom  14C    basis set group =>   1
Atom  15N    basis set group =>   2
Atom  16C    basis set group =>   1
Atom  17C    basis set group =>   1
Atom  18C    basis set group =>   1
Atom  19C    basis set group =>   1
Atom  20C    basis set group =>   1
Atom  21C    basis set group =>   1
Atom  22C    basis set group =>   1
Atom  23C    basis set group =>   1
Atom  24C    basis set group =>   1
Atom  25C    basis set group =>   1
Atom  26C    basis set group =>   1
Atom  27C    basis set group =>   1
Atom  28C    basis set group =>   1
Atom  29C    basis set group =>   1
Atom  30C    basis set group =>   1
Atom  31C    basis set group =>   1
Atom  32C    basis set group =>   1
Atom  33C    basis set group =>   1
Atom  34C    basis set group =>   1
Atom  35C    basis set group =>   1
Atom  36C    basis set group =>   1
Atom  37C    basis set group =>   1
Atom  38C    basis set group =>   1
Atom  39C    basis set group =>   1
Atom  40C    basis set group =>   1
Atom  41C    basis set group =>   1
Atom  42C    basis set group =>   1
Atom  43C    basis set group =>   1
Atom  44C    basis set group =>   1
Atom  45C    basis set group =>   1
Atom  46C    basis set group =>   1
Atom  47C    basis set group =>   1
Atom  48C    basis set group =>   1
Atom  49C    basis set group =>   1
Atom  50C    basis set group =>   1
Atom  51C    basis set group =>   1
Atom  52H    basis set group =>   3
Atom  53H    basis set group =>   3
Atom  54H    basis set group =>   3
Atom  55H    basis set group =>   3
Atom  56H    basis set group =>   3
Atom  57H    basis set group =>   3
Atom  58H    basis set group =>   3
Atom  59H    basis set group =>   3
Atom  60H    basis set group =>   3
Atom  61H    basis set group =>   3
Atom  62H    basis set group =>   3
Atom  63H    basis set group =>   3
Atom  64H    basis set group =>   3
Atom  65H    basis set group =>   3
Atom  66H    basis set group =>   3
Atom  67H    basis set group =>   3
Atom  68H    basis set group =>   3
Atom  69H    basis set group =>   3
Atom  70H    basis set group =>   3
Atom  71H    basis set group =>   3
Atom  72H    basis set group =>   3
Atom  73H    basis set group =>   3
Atom  74H    basis set group =>   3
Atom  75H    basis set group =>   3
Atom  76H    basis set group =>   3
Atom  77H    basis set group =>   3
Atom  78H    basis set group =>   3
Atom  79H    basis set group =>   3
Atom  80H    basis set group =>   3
Atom  81H    basis set group =>   3
Atom  82H    basis set group =>   3
Atom  83H    basis set group =>   3
Atom  84H    basis set group =>   3
Atom  85H    basis set group =>   3
Atom  86H    basis set group =>   3
Atom  87H    basis set group =>   3
Atom  88H    basis set group =>   3
Atom  89H    basis set group =>   3


           ************************************************************
           *        Program running with 8 parallel MPI-processes     *
           *              working on a common directory               *
           ************************************************************
------------------------------------------------------------------------------
                           ORCA GTO INTEGRAL CALCULATION
------------------------------------------------------------------------------
------------------------------------------------------------------------------
                   ___                                                        
                  /   \      - P O W E R E D   B Y -                         
                 /     \                                                     
                 |  |  |   _    _      __       _____    __    __             
                 |  |  |  | |  | |    /  \     |  _  \  |  |  /  |          
                  \  \/   | |  | |   /    \    | | | |  |  | /  /          
                 / \  \   | |__| |  /  /\  \   | |_| |  |  |/  /          
                |  |  |   |  __  | /  /__\  \  |    /   |      \           
                |  |  |   | |  | | |   __   |  |    \   |  |\   \          
                \     /   | |  | | |  |  |  |  | |\  \  |  | \   \       
                 \___/    |_|  |_| |__|  |__|  |_| \__\ |__|  \__/        
                                                                              
                      - O R C A' S   B I G   F R I E N D -                    
                                      &                                       
                       - I N T E G R A L  F E E D E R -                       
                                                                              
 v1 FN, 2020, v2 2021                                                         
------------------------------------------------------------------------------


Reading SHARK input file /scratch/chu_02/allen/tmpyp4_amber_gaff2/conf1/conf1/Conf287.orca.SHARKINP.tmp ... ok
----------------------
SHARK INTEGRAL PACKAGE
----------------------

Number of atoms                             ...     90
Number of basis functions                   ...   1230
Number of shells                            ...    738
Maximum angular momentum                    ...      2
Integral batch strategy                     ... SHARK/LIBINT Hybrid
RI-J (if used) integral strategy            ... SPLIT-RIJ (Revised 2003 algorithm where possible)
Printlevel                                  ...      1
Contraction scheme used                     ... PARTIAL GENERAL contraction
Coulomb Range Separation                    ... NOT USED
Exchange Range Separation                   ... NOT USED
Finite Nucleus Model                        ... NOT USED
Auxiliary Coulomb fitting basis             ... NOT available
Auxiliary J/K fitting basis                 ... NOT available
Auxiliary Correlation fitting basis         ... NOT available
Auxiliary 'external' fitting basis          ... NOT available
Integral threshold                          ...     2.500000e-11
Primitive cut-off                           ...     2.500000e-12
Primitive pair pre-selection threshold      ...     2.500000e-12

Calculating pre-screening integrals         ... done (  0.1 sec) Dimension = 738
Calculating pre-screening integrals (ORCA)  ... done (  0.3 sec) Dimension = 426
Organizing shell pair data                  ... done (  0.6 sec)
Shell pair information
Total number of shell pairs                 ...    272691
Shell pairs after pre-screening             ...     71587
Total number of primitive shell pairs       ...    422091
Primitive shell pairs kept                  ...     92346
          la=0 lb=0:  29409 shell pairs
          la=1 lb=0:  25959 shell pairs
          la=1 lb=1:   4683 shell pairs
          la=2 lb=0:   7881 shell pairs
          la=2 lb=1:   3124 shell pairs
          la=2 lb=2:    531 shell pairs

Calculating one electron integrals          ... done (  0.2 sec)
Calculating Nuclear repulsion               ... done (  0.0 sec) ENN=   6222.603881707006 Eh

SHARK setup successfully completed in   1.7 seconds

Maximum memory used throughout the entire GTOINT-calculation: 99.0 MB


           ************************************************************
           *        Program running with 8 parallel MPI-processes     *
           *              working on a common directory               *
           ************************************************************
-------------------------------------------------------------------------------
                                 ORCA SCF
-------------------------------------------------------------------------------

------------
SCF SETTINGS
------------
Hamiltonian:
 Ab initio Hamiltonian  Method          .... Hartree-Fock(GTOs)


General Settings:
 Integral files         IntName         .... /scratch/chu_02/allen/tmpyp4_amber_gaff2/conf1/conf1/Conf287.orca
 Hartree-Fock type      HFTyp           .... RHF
 Total Charge           Charge          ....    0
 Multiplicity           Mult            ....    1
 Number of Electrons    NEL             ....  358
 Basis Dimension        Dim             ....  918
 Nuclear Repulsion      ENuc            ....   6222.6038817070 Eh

Convergence Acceleration:
 DIIS                   CNVDIIS         .... on
   Start iteration      DIISMaxIt       ....    12
   Startup error        DIISStart       ....  0.200000
   # of expansion vecs  DIISMaxEq       ....     5
   Bias factor          DIISBfac        ....   1.050
   Max. coefficient     DIISMaxC        ....  10.000
 Trust-Rad. Augm. Hess. CNVTRAH         .... auto
   Auto Start mean grad. ratio tolernc. ....  1.125000
   Auto Start start iteration           ....    20
   Auto Start num. interpolation iter.  ....    10
   Max. Number of Micro iterations      ....    16
   Max. Number of Macro iterations      .... Maxiter - #DIIS iter
   Number of Davidson start vectors     ....     2
   Converg. threshold I  (grad. norm)   ....   1.000e-05
   Converg. threshold II (energy diff.) ....   1.000e-08
   Grad. Scal. Fac. for Micro threshold ....   0.100
   Minimum threshold for Micro iter.    ....   0.010
   NR start threshold (gradient norm)   ....   0.001
   Initial trust radius                 ....   0.400
   Minimum AH scaling param. (alpha)    ....   1.000
   Maximum AH scaling param. (alpha)    .... 1000.000
   Orbital update algorithm             .... Taylor
   White noise on init. David. guess    .... on
   Maximum white noise                  ....   0.010
   Quad. conv. algorithm                .... NR
 SOSCF                  CNVSOSCF        .... on
   Start iteration      SOSCFMaxIt      ....   150
   Startup grad/error   SOSCFStart      ....  0.003300
 Level Shifting         CNVShift        .... on
   Level shift para.    LevelShift      ....    0.2500
   Turn off err/grad.   ShiftErr        ....    0.0010
 Zerner damping         CNVZerner       .... off
 Static damping         CNVDamp         .... on
   Fraction old density DampFac         ....    0.7000
   Max. Damping (<1)    DampMax         ....    0.9800
   Min. Damping (>=0)   DampMin         ....    0.0000
   Turn off err/grad.   DampErr         ....    0.1000
 Fernandez-Rico         CNVRico         .... off

SCF Procedure:
 Maximum # iterations   MaxIter         ....   125
 SCF integral mode      SCFMode         .... Direct
   Integral package                     .... SHARK and LIBINT hybrid scheme
 Reset frequency        DirectResetFreq ....    20
 Integral Threshold     Thresh          ....  2.500e-11 Eh
 Primitive CutOff       TCut            ....  2.500e-12 Eh

Convergence Tolerance:
 Convergence Check Mode ConvCheckMode   .... Total+1el-Energy
 Convergence forced     ConvForced      .... 1
 Energy Change          TolE            ....  1.000e-08 Eh
 1-El. energy change                    ....  1.000e-05 Eh
 Orbital Gradient       TolG            ....  1.000e-05
 Orbital Rotation angle TolX            ....  1.000e-05
 DIIS Error             TolErr          ....  5.000e-07


Diagonalization of the overlap matrix:
Smallest eigenvalue                        ... 2.262e-04
Time for diagonalization                   ...    0.201 sec
Threshold for overlap eigenvalues          ... 1.000e-08
Number of eigenvalues below threshold      ... 0
Time for construction of square roots      ...    0.116 sec
Total time needed                          ...    0.321 sec

Time for model grid setup =    1.335 sec

------------------------------
INITIAL GUESS: MODEL POTENTIAL
------------------------------
Loading Hartree-Fock densities                     ... done
Calculating cut-offs                               ... done
Initializing the effective Hamiltonian             ... done
Setting up the integral package (SHARK)            ... done
Starting the Coulomb interaction                   ... done (   1.5 sec)
Reading the grid                                   ... done
Mapping shells                                     ... done
Starting the XC term evaluation                    ... done (   0.3 sec)
Transforming the Hamiltonian                       ... done (   0.1 sec)
Diagonalizing the Hamiltonian                      ... done (   0.2 sec)
Back transforming the eigenvectors                 ... done (   0.0 sec)
Now organizing SCF variables                       ... done
                      ------------------
                      INITIAL GUESS DONE (   3.6 sec)
                      ------------------
--------------
SCF ITERATIONS
--------------
ITER       Energy         Delta-E        Max-DP      RMS-DP      [F,P]     Damp
               ***  Starting incremental Fock matrix formation  ***
  0  -2121.6524725092   0.000000000000 0.06925474  0.00121111  0.2343650 0.7000
  1  -2122.3211319628  -0.668659453670 0.05260913  0.00098159  0.1449330 0.7000
                               ***Turning on DIIS***
  2  -2122.7367808586  -0.415648895778 0.11681220  0.00222076  0.0804884 0.0000
  3  -2117.6941710270   5.042609831657 0.03259642  0.00068685  0.0444384 0.0000
  4  -2123.4019240699  -5.707753042907 0.00892342  0.00022986  0.0071011 0.0000
  5  -2123.5836176406  -0.181693570703 0.00517132  0.00013721  0.0050268 0.0000
  6  -2123.5655200828   0.018097557801 0.00366101  0.00009135  0.0021438 0.0000
  7  -2123.6712142860  -0.105694203243 0.00317767  0.00007458  0.0016407 0.0000
  8  -2123.6974158529  -0.026201566861 0.00296471  0.00007333  0.0015278 0.0000
  9  -2123.6577464907   0.039669362201 0.00256304  0.00005203  0.0012014 0.0000
 10  -2123.6785311428  -0.020784652137 0.00626505  0.00011414  0.0009058 0.0000
                      *** Initiating the SOSCF procedure ***
                           *** Shutting down DIIS ***
                      *** Re-Reading the Fockian *** 
                      *** Removing any level shift *** 
ITER      Energy       Delta-E        Grad      Rot      Max-DP    RMS-DP
 11  -2123.52623328   0.1522978652  0.000249  0.000249  0.000270  0.000006
               *** Restarting incremental Fock matrix formation ***
 12  -2123.61549657  -0.0892632939  0.000924  0.006423  0.001493  0.000038
 13  -2123.61562226  -0.0001256925  0.001174  0.029747  0.007700  0.000137
 14  -2123.61582713  -0.0002048700  0.000397  0.003041  0.000989  0.000017
 15  -2123.61585417  -0.0000270316  0.000392  0.012243  0.002297  0.000046
 16  -2123.61588726  -0.0000330957  0.000244  0.007622  0.001376  0.000030
 17  -2123.61590322  -0.0000159607  0.000349  0.010768  0.001395  0.000034
 18  -2123.61591880  -0.0000155759  0.000246  0.007850  0.001300  0.000026
 19  -2123.61592737  -0.0000085696  0.000157  0.002731  0.000578  0.000009
 20  -2123.61592958  -0.0000022093  0.000097  0.001749  0.000352  0.000007
 21  -2123.61593113  -0.0000015501  0.000061  0.001673  0.000276  0.000006
 22  -2123.61593218  -0.0000010513  0.000050  0.001804  0.000329  0.000006
 23  -2123.61593280  -0.0000006229  0.000036  0.001131  0.000206  0.000004
 24  -2123.61593308  -0.0000002758  0.000020  0.000630  0.000134  0.000003
 25  -2123.61593322  -0.0000001464  0.000016  0.000455  0.000090  0.000002
 26  -2123.61593330  -0.0000000795  0.000014  0.000550  0.000100  0.000002
 27  -2123.61593336  -0.0000000571  0.000012  0.000440  0.000079  0.000002
 28  -2123.61593339  -0.0000000331  0.000008  0.000272  0.000046  0.000001
 29  -2123.61593341  -0.0000000209  0.000005  0.000095  0.000019  0.000000
                  ***Gradient check signals convergence***
              ***Rediagonalizing the Fockian in SOSCF/NRSCF***

               *****************************************************
               *                     SUCCESS                       *
               *           SCF CONVERGED AFTER  30 CYCLES          *
               *****************************************************


----------------
TOTAL SCF ENERGY
----------------

Total Energy       :        -2123.61593342 Eh          -57786.52736 eV

Components:
Nuclear Repulsion  :         6222.60388171 Eh          169325.65997 eV
Electronic Energy  :        -8346.21981513 Eh         -227112.18733 eV
One Electron Energy:       -15286.62428150 Eh         -415970.19422 eV
Two Electron Energy:         6940.40446637 Eh          188858.00689 eV

Virial components:
Potential Energy   :        -4245.59699678 Eh         -115528.56764 eV
Kinetic Energy     :         2121.98106336 Eh           57742.04028 eV
Virial Ratio       :            2.00077045


---------------
SCF CONVERGENCE
---------------

  Last Energy change         ...   -6.9194e-09  Tolerance :   1.0000e-08
  Last MAX-Density change    ...    9.1058e-06  Tolerance :   1.0000e-07
  Last RMS-Density change    ...    2.0581e-07  Tolerance :   5.0000e-09
  Last Orbital Gradient      ...    2.3348e-06  Tolerance :   1.0000e-05
  Last Orbital Rotation      ...    3.1585e-05  Tolerance :   1.0000e-05

             **** THE GBW FILE WAS UPDATED (/scratch/chu_02/allen/tmpyp4_amber_gaff2/conf1/conf1/Conf287.orca.gbw) ****
             **** DENSITY /scratch/chu_02/allen/tmpyp4_amber_gaff2/conf1/conf1/Conf287.orca.scfp WAS UPDATED ****
             **** ENERGY FILE WAS UPDATED (/scratch/chu_02/allen/tmpyp4_amber_gaff2/conf1/conf1/Conf287.orca.en.tmp) ****
             **** THE GBW FILE WAS UPDATED (/scratch/chu_02/allen/tmpyp4_amber_gaff2/conf1/conf1/Conf287.orca.gbw) ****
             **** DENSITY /scratch/chu_02/allen/tmpyp4_amber_gaff2/conf1/conf1/Conf287.orca.scfp WAS UPDATED ****
----------------
ORBITAL ENERGIES
----------------

  NO   OCC          E(Eh)            E(eV) 
   0   2.0000     -15.672587      -426.4728 
   1   2.0000     -15.636783      -425.4985 
   2   2.0000     -15.625059      -425.1795 
   3   2.0000     -15.603412      -424.5904 
   4   2.0000     -15.517433      -422.2508 
   5   2.0000     -15.510798      -422.0703 
   6   2.0000     -15.447598      -420.3505 
   7   2.0000     -15.434218      -419.9864 
   8   2.0000     -11.322565      -308.1026 
   9   2.0000     -11.321066      -308.0619 
  10   2.0000     -11.320427      -308.0445 
  11   2.0000     -11.301163      -307.5203 
  12   2.0000     -11.295028      -307.3533 
  13   2.0000     -11.293531      -307.3126 
  14   2.0000     -11.289671      -307.2076 
  15   2.0000     -11.284660      -307.0712 
  16   2.0000     -11.280213      -306.9502 
  17   2.0000     -11.279493      -306.9306 
  18   2.0000     -11.271914      -306.7244 
  19   2.0000     -11.265863      -306.5597 
  20   2.0000     -11.262530      -306.4690 
  21   2.0000     -11.256764      -306.3121 
  22   2.0000     -11.256474      -306.3042 
  23   2.0000     -11.240167      -305.8605 
  24   2.0000     -11.232438      -305.6502 
  25   2.0000     -11.231633      -305.6283 
  26   2.0000     -11.229184      -305.5616 
  27   2.0000     -11.223423      -305.4049 
  28   2.0000     -11.223266      -305.4006 
  29   2.0000     -11.209522      -305.0266 
  30   2.0000     -11.207992      -304.9850 
  31   2.0000     -11.207185      -304.9630 
  32   2.0000     -11.201906      -304.8194 
  33   2.0000     -11.201751      -304.8151 
  34   2.0000     -11.189110      -304.4712 
  35   2.0000     -11.189065      -304.4699 
  36   2.0000     -11.182804      -304.2996 
  37   2.0000     -11.182639      -304.2951 
  38   2.0000     -11.180485      -304.2365 
  39   2.0000     -11.168527      -303.9111 
  40   2.0000     -11.165113      -303.8182 
  41   2.0000     -11.163057      -303.7622 
  42   2.0000     -11.158467      -303.6373 
  43   2.0000     -11.156191      -303.5754 
  44   2.0000     -11.156107      -303.5731 
  45   2.0000     -11.155678      -303.5614 
  46   2.0000     -11.152444      -303.4734 
  47   2.0000     -11.152116      -303.4645 
  48   2.0000     -11.149534      -303.3942 
  49   2.0000     -11.143596      -303.2327 
  50   2.0000     -11.127478      -302.7941 
  51   2.0000     -11.124650      -302.7171 
  52   2.0000      -1.353166       -36.8215 
  53   2.0000      -1.323646       -36.0182 
  54   2.0000      -1.313179       -35.7334 
  55   2.0000      -1.294975       -35.2381 
  56   2.0000      -1.218134       -33.1471 
  57   2.0000      -1.207751       -32.8646 
  58   2.0000      -1.167971       -31.7821 
  59   2.0000      -1.146356       -31.1939 
  60   2.0000      -1.135913       -30.9098 
  61   2.0000      -1.111590       -30.2479 
  62   2.0000      -1.102400       -29.9978 
  63   2.0000      -1.086249       -29.5583 
  64   2.0000      -1.074801       -29.2468 
  65   2.0000      -1.047543       -28.5051 
  66   2.0000      -1.037766       -28.2391 
  67   2.0000      -1.034316       -28.1452 
  68   2.0000      -1.020902       -27.7802 
  69   2.0000      -1.013430       -27.5768 
  70   2.0000      -1.005909       -27.3722 
  71   2.0000      -0.990523       -26.9535 
  72   2.0000      -0.983572       -26.7643 
  73   2.0000      -0.975735       -26.5511 
  74   2.0000      -0.970612       -26.4117 
  75   2.0000      -0.959552       -26.1107 
  76   2.0000      -0.950344       -25.8602 
  77   2.0000      -0.946446       -25.7541 
  78   2.0000      -0.928586       -25.2681 
  79   2.0000      -0.919949       -25.0331 
  80   2.0000      -0.901862       -24.5409 
  81   2.0000      -0.888611       -24.1803 
  82   2.0000      -0.874853       -23.8060 
  83   2.0000      -0.867134       -23.5959 
  84   2.0000      -0.864691       -23.5294 
  85   2.0000      -0.853224       -23.2174 
  86   2.0000      -0.846904       -23.0454 
  87   2.0000      -0.833423       -22.6786 
  88   2.0000      -0.822329       -22.3767 
  89   2.0000      -0.796448       -21.6724 
  90   2.0000      -0.793625       -21.5956 
  91   2.0000      -0.747244       -20.3335 
  92   2.0000      -0.733624       -19.9629 
  93   2.0000      -0.726773       -19.7765 
  94   2.0000      -0.722073       -19.6486 
  95   2.0000      -0.716293       -19.4913 
  96   2.0000      -0.709943       -19.3185 
  97   2.0000      -0.706154       -19.2154 
  98   2.0000      -0.701452       -19.0875 
  99   2.0000      -0.694108       -18.8876 
 100   2.0000      -0.693214       -18.8633 
 101   2.0000      -0.682820       -18.5805 
 102   2.0000      -0.678711       -18.4687 
 103   2.0000      -0.677797       -18.4438 
 104   2.0000      -0.672225       -18.2922 
 105   2.0000      -0.668769       -18.1981 
 106   2.0000      -0.665318       -18.1042 
 107   2.0000      -0.657193       -17.8831 
 108   2.0000      -0.655079       -17.8256 
 109   2.0000      -0.653020       -17.7696 
 110   2.0000      -0.648946       -17.6587 
 111   2.0000      -0.646833       -17.6012 
 112   2.0000      -0.640702       -17.4344 
 113   2.0000      -0.639341       -17.3974 
 114   2.0000      -0.634559       -17.2672 
 115   2.0000      -0.631161       -17.1748 
 116   2.0000      -0.622271       -16.9328 
 117   2.0000      -0.616007       -16.7624 
 118   2.0000      -0.613974       -16.7071 
 119   2.0000      -0.609333       -16.5808 
 120   2.0000      -0.605596       -16.4791 
 121   2.0000      -0.605192       -16.4681 
 122   2.0000      -0.596258       -16.2250 
 123   2.0000      -0.590226       -16.0609 
 124   2.0000      -0.589588       -16.0435 
 125   2.0000      -0.583185       -15.8693 
 126   2.0000      -0.575897       -15.6710 
 127   2.0000      -0.572997       -15.5920 
 128   2.0000      -0.565829       -15.3970 
 129   2.0000      -0.561573       -15.2812 
 130   2.0000      -0.557513       -15.1707 
 131   2.0000      -0.547614       -14.9013 
 132   2.0000      -0.539733       -14.6869 
 133   2.0000      -0.539117       -14.6701 
 134   2.0000      -0.534311       -14.5393 
 135   2.0000      -0.531747       -14.4696 
 136   2.0000      -0.522253       -14.2112 
 137   2.0000      -0.519874       -14.1465 
 138   2.0000      -0.515674       -14.0322 
 139   2.0000      -0.512701       -13.9513 
 140   2.0000      -0.510166       -13.8823 
 141   2.0000      -0.507734       -13.8161 
 142   2.0000      -0.502324       -13.6689 
 143   2.0000      -0.499582       -13.5943 
 144   2.0000      -0.496404       -13.5078 
 145   2.0000      -0.495705       -13.4888 
 146   2.0000      -0.493344       -13.4246 
 147   2.0000      -0.487416       -13.2633 
 148   2.0000      -0.483630       -13.1602 
 149   2.0000      -0.465001       -12.6533 
 150   2.0000      -0.461907       -12.5691 
 151   2.0000      -0.454925       -12.3791 
 152   2.0000      -0.449008       -12.2181 
 153   2.0000      -0.442122       -12.0307 
 154   2.0000      -0.439976       -11.9724 
 155   2.0000      -0.438796       -11.9402 
 156   2.0000      -0.428896       -11.6709 
 157   2.0000      -0.421836       -11.4787 
 158   2.0000      -0.397550       -10.8179 
 159   2.0000      -0.384542       -10.4639 
 160   2.0000      -0.381288       -10.3754 
 161   2.0000      -0.373019       -10.1504 
 162   2.0000      -0.362892        -9.8748 
 163   2.0000      -0.358239        -9.7482 
 164   2.0000      -0.349831        -9.5194 
 165   2.0000      -0.338920        -9.2225 
 166   2.0000      -0.336273        -9.1504 
 167   2.0000      -0.335482        -9.1289 
 168   2.0000      -0.319965        -8.7067 
 169   2.0000      -0.299496        -8.1497 
 170   2.0000      -0.296757        -8.0752 
 171   2.0000      -0.285754        -7.7758 
 172   2.0000      -0.283738        -7.7209 
 173   2.0000      -0.260386        -7.0855 
 174   2.0000      -0.238515        -6.4903 
 175   2.0000      -0.185461        -5.0467 
 176   2.0000      -0.175183        -4.7670 
 177   2.0000      -0.062476        -1.7001 
 178   2.0000      -0.052065        -1.4168 
 179   0.0000       0.033485         0.9112 
 180   0.0000       0.064501         1.7552 
 181   0.0000       0.091986         2.5031 
 182   0.0000       0.096320         2.6210 
 183   0.0000       0.112907         3.0724 
 184   0.0000       0.135978         3.7002 
 185   0.0000       0.144789         3.9399 
 186   0.0000       0.145936         3.9711 
 187   0.0000       0.159718         4.3461 
 188   0.0000       0.162937         4.4337 
 189   0.0000       0.163542         4.4502 
 190   0.0000       0.170028         4.6267 
 191   0.0000       0.181325         4.9341 
 192   0.0000       0.185294         5.0421 
 193   0.0000       0.188856         5.1390 
 194   0.0000       0.202617         5.5135 
 195   0.0000       0.207713         5.6522 
 196   0.0000       0.209837         5.7099 
 197   0.0000       0.213972         5.8225 
 198   0.0000       0.221427         6.0253 
 199   0.0000       0.221863         6.0372 
 200   0.0000       0.225048         6.1239 
 201   0.0000       0.237989         6.4760 
 202   0.0000       0.238588         6.4923 
 203   0.0000       0.243873         6.6361 
 204   0.0000       0.249014         6.7760 
 205   0.0000       0.254418         6.9231 
 206   0.0000       0.255496         6.9524 
 207   0.0000       0.258590         7.0366 
 208   0.0000       0.261292         7.1101 
 209   0.0000       0.263599         7.1729 
 210   0.0000       0.265715         7.2305 
 211   0.0000       0.269207         7.3255 
 212   0.0000       0.270863         7.3706 
 213   0.0000       0.273056         7.4302 
 214   0.0000       0.274255         7.4628 
 215   0.0000       0.276215         7.5162 
 216   0.0000       0.279672         7.6103 
 217   0.0000       0.284280         7.7357 
 218   0.0000       0.285999         7.7824 
 219   0.0000       0.287883         7.8337 
 220   0.0000       0.291348         7.9280 
 221   0.0000       0.293715         7.9924 
 222   0.0000       0.295353         8.0370 
 223   0.0000       0.296906         8.0792 
 224   0.0000       0.297285         8.0895 
 225   0.0000       0.302483         8.2310 
 226   0.0000       0.303765         8.2659 
 227   0.0000       0.307271         8.3613 
 228   0.0000       0.308621         8.3980 
 229   0.0000       0.313427         8.5288 
 230   0.0000       0.316065         8.6006 
 231   0.0000       0.320863         8.7311 
 232   0.0000       0.324482         8.8296 
 233   0.0000       0.329542         8.9673 
 234   0.0000       0.334030         9.0894 
 235   0.0000       0.345830         9.4105 
 236   0.0000       0.358307         9.7500 
 237   0.0000       0.373539        10.1645 
 238   0.0000       0.396153        10.7799 
 239   0.0000       0.397822        10.8253 
 240   0.0000       0.403249        10.9730 
 241   0.0000       0.411381        11.1943 
 242   0.0000       0.416117        11.3231 
 243   0.0000       0.416548        11.3348 
 244   0.0000       0.423193        11.5157 
 245   0.0000       0.431684        11.7467 
 246   0.0000       0.434155        11.8139 
 247   0.0000       0.438956        11.9446 
 248   0.0000       0.442527        12.0418 
 249   0.0000       0.446936        12.1618 
 250   0.0000       0.447808        12.1855 
 251   0.0000       0.454801        12.3758 
 252   0.0000       0.457509        12.4495 
 253   0.0000       0.461478        12.5574 
 254   0.0000       0.470166        12.7939 
 255   0.0000       0.477119        12.9831 
 256   0.0000       0.483196        13.1484 
 257   0.0000       0.486647        13.2424 
 258   0.0000       0.487152        13.2561 
 259   0.0000       0.494042        13.4436 
 260   0.0000       0.499220        13.5845 
 261   0.0000       0.503707        13.7066 
 262   0.0000       0.506673        13.7873 
 263   0.0000       0.507533        13.8107 
 264   0.0000       0.512434        13.9440 
 265   0.0000       0.516894        14.0654 
 266   0.0000       0.521886        14.2012 
 267   0.0000       0.525995        14.3131 
 268   0.0000       0.532731        14.4964 
 269   0.0000       0.537017        14.6130 
 270   0.0000       0.543149        14.7798 
 271   0.0000       0.545172        14.8349 
 272   0.0000       0.545471        14.8430 
 273   0.0000       0.554123        15.0785 
 274   0.0000       0.563213        15.3258 
 275   0.0000       0.565851        15.3976 
 276   0.0000       0.569434        15.4951 
 277   0.0000       0.572668        15.5831 
 278   0.0000       0.578639        15.7456 
 279   0.0000       0.579592        15.7715 
 280   0.0000       0.587611        15.9897 
 281   0.0000       0.591415        16.0932 
 282   0.0000       0.593067        16.1382 
 283   0.0000       0.597584        16.2611 
 284   0.0000       0.600540        16.3415 
 285   0.0000       0.601419        16.3655 
 286   0.0000       0.606967        16.5164 
 287   0.0000       0.614045        16.7090 
 288   0.0000       0.614483        16.7209 
 289   0.0000       0.616254        16.7691 
 290   0.0000       0.622862        16.9489 
 291   0.0000       0.626855        17.0576 
 292   0.0000       0.629952        17.1419 
 293   0.0000       0.633389        17.2354 
 294   0.0000       0.645418        17.5627 
 295   0.0000       0.650108        17.6903 
 296   0.0000       0.653382        17.7794 
 297   0.0000       0.658653        17.9229 
 298   0.0000       0.664587        18.0843 
 299   0.0000       0.667465        18.1626 
 300   0.0000       0.670280        18.2392 
 301   0.0000       0.674045        18.3417 
 302   0.0000       0.676192        18.4001 
 303   0.0000       0.678494        18.4628 
 304   0.0000       0.682927        18.5834 
 305   0.0000       0.685266        18.6470 
 306   0.0000       0.685638        18.6572 
 307   0.0000       0.687869        18.7179 
 308   0.0000       0.692154        18.8345 
 309   0.0000       0.694566        18.9001 
 310   0.0000       0.701558        19.0904 
 311   0.0000       0.703795        19.1512 
 312   0.0000       0.709049        19.2942 
 313   0.0000       0.709785        19.3142 
 314   0.0000       0.711452        19.3596 
 315   0.0000       0.713977        19.4283 
 316   0.0000       0.717749        19.5310 
 317   0.0000       0.719207        19.5706 
 318   0.0000       0.721755        19.6399 
 319   0.0000       0.723042        19.6750 
 320   0.0000       0.724817        19.7233 
 321   0.0000       0.729024        19.8378 
 322   0.0000       0.729302        19.8453 
 323   0.0000       0.734053        19.9746 
 324   0.0000       0.736817        20.0498 
 325   0.0000       0.738949        20.1078 
 326   0.0000       0.740948        20.1622 
 327   0.0000       0.741760        20.1843 
 328   0.0000       0.749678        20.3998 
 329   0.0000       0.751494        20.4492 
 330   0.0000       0.755252        20.5515 
 331   0.0000       0.756440        20.5838 
 332   0.0000       0.758259        20.6333 
 333   0.0000       0.762037        20.7361 
 334   0.0000       0.767703        20.8903 
 335   0.0000       0.768919        20.9234 
 336   0.0000       0.773032        21.0353 
 337   0.0000       0.777611        21.1599 
 338   0.0000       0.784231        21.3400 
 339   0.0000       0.786067        21.3900 
 340   0.0000       0.790952        21.5229 
 341   0.0000       0.792430        21.5631 
 342   0.0000       0.794647        21.6234 
 343   0.0000       0.798041        21.7158 
 344   0.0000       0.802646        21.8411 
 345   0.0000       0.805700        21.9242 
 346   0.0000       0.809726        22.0338 
 347   0.0000       0.811291        22.0764 
 348   0.0000       0.812991        22.1226 
 349   0.0000       0.817254        22.2386 
 350   0.0000       0.818676        22.2773 
 351   0.0000       0.818725        22.2787 
 352   0.0000       0.822602        22.3841 
 353   0.0000       0.823301        22.4032 
 354   0.0000       0.828389        22.5416 
 355   0.0000       0.829502        22.5719 
 356   0.0000       0.832570        22.6554 
 357   0.0000       0.834737        22.7144 
 358   0.0000       0.837351        22.7855 
 359   0.0000       0.838396        22.8139 
 360   0.0000       0.841783        22.9061 
 361   0.0000       0.842906        22.9366 
 362   0.0000       0.844839        22.9892 
 363   0.0000       0.847779        23.0692 
 364   0.0000       0.850347        23.1391 
 365   0.0000       0.852116        23.1873 
 366   0.0000       0.855127        23.2692 
 367   0.0000       0.857838        23.3430 
 368   0.0000       0.859154        23.3788 
 369   0.0000       0.862101        23.4589 
 370   0.0000       0.865495        23.5513 
 371   0.0000       0.866586        23.5810 
 372   0.0000       0.873644        23.7731 
 373   0.0000       0.875962        23.8361 
 374   0.0000       0.879397        23.9296 
 375   0.0000       0.882534        24.0150 
 376   0.0000       0.885321        24.0908 
 377   0.0000       0.888575        24.1793 
 378   0.0000       0.889201        24.1964 
 379   0.0000       0.891874        24.2691 
 380   0.0000       0.894997        24.3541 
 381   0.0000       0.898061        24.4375 
 382   0.0000       0.901011        24.5178 
 383   0.0000       0.903903        24.5964 
 384   0.0000       0.904776        24.6202 
 385   0.0000       0.907886        24.7048 
 386   0.0000       0.908179        24.7128 
 387   0.0000       0.911065        24.7913 
 388   0.0000       0.915444        24.9105 
 389   0.0000       0.917010        24.9531 
 390   0.0000       0.919807        25.0292 
 391   0.0000       0.922348        25.0984 
 392   0.0000       0.922725        25.1086 
 393   0.0000       0.925851        25.1937 
 394   0.0000       0.928920        25.2772 
 395   0.0000       0.930191        25.3118 
 396   0.0000       0.933183        25.3932 
 397   0.0000       0.934735        25.4354 
 398   0.0000       0.938098        25.5269 
 399   0.0000       0.941065        25.6077 
 400   0.0000       0.944666        25.7057 
 401   0.0000       0.948478        25.8094 
 402   0.0000       0.951767        25.8989 
 403   0.0000       0.955876        26.0107 
 404   0.0000       0.956854        26.0373 
 405   0.0000       0.958522        26.0827 
 406   0.0000       0.958658        26.0864 
 407   0.0000       0.963807        26.2265 
 408   0.0000       0.965519        26.2731 
 409   0.0000       0.967860        26.3368 
 410   0.0000       0.975251        26.5379 
 411   0.0000       0.980676        26.6856 
 412   0.0000       0.985030        26.8040 
 413   0.0000       0.987101        26.8604 
 414   0.0000       0.993728        27.0407 
 415   0.0000       0.994553        27.0632 
 416   0.0000       1.002597        27.2821 
 417   0.0000       1.004742        27.3404 
 418   0.0000       1.009138        27.4600 
 419   0.0000       1.016632        27.6640 
 420   0.0000       1.020523        27.7698 
 421   0.0000       1.026679        27.9374 
 422   0.0000       1.033230        28.1156 
 423   0.0000       1.036500        28.2046 
 424   0.0000       1.041812        28.3491 
 425   0.0000       1.049364        28.5546 
 426   0.0000       1.056493        28.7486 
 427   0.0000       1.059518        28.8310 
 428   0.0000       1.068383        29.0722 
 429   0.0000       1.071844        29.1663 
 430   0.0000       1.080220        29.3943 
 431   0.0000       1.083638        29.4873 
 432   0.0000       1.088010        29.6063 
 433   0.0000       1.090518        29.6745 
 434   0.0000       1.096849        29.8468 
 435   0.0000       1.100137        29.9362 
 436   0.0000       1.104717        30.0609 
 437   0.0000       1.111062        30.2335 
 438   0.0000       1.114837        30.3363 
 439   0.0000       1.116185        30.3729 
 440   0.0000       1.118942        30.4480 
 441   0.0000       1.124001        30.5856 
 442   0.0000       1.127008        30.6675 
 443   0.0000       1.129337        30.7308 
 444   0.0000       1.134323        30.8665 
 445   0.0000       1.135911        30.9097 
 446   0.0000       1.138658        30.9845 
 447   0.0000       1.142337        31.0846 
 448   0.0000       1.143859        31.1260 
 449   0.0000       1.149614        31.2826 
 450   0.0000       1.153740        31.3948 
 451   0.0000       1.156519        31.4705 
 452   0.0000       1.158535        31.5253 
 453   0.0000       1.159196        31.5433 
 454   0.0000       1.161086        31.5948 
 455   0.0000       1.169171        31.8148 
 456   0.0000       1.169998        31.8373 
 457   0.0000       1.176907        32.0253 
 458   0.0000       1.178660        32.0730 
 459   0.0000       1.187123        32.3032 
 460   0.0000       1.187898        32.3244 
 461   0.0000       1.191503        32.4224 
 462   0.0000       1.201511        32.6948 
 463   0.0000       1.208139        32.8751 
 464   0.0000       1.210034        32.9267 
 465   0.0000       1.210792        32.9473 
 466   0.0000       1.211304        32.9613 
 467   0.0000       1.219240        33.1772 
 468   0.0000       1.223608        33.2961 
 469   0.0000       1.226790        33.3826 
 470   0.0000       1.227971        33.4148 
 471   0.0000       1.231221        33.5032 
 472   0.0000       1.238267        33.6950 
 473   0.0000       1.241555        33.7844 
 474   0.0000       1.243799        33.8455 
 475   0.0000       1.247928        33.9578 
 476   0.0000       1.249555        34.0021 
 477   0.0000       1.250414        34.0255 
 478   0.0000       1.254912        34.1479 
 479   0.0000       1.256189        34.1826 
 480   0.0000       1.260080        34.2885 
 481   0.0000       1.262287        34.3486 
 482   0.0000       1.264907        34.4199 
 483   0.0000       1.269025        34.5319 
 484   0.0000       1.270696        34.5774 
 485   0.0000       1.276893        34.7460 
 486   0.0000       1.280110        34.8336 
 487   0.0000       1.284357        34.9491 
 488   0.0000       1.288294        35.0563 
 489   0.0000       1.291555        35.1450 
 490   0.0000       1.294851        35.2347 
 491   0.0000       1.297966        35.3195 
 492   0.0000       1.305718        35.5304 
 493   0.0000       1.307222        35.5713 
 494   0.0000       1.310408        35.6580 
 495   0.0000       1.315366        35.7929 
 496   0.0000       1.316303        35.8184 
 497   0.0000       1.319818        35.9141 
 498   0.0000       1.331471        36.2312 
 499   0.0000       1.332331        36.2546 
 500   0.0000       1.334085        36.3023 
 501   0.0000       1.335482        36.3403 
 502   0.0000       1.340245        36.4699 
 503   0.0000       1.343824        36.5673 
 504   0.0000       1.344942        36.5977 
[...]
 76 H s       :     0.897350  s :     0.897350
      pz      :     0.021838  p :     0.079376
      px      :     0.043011
      py      :     0.014527
 77 H s       :     0.893283  s :     0.893283
      pz      :     0.047302  p :     0.078532
      px      :     0.015005
      py      :     0.016225
 78 H s       :     0.893698  s :     0.893698
      pz      :     0.025537  p :     0.078450
      px      :     0.020653
      py      :     0.032260
 79 H s       :     0.907736  s :     0.907736
      pz      :     0.022398  p :     0.087060
      px      :     0.021857
      py      :     0.042805
 80 H s       :     0.876600  s :     0.876600
      pz      :     0.038405  p :     0.083507
      px      :     0.029636
      py      :     0.015466
 81 H s       :     0.887805  s :     0.887805
      pz      :     0.037654  p :     0.083515
      px      :     0.016083
      py      :     0.029778
 82 H s       :     0.914600  s :     0.914600
      pz      :     0.022350  p :     0.087032
      px      :     0.031072
      py      :     0.033610
 83 H s       :     0.872088  s :     0.872088
      pz      :     0.039223  p :     0.083811
      px      :     0.015240
      py      :     0.029349
 84 H s       :     0.887835  s :     0.887835
      pz      :     0.035817  p :     0.084129
      px      :     0.031769
      py      :     0.016543
 85 H s       :     0.894841  s :     0.894841
      pz      :     0.022510  p :     0.079660
      px      :     0.014117
      py      :     0.043033
 86 H s       :     0.890552  s :     0.890552
      pz      :     0.024716  p :     0.078895
      px      :     0.033008
      py      :     0.021172
 87 H s       :     0.890628  s :     0.890628
      pz      :     0.047889  p :     0.078652
      px      :     0.015638
      py      :     0.015125
 88 H s       :     0.916984  s :     0.916984
      pz      :     0.022427  p :     0.086885
      px      :     0.042141
      py      :     0.022318
 89 H s       :     0.873618  s :     0.873618
      pz      :     0.037871  p :     0.084011
      px      :     0.030511
      py      :     0.015629


                      *****************************
                      * MAYER POPULATION ANALYSIS *
                      *****************************

  NA   - Mulliken gross atomic population
  ZA   - Total nuclear charge
  QA   - Mulliken gross atomic charge
  VA   - Mayer's total valence
  BVA  - Mayer's bonded valence
  FA   - Mayer's free valence

  ATOM       NA         ZA         QA         VA         BVA        FA
  0 C      5.7803     6.0000     0.2197     3.8153     3.8153    -0.0000
  1 N      7.4274     7.0000    -0.4274     3.4255     3.4255     0.0000
  2 C      6.0674     6.0000    -0.0674     3.9176     3.9176    -0.0000
  3 N      7.3415     7.0000    -0.3415     3.4313     3.4313     0.0000
  4 C      6.0842     6.0000    -0.0842     3.9754     3.9754     0.0000
  5 N      7.5641     7.0000    -0.5641     3.0752     3.0752     0.0000
  6 C      6.0355     6.0000    -0.0355     3.9774     3.9774    -0.0000
  7 N      7.3374     7.0000    -0.3374     3.4438     3.4438     0.0000
  8 C      5.7813     6.0000     0.2187     3.8141     3.8141    -0.0000
  9 N      7.5646     7.0000    -0.5646     3.0891     3.0891    -0.0000
 10 C      5.8913     6.0000     0.1087     3.8766     3.8766     0.0000
 11 N      7.4381     7.0000    -0.4381     3.3816     3.3816     0.0000
 12 C      6.0605     6.0000    -0.0605     3.9128     3.9128     0.0000
 13 N      7.4465     7.0000    -0.4465     3.3433     3.3433     0.0000
 14 C      5.7747     6.0000     0.2253     3.8053     3.8053    -0.0000
 15 N      7.4408     7.0000    -0.4408     3.3691     3.3691    -0.0000
 16 C      5.7523     6.0000     0.2477     3.8003     3.8003    -0.0000
 17 C      6.0378     6.0000    -0.0378     3.9762     3.9762    -0.0000
 18 C      6.1810     6.0000    -0.1810     3.7064     3.7064    -0.0000
 19 C      5.7740     6.0000     0.2260     3.8953     3.8953    -0.0000
 20 C      5.8019     6.0000     0.1981     3.8223     3.8223     0.0000
 21 C      6.0675     6.0000    -0.0675     3.8974     3.8974    -0.0000
 22 C      6.0867     6.0000    -0.0867     3.9848     3.9848     0.0000
 23 C      6.0594     6.0000    -0.0594     3.9883     3.9883    -0.0000
 24 C      5.7855     6.0000     0.2145     3.8269     3.8269     0.0000
 25 C      5.8860     6.0000     0.1140     3.8909     3.8909    -0.0000
 26 C      6.0708     6.0000    -0.0708     3.9046     3.9046     0.0000
 27 C      5.7629     6.0000     0.2371     3.8966     3.8966    -0.0000
 28 C      6.0445     6.0000    -0.0445     3.9889     3.9889     0.0000
 29 C      6.1922     6.0000    -0.1922     3.7290     3.7290     0.0000
 30 C      5.7729     6.0000     0.2271     3.7853     3.7853     0.0000
 31 C      5.8027     6.0000     0.1973     3.8315     3.8315     0.0000
 32 C      6.0653     6.0000    -0.0653     3.9146     3.9146    -0.0000
 33 C      6.0943     6.0000    -0.0943     3.9859     3.9859    -0.0000
 34 C      6.0500     6.0000    -0.0500     3.9967     3.9967    -0.0000
 35 C      5.8115     6.0000     0.1885     3.8283     3.8283     0.0000
 36 C      5.8818     6.0000     0.1182     3.9028     3.9028     0.0000
 37 C      6.0686     6.0000    -0.0686     3.9160     3.9160    -0.0000
 38 C      5.7584     6.0000     0.2416     3.7971     3.7971    -0.0000
 39 C      6.0640     6.0000    -0.0640     3.9960     3.9960     0.0000
 40 C      6.1976     6.0000    -0.1976     3.7484     3.7484     0.0000
 41 C      5.7825     6.0000     0.2175     3.8768     3.8768     0.0000
 42 C      5.7909     6.0000     0.2091     3.8300     3.8300    -0.0000
 43 C      6.0757     6.0000    -0.0757     3.9048     3.9048    -0.0000
 44 C      6.0893     6.0000    -0.0893     3.9846     3.9846    -0.0000
 45 C      6.0444     6.0000    -0.0444     3.9940     3.9940     0.0000
 46 C      5.8065     6.0000     0.1935     3.8224     3.8224     0.0000
 47 C      5.8840     6.0000     0.1160     3.8951     3.8951     0.0000
 48 C      6.0799     6.0000    -0.0799     3.8995     3.8995     0.0000
 49 C      5.7847     6.0000     0.2153     3.8729     3.8729     0.0000
 50 C      6.0606     6.0000    -0.0606     3.9898     3.9898    -0.0000
 51 C      6.1899     6.0000    -0.1899     3.7384     3.7384     0.0000
 52 H      0.9307     1.0000     0.0693     0.9838     0.9838    -0.0000
 53 H      1.0108     1.0000    -0.0108     1.0009     1.0009     0.0000
 54 H      0.9451     1.0000     0.0549     1.0072     1.0072     0.0000
 55 H      0.9325     1.0000     0.0675     0.9844     0.9844     0.0000
 56 H      0.9274     1.0000     0.0726     0.9725     0.9725    -0.0000
 57 H      0.9331     1.0000     0.0669     0.9839     0.9839     0.0000
 58 H      0.9339     1.0000     0.0661     0.9868     0.9868     0.0000
 59 H      1.0230     1.0000    -0.0230     0.9972     0.9972     0.0000
 60 H      0.9436     1.0000     0.0564     1.0056     1.0056    -0.0000
 61 H      0.8249     1.0000     0.1751     1.0432     1.0432     0.0000
 62 H      0.8299     1.0000     0.1701     1.0434     1.0434     0.0000
 63 H      0.9445     1.0000     0.0555     0.9858     0.9858    -0.0000
 64 H      1.0289     1.0000    -0.0289     0.9934     0.9934     0.0000
 65 H      0.9560     1.0000     0.0440     1.0085     1.0085    -0.0000
 66 H      0.9430     1.0000     0.0570     0.9847     0.9847    -0.0000
 67 H      0.9388     1.0000     0.0612     0.9718     0.9718    -0.0000
 68 H      0.9425     1.0000     0.0575     0.9866     0.9866    -0.0000
 69 H      0.9404     1.0000     0.0596     0.9831     0.9831    -0.0000
 70 H      1.0191     1.0000    -0.0191     0.9962     0.9962     0.0000
 71 H      0.9517     1.0000     0.0483     1.0072     1.0072     0.0000
 72 H      0.9548     1.0000     0.0452     0.9857     0.9857    -0.0000
 73 H      1.0177     1.0000    -0.0177     0.9971     0.9971     0.0000
 74 H      0.9635     1.0000     0.0365     1.0095     1.0095    -0.0000
 75 H      0.9560     1.0000     0.0440     0.9863     0.9863    -0.0000
 76 H      0.9474     1.0000     0.0526     0.9708     0.9708     0.0000
 77 H      0.9491     1.0000     0.0509     0.9846     0.9846    -0.0000
 78 H      0.9499     1.0000     0.0501     0.9840     0.9840    -0.0000
 79 H      1.0123     1.0000    -0.0123     1.0009     1.0009    -0.0000
 80 H      0.9636     1.0000     0.0364     1.0066     1.0066     0.0000
 81 H      0.9477     1.0000     0.0523     0.9853     0.9853    -0.0000
 82 H      1.0234     1.0000    -0.0234     0.9948     0.9948    -0.0000
 83 H      0.9566     1.0000     0.0434     1.0102     1.0102    -0.0000
 84 H      0.9485     1.0000     0.0515     0.9860     0.9860     0.0000
 85 H      0.9432     1.0000     0.0568     0.9714     0.9714    -0.0000
 86 H      0.9433     1.0000     0.0567     0.9841     0.9841     0.0000
 87 H      0.9442     1.0000     0.0558     0.9854     0.9854     0.0000
 88 H      1.0276     1.0000    -0.0276     0.9924     0.9924     0.0000
 89 H      0.9576     1.0000     0.0424     1.0062     1.0062    -0.0000

  Mayer bond orders larger than 0.100000
B(  0-C ,  1-N ) :   1.1567 B(  0-C , 17-C ) :   1.5784 B(  0-C , 52-H ) :   0.9681 
B(  1-N ,  8-C ) :   1.1552 B(  1-N , 10-C ) :   0.9443 B(  2-C , 12-C ) :   1.5579 
B(  2-C , 16-C ) :   1.2966 B(  2-C , 53-H ) :   0.9787 B(  3-N , 14-C ) :   1.1862 
B(  3-N , 16-C ) :   1.2003 B(  3-N , 61-H ) :   0.8969 B(  4-C ,  6-C ) :   1.3154 
B(  4-C , 17-C ) :   1.3133 B(  4-C , 18-C ) :   1.1458 B(  5-N , 19-C ) :   1.3867 
B(  5-N , 27-C ) :   1.4316 B(  6-C ,  8-C ) :   1.5763 B(  6-C , 54-H ) :   0.9711 
B(  7-N , 30-C ) :   1.1877 B(  7-N , 38-C ) :   1.2098 B(  7-N , 62-H ) :   0.8999 
B(  8-C , 55-H ) :   0.9693 B(  9-N , 41-C ) :   1.4222 B(  9-N , 49-C ) :   1.4044 
B( 10-C , 56-H ) :   0.9763 B( 10-C , 57-H ) :   0.9816 B( 10-C , 58-H ) :   0.9823 
B( 11-N , 20-C ) :   1.1120 B( 11-N , 24-C ) :   1.1330 B( 11-N , 25-C ) :   0.9590 
B( 12-C , 14-C ) :   1.2977 B( 12-C , 59-H ) :   0.9779 B( 13-N , 31-C ) :   1.0999 
B( 13-N , 35-C ) :   1.0904 B( 13-N , 36-C ) :   0.9726 B( 14-C , 18-C ) :   1.2358 
B( 15-N , 42-C ) :   1.1230 B( 15-N , 46-C ) :   1.1027 B( 15-N , 47-C ) :   0.9638 
B( 16-C , 51-C ) :   1.2252 B( 17-C , 60-H ) :   0.9714 B( 18-C , 19-C ) :   1.2686 
B( 19-C , 21-C ) :   1.1873 B( 20-C , 28-C ) :   1.6233 B( 20-C , 63-H ) :   0.9705 
B( 21-C , 26-C ) :   1.6612 B( 21-C , 64-H ) :   0.9735 B( 22-C , 23-C ) :   1.2700 
B( 22-C , 28-C ) :   1.2803 B( 22-C , 29-C ) :   1.2424 B( 23-C , 24-C ) :   1.6245 
B( 23-C , 65-H ) :   0.9716 B( 24-C , 66-H ) :   0.9690 B( 25-C , 67-H ) :   0.9763 
B( 25-C , 68-H ) :   0.9831 B( 25-C , 69-H ) :   0.9819 B( 26-C , 27-C ) :   1.1904 
B( 26-C , 70-H ) :   0.9745 B( 27-C , 29-C ) :   1.2332 B( 28-C , 71-H ) :   0.9711 
B( 29-C , 30-C ) :   1.1939 B( 30-C , 32-C ) :   1.3321 B( 31-C , 39-C ) :   1.6608 
B( 31-C , 72-H ) :   0.9704 B( 32-C , 37-C ) :   1.5266 B( 32-C , 73-H ) :   0.9773 
B( 33-C , 34-C ) :   1.2514 B( 33-C , 39-C ) :   1.2435 B( 33-C , 40-C ) :   1.3081 
B( 34-C , 35-C ) :   1.6586 B( 34-C , 74-H ) :   0.9708 B( 35-C , 75-H ) :   0.9704 
B( 36-C , 76-H ) :   0.9758 B( 36-C , 77-H ) :   0.9824 B( 36-C , 78-H ) :   0.9835 
B( 37-C , 38-C ) :   1.3300 B( 37-C , 79-H ) :   0.9786 B( 38-C , 40-C ) :   1.1927 
B( 39-C , 80-H ) :   0.9719 B( 40-C , 41-C ) :   1.1898 B( 41-C , 43-C ) :   1.2389 
B( 42-C , 50-C ) :   1.6365 B( 42-C , 81-H ) :   0.9696 B( 43-C , 48-C ) :   1.6122 
B( 43-C , 82-H ) :   0.9747 B( 44-C , 45-C ) :   1.2773 B( 44-C , 50-C ) :   1.2588 
B( 44-C , 51-C ) :   1.2511 B( 45-C , 46-C ) :   1.6312 B( 45-C , 83-H ) :   0.9706 
B( 46-C , 84-H ) :   0.9705 B( 47-C , 85-H ) :   0.9761 B( 47-C , 86-H ) :   0.9827 
B( 47-C , 87-H ) :   0.9828 B( 48-C , 49-C ) :   1.2353 B( 48-C , 88-H ) :   0.9730 
B( 49-C , 51-C ) :   1.2013 B( 50-C , 89-H ) :   0.9718 

-------
TIMINGS
-------

Total SCF time: 0 days 0 hours 46 min 37 sec 

Total time                  ....    2797.582 sec
Sum of individual times     ....    2794.727 sec  ( 99.9%)

Fock matrix formation       ....    2776.907 sec  ( 99.3%)
Diagonalization             ....       4.591 sec  (  0.2%)
Density matrix formation    ....       0.530 sec  (  0.0%)
Population analysis         ....       0.314 sec  (  0.0%)
Initial guess               ....       2.247 sec  (  0.1%)
Orbital Transformation      ....       0.000 sec  (  0.0%)
Orbital Orthonormalization  ....       0.000 sec  (  0.0%)
DIIS solution               ....       2.341 sec  (  0.1%)
SOSCF solution              ....       6.462 sec  (  0.2%)

Maximum memory used throughout the entire SCF-calculation: 304.2 MB


           ************************************************************
           *        Program running with 8 parallel MPI-processes     *
           *              working on a common directory               *
           ************************************************************

------------------------------------------------------------------------------
                                ORCA  MP2 
------------------------------------------------------------------------------

Freezing NCore=104 chemical core electrons

----------
MP2 ENERGY (disk based algorithm)
----------

Dimension of the basis                    ...  918
Memory devoted to MP2                     ... 7000 MB   
Data format for buffers                   ... DOUBLE
Compression type for matrix containers    ... UNCOMPRESSED

-------------------------------
PARTIAL EXCHANGE TRANSFORMATION
-------------------------------

Transformation type                        ... one-operator
Generation of integrals (i,mue|j,nue)      ... ON
Generation of integrals (mue,kappa|nue,tau)... OFF
Generation of integrals (i,mue|a,nue)      ... OFF
Dimension of the basis                     ...  918
Number of internal MOs                     ...  127 (  52- 178)
Pair cutoff                                ... 2.500e-12 Eh
Number of AO pairs in the trafo            ... 421821
Total Number of distinct AO pairs          ... 421821
Memory devoted for trafo                   ... 7000.0 MB 
Max. Number of MO pairs treated together   ... 1088      
Number Format for Storage                  ... Double (8 Byte)
Integral package used                      ... LIBINT

Starting integral evaluation:
    ... done with AO integral generation
Closing buffer AOK     (37.97 GB; CompressionRatio= 1.33)
Collecting buffer AOK 
Number of MO pairs included in the trafo   ... 8128
------------------------
SORTING OF (i,mue|j,nue)
------------------------

IBATCH = 1 of  1
Closing buffer KAO     (51.03 GB; CompressionRatio= 1.00)
Collecting buffer KAO 
N(AO-Batches) Done                         ... 174075365 
N(AO-Batches) Skipped                      ... 166589856 
N(IJ)-pairs Skipped                        ...         0 
TOTAL TIME for half transformation         ...  1450.821 sec
AO-integral generation                     ...   261.663 sec
Half transformation                        ...   506.146 sec
K-integral sorting                         ...   397.916 sec

Finished integral transformation - now doing MP2 part

OPERATOR COMBINATION   0   0: ij=( 52..178, 52..178)
Process 2:   Internal MO  84
Process 5:   Internal MO 132
Process 0:   Internal MO  54
Process 0:   Internal MO  57
Process 1:   Internal MO  69
Process 0:   Internal MO  60
Process 4:   Internal MO 117
Process 0:   Internal MO  63
Process 1:   Internal MO  72
Process 3:   Internal MO 102
Process 2:   Internal MO  87
Process 0:   Internal MO  66
Process 7:   Internal MO 165
Process 1:   Internal MO  75
Process 6:   Internal MO 150
Process 2:   Internal MO  90
Process 1:   Internal MO  78
Process 5:   Internal MO 135
Process 3:   Internal MO 105
Process 4:   Internal MO 120
Process 1:   Internal MO  81
Process 2:   Internal MO  93
Process 3:   Internal MO 108
Process 2:   Internal MO  96
Process 7:   Internal MO 168
Process 4:   Internal MO 123
Process 6:   Internal MO 153
Process 5:   Internal MO 138
Process 2:   Internal MO  99
Process 3:   Internal MO 111
Process 4:   Internal MO 126
Process 5:   Internal MO 141
Process 3:   Internal MO 114
Process 6:   Internal MO 156
Process 7:   Internal MO 171
Process 4:   Internal MO 129
Process 5:   Internal MO 144
Process 6:   Internal MO 159
Process 7:   Internal MO 174
Process 5:   Internal MO 147
Process 6:   Internal MO 162
Process 7:   Internal MO 177
-----------------------------------------------
 MP2 CORRELATION ENERGY   :     -7.282682405 Eh
-----------------------------------------------


-------
TIMINGS
-------
Total time                : 1608.959 sec
Integral trafo            : 1463.538 sec ( 91.0%)
K(i,j)                    :    8.909 sec (  0.6%)
T(i,j)                    :    0.100 sec (  0.0%)

---------------------------------------
MP2 TOTAL ENERGY:    -2130.898615826 Eh
---------------------------------------

Maximum memory used throughout the entire MP2-calculation: 6735.7 MB

-------------------------   --------------------
FINAL SINGLE POINT ENERGY     -2130.898615825899
-------------------------   --------------------


                            ***************************************
                            *     ORCA property calculations      *
                            ***************************************


  WARNING: The energy has been calculated at the MP2 level but the densities
           used in the property calculations are still SCF densities
           MP2 response densities have not been calculated 
           use %mp2 Density relaxed end
           or  %mp2 Density unrelaxed end

                                    ---------------------
                                    Active property flags
                                    ---------------------
   (+) Dipole Moment


------------------------------------------------------------------------------
                       ORCA ELECTRIC PROPERTIES CALCULATION
------------------------------------------------------------------------------

Dipole Moment Calculation                       ... on
Quadrupole Moment Calculation                   ... off
Polarizability Calculation                      ... off
GBWName                                         ... /scratch/chu_02/allen/tmpyp4_amber_gaff2/conf1/conf1/Conf287.orca.gbw
Electron density                                ... /scratch/chu_02/allen/tmpyp4_amber_gaff2/conf1/conf1/Conf287.orca.scfp
The origin for moment calculation is the CENTER OF MASS  = (-0.000289, -0.004259 -0.001292)

-------------
DIPOLE MOMENT
-------------
                                X             Y             Z
Electronic contribution:     -2.65372       2.36852      -0.06059
Nuclear contribution   :      0.03921       0.21531       0.07880
                        -----------------------------------------
Total Dipole Moment    :     -2.61451       2.58382       0.01820
                        -----------------------------------------
Magnitude (a.u.)       :      3.67589
Magnitude (Debye)      :      9.34336



--------------------
Rotational spectrum 
--------------------
 
Rotational constants in cm-1:     0.001499     0.001472     0.000763 
Rotational constants in MHz :    44.929136    44.132821    22.862611 

 Dipole components along the rotational axes: 
x,y,z [a.u.] :    -3.378401     1.448496     0.020101 
x,y,z [Debye]:    -8.587214     3.681784     0.051092 

 

Timings for individual modules:

Sum of individual times         ...     4414.745 sec (=  73.579 min)
GTO integral calculation        ...        5.278 sec (=   0.088 min)   0.1 %
SCF iterations                  ...     2799.227 sec (=  46.654 min)  63.4 %
MP2 module                      ...     1610.240 sec (=  26.837 min)  36.5 %
                             ****ORCA TERMINATED NORMALLY****
TOTAL RUN TIME: 0 days 1 hours 13 minutes 37 seconds 50 msec
# of primitive gaussian functions

