
                                 *****************
                                 * O   R   C   A *
                                 *****************

                                            #,                                       
                                            ###                                      
                                            ####                                     
                                            #####                                    
                                            ######                                   
                                           ########,                                 
                                     ,,################,,,,,                         
                               ,,#################################,,                 
                          ,,##########################################,,             
                       ,#########################################, ''#####,          
                    ,#############################################,,   '####,        
                  ,##################################################,,,,####,       
                ,###########''''           ''''###############################       
              ,#####''   ,,,,##########,,,,          '''####'''          '####       
            ,##' ,,,,###########################,,,                        '##       
           ' ,,###''''                  '''############,,,                           
         ,,##''                                '''############,,,,        ,,,,,,###''
      ,#''                                            '''#######################'''  
     '                                                          ''''####''''         
             ,#######,   #######,   ,#######,      ##                                
            ,#'     '#,  ##    ##  ,#'     '#,    #''#        ######   ,####,        
            ##       ##  ##   ,#'  ##            #'  '#       #        #'  '#        
            ##       ##  #######   ##           ,######,      #####,   #    #        
            '#,     ,#'  ##    ##  '#,     ,#' ,#      #,         ##   #,  ,#        
             '#######'   ##     ##  '#######'  #'      '#     #####' # '####'        



                  #######################################################
                  #                        -***-                        #
                  #          Department of theory and spectroscopy      #
                  #    Directorship and core code : Frank Neese         #
                  #        Max Planck Institute fuer Kohlenforschung    #
                  #                Kaiser Wilhelm Platz 1               #
                  #                 D-45470 Muelheim/Ruhr               #
                  #                      Germany                        #
                  #                                                     #
                  #                  All rights reserved                #
                  #                        -***-                        #
                  #######################################################


                         Program Version 5.0.4 -  RELEASE  -


 With contributions from (in alphabetic order):
   Daniel Aravena         : Magnetic Suceptibility
   Michael Atanasov       : Ab Initio Ligand Field Theory (pilot matlab implementation)
   Alexander A. Auer      : GIAO ZORA, VPT2 properties, NMR spectrum
   Ute Becker             : Parallelization
   Giovanni Bistoni       : ED, misc. LED, open-shell LED, HFLD
   Martin Brehm           : Molecular dynamics
   Dmytro Bykov           : SCF Hessian
   Vijay G. Chilkuri      : MRCI spin determinant printing, contributions to CSF-ICE
   Dipayan Datta          : RHF DLPNO-CCSD density
   Achintya Kumar Dutta   : EOM-CC, STEOM-CC
   Dmitry Ganyushin       : Spin-Orbit,Spin-Spin,Magnetic field MRCI
   Miquel Garcia          : C-PCM and meta-GGA Hessian, CC/C-PCM, Gaussian charge scheme
   Yang Guo               : DLPNO-NEVPT2, F12-NEVPT2, CIM, IAO-localization
   Andreas Hansen         : Spin unrestricted coupled pair/coupled cluster methods
   Benjamin Helmich-Paris : MC-RPA, TRAH-SCF, COSX integrals
   Lee Huntington         : MR-EOM, pCC
   Robert Izsak           : Overlap fitted RIJCOSX, COSX-SCS-MP3, EOM
   Marcus Kettner         : VPT2
   Christian Kollmar      : KDIIS, OOCD, Brueckner-CCSD(T), CCSD density, CASPT2, CASPT2-K
   Simone Kossmann        : Meta GGA functionals, TD-DFT gradient, OOMP2, MP2 Hessian
   Martin Krupicka        : Initial AUTO-CI
   Lucas Lang             : DCDCAS
   Marvin Lechner         : AUTO-CI (C++ implementation), FIC-MRCC
   Dagmar Lenk            : GEPOL surface, SMD
   Dimitrios Liakos       : Extrapolation schemes; Compound Job, initial MDCI parallelization
   Dimitrios Manganas     : Further ROCIS development; embedding schemes
   Dimitrios Pantazis     : SARC Basis sets
   Anastasios Papadopoulos: AUTO-CI, single reference methods and gradients
   Taras Petrenko         : DFT Hessian,TD-DFT gradient, ASA, ECA, R-Raman, ABS, FL, XAS/XES, NRVS
   Peter Pinski           : DLPNO-MP2, DLPNO-MP2 Gradient
   Christoph Reimann      : Effective Core Potentials
   Marius Retegan         : Local ZFS, SOC
   Christoph Riplinger    : Optimizer, TS searches, QM/MM, DLPNO-CCSD(T), (RO)-DLPNO pert. Triples
   Tobias Risthaus        : Range-separated hybrids, TD-DFT gradient, RPA, STAB
   Michael Roemelt        : Original ROCIS implementation
   Masaaki Saitow         : Open-shell DLPNO-CCSD energy and density
   Barbara Sandhoefer     : DKH picture change effects
   Avijit Sen             : IP-ROCIS
   Kantharuban Sivalingam : CASSCF convergence, NEVPT2, FIC-MRCI
   Bernardo de Souza      : ESD, SOC TD-DFT
   Georgi Stoychev        : AutoAux, RI-MP2 NMR, DLPNO-MP2 response
   Willem Van den Heuvel  : Paramagnetic NMR
   Boris Wezisla          : Elementary symmetry handling
   Frank Wennmohs         : Technical directorship


 We gratefully acknowledge several colleagues who have allowed us to
 interface, adapt or use parts of their codes:
   Stefan Grimme, W. Hujo, H. Kruse, P. Pracht,  : VdW corrections, initial TS optimization,
                  C. Bannwarth, S. Ehlert          DFT functionals, gCP, sTDA/sTD-DF
   Ed Valeev, F. Pavosevic, A. Kumar             : LibInt (2-el integral package), F12 methods
   Garnet Chan, S. Sharma, J. Yang, R. Olivares  : DMRG
   Ulf Ekstrom                                   : XCFun DFT Library
   Mihaly Kallay                                 : mrcc  (arbitrary order and MRCC methods)
   Jiri Pittner, Ondrej Demel                    : Mk-CCSD
   Frank Weinhold                                : gennbo (NPA and NBO analysis)
   Christopher J. Cramer and Donald G. Truhlar   : smd solvation model
   Lars Goerigk                                  : TD-DFT with DH, B97 family of functionals
   V. Asgeirsson, H. Jonsson                     : NEB implementation
   FAccTs GmbH                                   : IRC, NEB, NEB-TS, DLPNO-Multilevel, CI-OPT
                                                   MM, QMMM, 2- and 3-layer-ONIOM, Crystal-QMMM,
                                                   LR-CPCM, SF, NACMEs, symmetry and pop. for TD-DFT,
                                                   nearIR, NL-DFT gradient (VV10), updates on ESD,
                                                   ML-optimized integration grids
   S Lehtola, MJT Oliveira, MAL Marques          : LibXC Library
   Liviu Ungur et al                             : ANISO software


 Your calculation uses the libint2 library for the computation of 2-el integrals
 For citations please refer to: http://libint.valeyev.net

 Your ORCA version has been built with support for libXC version: 5.1.0
 For citations please refer to: https://tddft.org/programs/libxc/

 This ORCA versions uses:
   CBLAS   interface :  Fast vector & matrix operations
   LAPACKE interface :  Fast linear algebra routines
   SCALAPACK package :  Parallel linear algebra routines
   Shared memory     :  Shared parallel matrices
   BLAS/LAPACK       :  OpenBLAS 0.3.15  USE64BITINT DYNAMIC_ARCH NO_AFFINITY Sandybridge SINGLE_THREADED
        Core in use  :  Sandybridge
   Copyright (c) 2011-2014, The OpenBLAS Project


================================================================================

----- Orbital basis set information -----
Your calculation utilizes the basis: cc-pVDZ 
       H, B-Ne : Obtained from the ccRepo (grant-hill.group.shef.ac.uk/ccrepo) Feb. 2017
                 T. H. Dunning, Jr., J. Chem. Phys. 90, 1007 (1989)
            He : Obtained from the ccRepo (grant-hill.group.shef.ac.uk/ccrepo) Feb. 2017
                 D. E. Woon, T. H. Dunning, Jr., J. Chem. Phys. 100, 2975 (1994)
  Li-Be, Na-Mg : Obtained from the ccRepo (grant-hill.group.shef.ac.uk/ccrepo) Feb. 2017
                 B. P. Prascher, D. E. Woon, K. A. Peterson, T. H. Dunning, Jr., A. K. Wilson, Theor. Chem. Acc. 128, 69 (2011)
         Al-Ar : Obtained from the ccRepo (grant-hill.group.shef.ac.uk/ccrepo) Feb. 2017
                 D. E. Woon, T. H. Dunning, Jr., J. Chem. Phys. 98, 1358 (1993)
            Ca : Obtained from the Peterson Research Group Website (tyr0.chem.wsu.edu/~kipeters) Feb. 2017
                 J. Koput, K. A. Peterson, J. Phys. Chem. 106, 9595 (2002)
         Sc-Zn : Obtained from the ccRepo (grant-hill.group.shef.ac.uk/ccrepo) Feb. 2017
                 N. B. Balabanov, K. A. Peterson, J. Chem. Phys. 123, 064107 (2005)
                 N. B. Balabanov, K. A. Peterson, J. Chem. Phys. 125, 074110 (2006)
         Ga-Kr : Obtained from the ccRepo (grant-hill.group.shef.ac.uk/ccrepo) Feb. 2017
                 A. K. Wilson, D. E. Woon, K. A. Peterson, T. H. Dunning, Jr., J. Chem. Phys. 110, 7667 (1999)

================================================================================
                                        WARNINGS
                       Please study these warnings very carefully!
================================================================================


WARNING: No MP2 level density has been requested!
         To caclulate MP2 level properties use
         %mp2 Density relaxed end
         or
         %mp2 Density unrelaxed end

WARNING: Post HF methods need fully converged wavefunctions
  ===> : Setting SCFConvForced true
         You can overwrite this default with %scf ConvForced false 


INFO   : the flag for use of the SHARK integral package has been found!

================================================================================
                                       INPUT FILE
================================================================================
NAME = /scratch/allen/tmpyp4_amber_gaff2/2.Mdgx/conf11/conf11/Conf175.orca
|  1> ! PAL2
|  2> ! mp2 cc-pvdz TightSCF  NoKeepInts
|  3> 
|  4> %scf
|  5>   MaxCore 2000
|  6> end
|  7> %mp2
|  8>   MaxCore 2000
|  9> end
| 10> * xyz 0 1
| 11>    C       -4.94800         5.19000        -0.08100
| 12>    C        1.47400         4.04100         0.05700
| 13>    C       -2.80200         4.09300         0.04900
| 14>    C       -2.22100         5.36000         0.21500
| 15>    C       -3.01500         6.49000         0.23100
| 16>    C       -5.18300         7.62200         0.14000
| 17>    C        0.13200         4.30700         0.06100
| 18>    C       -0.56900         3.05600         0.04700
| 19>    C        1.64900         2.61800         0.02300
| 20>    C       -4.19600         4.03100        -0.09700
| 21>    N       -4.35700         6.39600         0.08100
| 22>    N        0.38800         2.06700         0.02500
| 23>    N       -2.01000         0.39500        -0.07500
| 24>    N       -0.38800        -2.07400        -0.02700
| 25>    N        2.01000        -0.40100         0.06500
| 26>    C       -1.96000         2.86100         0.02400
| 27>    C       -2.62300         1.61500        -0.01800
| 28>    C       -5.57300        -4.32900         1.06600
| 29>    C       -4.07300         1.47100         0.05600
| 30>    C       -4.10600        -2.75600        -0.02600
| 31>    C       -4.99500        -2.75700        -1.11100
| 32>    C       -6.13200        -3.54200        -1.07600
| 33>    C       -7.65100        -5.11300         0.04000
| 34>    C       -4.32400         0.14100         0.03700
| 35>    C       -3.02500        -0.52000        -0.04800
| 36>    C       -4.42200        -3.56600         1.07500
| 37>    N       -6.40700        -4.31300         0.00100
| 38>    C       -2.86700        -1.92200        -0.04000
| 39>    C       -1.65000        -2.62400        -0.02700
| 40>    C        3.56800        -6.14200        -1.04000
| 41>    C       -1.47600        -4.04900        -0.03400
| 42>    C        2.80300        -4.09900        -0.00800
| 43>    C        3.65700        -4.38400         1.06900
| 44>    C        4.42700        -5.53000         1.05900
| 45>    C        5.24500        -7.58800         0.01400
| 46>    C       -0.13400        -4.31500        -0.02200
| 47>    C        0.56800        -3.06400        -0.02700
| 48>    C        2.77500        -5.01200        -1.07400
| 49>    N        4.37600        -6.39100         0.01700
| 50>    C        1.95900        -2.86900        -0.00900
| 51>    C        2.62100        -1.62200         0.00900
| 52>    C        5.54300         4.33900        -1.13000
| 53>    C        4.07000        -1.47900        -0.09400
| 54>    C        4.10400         2.75100        -0.02100
| 55>    C        5.02700         2.72900         1.03600
| 56>    C        6.16600         3.50900         0.97800
| 57>    C        7.61900         5.15300        -0.11500
| 58>    C        4.32100        -0.14800        -0.09200
| 59>    C        3.02500         0.51400         0.01500
| 60>    C        4.38700         3.58200        -1.11500
| 61>    C        2.86600         1.91600         0.01300
| 62>    N        6.41300         4.29600        -0.09500
| 63>    H       -6.02400         5.19100        -0.20200
| 64>    H        2.27400         4.76600         0.08100
| 65>    H       -1.15200         5.47200         0.34300
| 66>    H       -2.61400         7.48600         0.36500
| 67>    H       -5.42000         7.84100         1.18400
| 68>    H       -4.62000         8.44600        -0.29800
| 69>    H       -6.10000         7.45400        -0.42500
| 70>    H       -0.33200         5.28200         0.06900
| 71>    H       -4.70300         3.08400        -0.24400
| 72>    H        0.18200         1.07200         0.00500
| 73>    H       -0.18300        -1.08000        -0.02100
| 74>    H       -5.86400        -4.96200         1.89500
| 75>    H       -4.79400         2.27200         0.13900
| 76>    H       -4.80000        -2.16000        -1.99400
| 77>    H       -6.84100        -3.58200        -1.89300
| 78>    H       -8.42800        -4.53600         0.54600
| 79>    H       -7.95600        -5.33700        -0.98100
| 80>    H       -7.45600        -6.03700         0.58400
| 81>    H       -5.28700        -0.34400         0.10000
| 82>    H       -3.78000        -3.60100         1.94700
| 83>    H        3.58700        -6.86800        -1.84300
| 84>    H       -2.27600        -4.77400        -0.05000
| 85>    H        3.71400        -3.72400         1.92600
| 86>    H        5.09200        -5.79500         1.87100
| 87>    H        6.20500        -7.32900        -0.43900
| 88>    H        5.39300        -7.91700         1.04200
| 89>    H        4.75900        -8.37300        -0.56400
| 90>    H        0.32900        -5.29000        -0.00800
| 91>    H        2.14600        -4.84200        -1.94000
| 92>    H        5.80800         4.98600        -1.95600
| 93>    H        4.78800        -2.28100        -0.18500
| 94>    H        4.86000         2.11400         1.91200
| 95>    H        6.90100         3.53100         1.77200
| 96>    H        7.38300         6.10900         0.35600
| 97>    H        8.41400         4.65200         0.43500
| 98>    H        7.92100         5.31000        -1.15000
| 99>    H        5.28300         0.33600        -0.17900
|100>    H        3.72000         3.63200        -1.96700
|101> *
|102> 
|103>                          ****END OF INPUT****
================================================================================

                       ****************************
                       * Single Point Calculation *
                       ****************************

---------------------------------
CARTESIAN COORDINATES (ANGSTROEM)
---------------------------------
  C     -4.948000    5.190000   -0.081000
  C      1.474000    4.041000    0.057000
  C     -2.802000    4.093000    0.049000
  C     -2.221000    5.360000    0.215000
  C     -3.015000    6.490000    0.231000
  C     -5.183000    7.622000    0.140000
  C      0.132000    4.307000    0.061000
  C     -0.569000    3.056000    0.047000
  C      1.649000    2.618000    0.023000
  C     -4.196000    4.031000   -0.097000
  N     -4.357000    6.396000    0.081000
  N      0.388000    2.067000    0.025000
  N     -2.010000    0.395000   -0.075000
  N     -0.388000   -2.074000   -0.027000
  N      2.010000   -0.401000    0.065000
  C     -1.960000    2.861000    0.024000
  C     -2.623000    1.615000   -0.018000
  C     -5.573000   -4.329000    1.066000
  C     -4.073000    1.471000    0.056000
  C     -4.106000   -2.756000   -0.026000
  C     -4.995000   -2.757000   -1.111000
  C     -6.132000   -3.542000   -1.076000
  C     -7.651000   -5.113000    0.040000
  C     -4.324000    0.141000    0.037000
  C     -3.025000   -0.520000   -0.048000
  C     -4.422000   -3.566000    1.075000
  N     -6.407000   -4.313000    0.001000
  C     -2.867000   -1.922000   -0.040000
  C     -1.650000   -2.624000   -0.027000
  C      3.568000   -6.142000   -1.040000
  C     -1.476000   -4.049000   -0.034000
  C      2.803000   -4.099000   -0.008000
  C      3.657000   -4.384000    1.069000
  C      4.427000   -5.530000    1.059000
  C      5.245000   -7.588000    0.014000
  C     -0.134000   -4.315000   -0.022000
  C      0.568000   -3.064000   -0.027000
  C      2.775000   -5.012000   -1.074000
  N      4.376000   -6.391000    0.017000
  C      1.959000   -2.869000   -0.009000
  C      2.621000   -1.622000    0.009000
  C      5.543000    4.339000   -1.130000
  C      4.070000   -1.479000   -0.094000
  C      4.104000    2.751000   -0.021000
  C      5.027000    2.729000    1.036000
  C      6.166000    3.509000    0.978000
  C      7.619000    5.153000   -0.115000
  C      4.321000   -0.148000   -0.092000
  C      3.025000    0.514000    0.015000
  C      4.387000    3.582000   -1.115000
  C      2.866000    1.916000    0.013000
  N      6.413000    4.296000   -0.095000
  H     -6.024000    5.191000   -0.202000
  H      2.274000    4.766000    0.081000
  H     -1.152000    5.472000    0.343000
  H     -2.614000    7.486000    0.365000
  H     -5.420000    7.841000    1.184000
  H     -4.620000    8.446000   -0.298000
  H     -6.100000    7.454000   -0.425000
  H     -0.332000    5.282000    0.069000
  H     -4.703000    3.084000   -0.244000
  H      0.182000    1.072000    0.005000
  H     -0.183000   -1.080000   -0.021000
  H     -5.864000   -4.962000    1.895000
  H     -4.794000    2.272000    0.139000
  H     -4.800000   -2.160000   -1.994000
  H     -6.841000   -3.582000   -1.893000
  H     -8.428000   -4.536000    0.546000
  H     -7.956000   -5.337000   -0.981000
  H     -7.456000   -6.037000    0.584000
  H     -5.287000   -0.344000    0.100000
  H     -3.780000   -3.601000    1.947000
  H      3.587000   -6.868000   -1.843000
  H     -2.276000   -4.774000   -0.050000
  H      3.714000   -3.724000    1.926000
  H      5.092000   -5.795000    1.871000
  H      6.205000   -7.329000   -0.439000
  H      5.393000   -7.917000    1.042000
  H      4.759000   -8.373000   -0.564000
  H      0.329000   -5.290000   -0.008000
  H      2.146000   -4.842000   -1.940000
  H      5.808000    4.986000   -1.956000
  H      4.788000   -2.281000   -0.185000
  H      4.860000    2.114000    1.912000
  H      6.901000    3.531000    1.772000
  H      7.383000    6.109000    0.356000
  H      8.414000    4.652000    0.435000
  H      7.921000    5.310000   -1.150000
  H      5.283000    0.336000   -0.179000
  H      3.720000    3.632000   -1.967000

----------------------------
CARTESIAN COORDINATES (A.U.)
----------------------------
  NO LB      ZA    FRAG     MASS         X           Y           Z
   0 C     6.0000    0    12.011   -9.350365    9.807679   -0.153068
   1 C     6.0000    0    12.011    2.785456    7.636383    0.107714
   2 C     6.0000    0    12.011   -5.295013    7.734649    0.092597
   3 C     6.0000    0    12.011   -4.197082   10.128932    0.406291
   4 C     6.0000    0    12.011   -5.697524   12.264323    0.436527
   5 C     6.0000    0    12.011   -9.794451   14.403493    0.264562
   6 C     6.0000    0    12.011    0.249444    8.139050    0.115273
   7 C     6.0000    0    12.011   -1.075254    5.775003    0.088817
   8 C     6.0000    0    12.011    3.116158    4.947303    0.043464
   9 C     6.0000    0    12.011   -7.929291    7.617486   -0.183303
  10 N     7.0000    0    14.007   -8.233537   12.086688    0.153068
  11 N     7.0000    0    14.007    0.733214    3.906064    0.047243
  12 N     7.0000    0    14.007   -3.798350    0.746442   -0.141729
  13 N     7.0000    0    14.007   -0.733214   -3.919292   -0.051023
  14 N     7.0000    0    14.007    3.798350   -0.757780    0.122832
  15 C     6.0000    0    12.011   -3.703863    5.406506    0.045353
  16 C     6.0000    0    12.011   -4.956752    3.051908   -0.034015
  17 C     6.0000    0    12.011  -10.531444   -8.180624    2.014448
  18 C     6.0000    0    12.011   -7.696855    2.779787    0.105825
  19 C     6.0000    0    12.011   -7.759216   -5.208085   -0.049133
  20 C     6.0000    0    12.011   -9.439182   -5.209975   -2.099486
  21 C     6.0000    0    12.011  -11.587801   -6.693410   -2.033345
  22 C     6.0000    0    12.011  -14.458295   -9.662170    0.075589
  23 C     6.0000    0    12.011   -8.171176    0.266451    0.069920
  24 C     6.0000    0    12.011   -5.716422   -0.982658   -0.090707
  25 C     6.0000    0    12.011   -8.356369   -6.738763    2.031456
  26 N     7.0000    0    14.007  -12.107475   -8.150389    0.001890
  27 C     6.0000    0    12.011   -5.417845   -3.632054   -0.075589
  28 C     6.0000    0    12.011   -3.118048   -4.958641   -0.051023
  29 C     6.0000    0    12.011    6.742543  -11.606698   -1.965315
  30 C     6.0000    0    12.011   -2.789236   -7.651501   -0.064251
  31 C     6.0000    0    12.011    5.296902   -7.745987   -0.015118
  32 C     6.0000    0    12.011    6.910728   -8.284559    2.020117
  33 C     6.0000    0    12.011    8.365818  -10.450186    2.001220
  34 C     6.0000    0    12.011    9.911614  -14.339242    0.026456
  35 C     6.0000    0    12.011   -0.253223   -8.154168   -0.041574
  36 C     6.0000    0    12.011    1.073364   -5.790121   -0.051023
  37 C     6.0000    0    12.011    5.243990   -9.471307   -2.029566
  38 N     7.0000    0    14.007    8.269442  -12.077240    0.032125
  39 C     6.0000    0    12.011    3.701973   -5.421624   -0.017008
  40 C     6.0000    0    12.011    4.952972   -3.065136    0.017008
  41 C     6.0000    0    12.011   10.474752    8.199522   -2.135391
  42 C     6.0000    0    12.011    7.691185   -2.794905   -0.177634
  43 C     6.0000    0    12.011    7.755436    5.198637   -0.039684
  44 C     6.0000    0    12.011    9.499653    5.157063    1.957756
  45 C     6.0000    0    12.011   11.652051    6.631049    1.848152
  46 C     6.0000    0    12.011   14.397823    9.737759   -0.217319
  47 C     6.0000    0    12.011    8.165507   -0.279679   -0.173855
  48 C     6.0000    0    12.011    5.716422    0.971319    0.028346
  49 C     6.0000    0    12.011    8.290229    6.768999   -2.107045
  50 C     6.0000    0    12.011    5.415955    3.620715    0.024566
  51 N     7.0000    0    14.007   12.118814    8.118263   -0.179524
  52 H     1.0000    0     1.008  -11.383710    9.809568   -0.381725
  53 H     1.0000    0     1.008    4.297237    9.006435    0.153068
  54 H     1.0000    0     1.008   -2.176965   10.340581    0.648176
  55 H     1.0000    0     1.008   -4.939744   14.146490    0.689750
  56 H     1.0000    0     1.008  -10.242316   14.817343    2.237436
  57 H     1.0000    0     1.008   -8.730535   15.960627   -0.563138
  58 H     1.0000    0     1.008  -11.527329   14.086019   -0.803134
  59 H     1.0000    0     1.008   -0.627389    9.981533    0.130391
  60 H     1.0000    0     1.008   -8.887382    5.827915   -0.461093
  61 H     1.0000    0     1.008    0.343930    2.025786    0.009449
  62 H     1.0000    0     1.008   -0.345820   -2.040904   -0.039684
  63 H     1.0000    0     1.008  -11.081354   -9.376821    3.581031
  64 H     1.0000    0     1.008   -9.059347    4.293458    0.262672
  65 H     1.0000    0     1.008   -9.070685   -4.081808   -3.768114
  66 H     1.0000    0     1.008  -12.927616   -6.768999   -3.577252
  67 H     1.0000    0     1.008  -15.926612   -8.571798    1.031790
  68 H     1.0000    0     1.008  -15.034661  -10.085468   -1.853821
  69 H     1.0000    0     1.008  -14.089798  -11.408277    1.103600
  70 H     1.0000    0     1.008   -9.990982   -0.650066    0.188973
  71 H     1.0000    0     1.008   -7.143165   -6.804904    3.679297
  72 H     1.0000    0     1.008    6.778448  -12.978639   -3.482765
  73 H     1.0000    0     1.008   -4.301017   -9.021553   -0.094486
  74 H     1.0000    0     1.008    7.018443   -7.037340    3.639613
  75 H     1.0000    0     1.008    9.622485  -10.950963    3.535678
  76 H     1.0000    0     1.008   11.725751  -13.849803   -0.829590
  77 H     1.0000    0     1.008   10.191293  -14.960962    1.969095
  78 H     1.0000    0     1.008    8.993207  -15.822677   -1.065806
  79 H     1.0000    0     1.008    0.621720   -9.996651   -0.015118
  80 H     1.0000    0     1.008    4.055352   -9.150054   -3.666069
  81 H     1.0000    0     1.008   10.975529    9.422175   -3.696304
  82 H     1.0000    0     1.008    9.048009   -4.310465   -0.349599
  83 H     1.0000    0     1.008    9.184069    3.994881    3.613156
  84 H     1.0000    0     1.008   13.041000    6.672623    3.348595
  85 H     1.0000    0     1.008   13.951848   11.544337    0.672743
  86 H     1.0000    0     1.008   15.900156    8.791006    0.822031
  87 H     1.0000    0     1.008   14.968521   10.034446   -2.173185
  88 H     1.0000    0     1.008    9.983423    0.634948   -0.338261
  89 H     1.0000    0     1.008    7.029781    6.863485   -3.717091

--------------------------------
INTERNAL COORDINATES (ANGSTROEM)
--------------------------------
 C      0   0   0     0.000000000000     0.00000000     0.00000000
 C      1   0   0     6.525437073484     0.00000000     0.00000000
 C      1   2   0     2.413633153567    17.02245268     0.00000000
 C      3   1   2     1.403711508822    87.94497133    12.87760778
 C      4   3   1     1.381156037528   120.12564861     0.16817790
 C      5   4   3     2.447433145154   152.52735115     1.56502261
 C      2   1   3     1.368114030335     1.74413245   238.85532494
 C      7   2   4     1.434084376876   108.05010202   193.65536236
 C      2   1   3     1.434123425651   107.11583969     8.39499257
 C      1   2   7     1.381680498523    46.91406813   230.21277345
 N      1   2   7     1.352760510955    74.00732205    45.44750429
 N      9   2   1     1.376127174356   106.58526707   357.82154811
 N     12   9   2     2.925062050624   168.53581413   171.12065651
 N     13  12   9     2.954513327098    91.55032014    11.12112580
 N     14  13  12     2.925371258490    88.43092389   359.84326247
 C      8   7   2     1.404790019896   127.24786865   181.11170171
 C     13  12   9     1.366535034311    81.72106996   188.00453233
 C     14  13  12     5.758810554272    80.56209567   166.76250791
 C     17  13  12     1.459010623676   111.08861209   183.82872609
 C     18  14  13     2.412235892279    27.27532823    36.33507194
 C     20  18  14     1.402692767501    87.95206320   148.94598259
 C     21  20  18     1.382106725257   120.14573887   359.70382047
 C     18  14  13     2.446510985056   144.15733107    82.80075377
 C     19  17  13     1.353610726908   106.29293361   359.75308708
 C     13  12   9     1.366813447402   172.21332906    33.46711076
 C     18  14  13     1.380960173213    15.08449437   309.23336894
 N     22  21  20     1.352773077792   120.73759875     0.27865223
 C     25  13  17     1.410897586645   125.60330303   182.37774668
 C     14  13  12     1.376642291955    80.24689249   177.85461986
 C     14  13  12     5.764089607215   164.51507311   312.20821879
 C     29  14  13     1.435600919476   106.58649366   178.76395472
 C     30  14  13     2.413316804732    27.10625047    82.12560436
 C     32  30  14     1.403734305344    87.90059683   149.76154742
 C     33  32  30     1.380694028378   120.14881443   359.74174632
 C     34  33  32     2.448777858443   152.49203239     2.45173620
 C     31  29  14     1.368160809262   108.16950133     0.70383075
 C     14  13  12     1.376239804685   169.26375223   353.09862627
 C     30  14  13     1.380907310430    14.68948582   353.70041132
 N     34  33  32     1.352658863128   120.85575621     0.19603406
 C     37  14  29     1.404717053360   126.01551127   180.90772073
 C     15  14  13     1.366491126938    81.61824056   183.09049352
 C      2   1   3     4.249062720177   157.54599794   135.08619826
 C     41  15  14     1.459677704153   111.05201287   175.08990246
 C     42   2   1     2.412953791518    41.78584867   206.48287652
 C     44  42   2     1.403446472082    87.95153797   233.97558675
 C     45  44  42     1.381696421071   120.11137308     0.19721020
 C     42   2   1     2.450019795838   135.97209175   116.79772562
 C     43  41  15     1.354461516618   106.26758155     0.30894352
 C     15  14  13     1.367461151185   171.87382904   332.35056460
 C     42   2   1     1.381886391857    32.59078432   255.33815571
 C      9   2   1     1.404988612053   126.98745415   178.82588564
 N     42   2   1     1.352765315936   113.57249190   144.53431481
 H      1   2   7     1.082782526641   168.66939147   204.65221204
 H      2   1   3     1.079907866440   127.68494647   187.27304468
 H      4   3   1     1.082445841601   121.07352477   179.49932898
 H      5   4   3     1.082022643016   122.78533453   179.43083509
 H      6   5   4     1.092733270291   104.43596465   100.12489573
 H      6   5   4     1.089857330113    84.66606446   209.58931893
 H      6   5   4     1.090109168845   133.87974262   322.40880315
 H     55   4   3     0.885198282872   148.87346406    49.29422355
 H     10   1   2     1.084189559072   118.66880456   186.24262732
 H     12   9   2     1.016297692608   125.29023241   180.00180175
 H     14  13  12     1.014936943854    44.97226959   359.42596618
 H     18  14  13     1.082871645210   128.03556573   234.20482432
 H     61  10   1     0.902393484019   140.85757399   234.33520464
 H     21  20  18     1.083569563987   121.05669627   180.67006309
 H     22  21  20     1.082483256222   122.73097286   180.59748951
 H     23  18  14     1.092105306278   103.92715769   234.93429879
 H     23  18  14     1.088871893291   134.19244188    12.25587044
 H     23  18  14     1.089833473518    84.85857450   125.45241208
 H     24  19  17     1.080075460327   127.28078426   178.44613241
 H     26  18  14     1.083408048706   118.76995697   244.94906660
 H     30  14  13     1.082703098730   127.99711412   279.66882698
 H     31  29  14     1.079759695488   125.22293469   180.92530585
 H     33  32  30     1.083188810873   121.01964473   180.74284758
 H     34  33  32     1.082494341787   122.70821597   180.59516895
 H     35  34  33     1.092652735319   105.73575241    97.19771933
 H     35  34  33     1.089462711615    84.05943581   206.43036958
 H     35  34  33     1.089268102902   133.08365142   318.50306270
 H     36  31  29     1.079439669458   126.61599965   178.98859863
 H     38  30  73     1.083742127999   118.77264435   359.90091293
 H     42   2   1     1.082178358682   119.31790784     1.16584527
 H     43  41  15     1.080281907652   126.36969097   182.06329380
 H     45  44  42     1.083277434455   121.10105945   179.58025624
 H     46  45  44     1.082194529648   122.72144639   179.46906377
 H     47  42   2     1.091546151109   106.65128841   315.16475048
 H     47  42   2     1.088818625851   132.46019523    94.52397119
 H     47  42   2     1.089531091801    83.63838232   206.04504406
 H     48  43  41     1.080402239909   127.23657387   181.62955349
 H     50  42   2     1.083186502870   118.77001737    94.71359229

---------------------------
INTERNAL COORDINATES (A.U.)
---------------------------
 C      0   0   0     0.000000000000     0.00000000     0.00000000
 C      1   0   0    12.331288973021     0.00000000     0.00000000
 C      1   2   0     4.561105647995    17.02245268     0.00000000
 C      3   1   2     2.652630322707    87.94497133    12.87760778
 C      4   3   1     2.610006659140   120.12564861     0.16817790
 C      5   4   3     4.624978375423   152.52735115     1.56502261
 C      2   1   3     2.585360837309     1.74413245   238.85532494
 C      7   2   4     2.710026725231   108.05010202   193.65536236
 C      2   1   3     2.710100516721   107.11583969     8.39499257
 C      1   2   7     2.610997746789    46.91406813   230.21277345
 N      1   2   7     2.556346890489    74.00732205    45.44750429
 N      9   2   1     2.600503484979   106.58526707   357.82154811
 N     12   9   2     5.527566200405   168.53581413   171.12065651
 N     13  12   9     5.583221047236    91.55032014    11.12112580
 N     14  13  12     5.528150518591    88.43092389   359.84326247
 C      8   7   2     2.654668413270   127.24786865   181.11170171
 C     13  12   9     2.582376967257    81.72106996   188.00453233
 C     14  13  12    10.882574804710    80.56209567   166.76250791
 C     17  13  12     2.757130505230   111.08861209   183.82872609
 C     18  14  13     4.558465206823    27.27532823    36.33507194
 C     20  18  14     2.650705180609    87.95206320   148.94598259
 C     21  20  18     2.611803198586   120.14573887   359.70382047
 C     18  14  13     4.623235745386   144.15733107    82.80075377
 C     19  17  13     2.557953565794   106.29293361   359.75308708
 C     13  12   9     2.582903091751   172.21332906    33.46711076
 C     18  14  13     2.609636529225    15.08449437   309.23336894
 N     22  21  20     2.556370638369   120.73759875     0.27865223
 C     25  13  17     2.666210041769   125.60330303   182.37774668
 C     14  13  12     2.601476916169    80.24689249   177.85461986
 C     14  13  12    10.892550769017   164.51507311   312.20821879
 C     29  14  13     2.712892575415   106.58649366   178.76395472
 C     30  14  13     4.560507835333    27.10625047    82.12560436
 C     32  30  14     2.652673401891    87.90059683   149.76154742
 C     33  32  30     2.609133588376   120.14881443   359.74174632
 C     34  33  32     4.627519515267   152.49203239     2.45173620
 C     31  29  14     2.585449236669   108.16950133     0.70383075
 C     14  13  12     2.600716325456   169.26375223   353.09862627
 C     30  14  13     2.609536633043    14.68948582   353.70041132
 N     34  33  32     2.556154803934   120.85575621     0.19603406
 C     37  14  29     2.654530526499   126.01551127   180.90772073
 C     15  14  13     2.582293994346    81.61824056   183.09049352
 C      2   1   3     8.029564866989   157.54599794   135.08619826
 C     41  15  14     2.758391104639   111.05201287   175.08990246
 C     42   2   1     4.559821839776    41.78584867   206.48287652
 C     44  42   2     2.652129475853    87.95153797   233.97558675
 C     45  44  42     2.611027836043   120.11137308     0.19721020
 C     42   2   1     4.629866436820   135.97209175   116.79772562
 C     43  41  15     2.559561325344   106.26758155     0.30894352
 C     15  14  13     2.584127074516   171.87382904   332.35056460
 C     42   2   1     2.611386828803    32.59078432   255.33815571
 C      9   2   1     2.655043698059   126.98745415   178.82588564
 N     42   2   1     2.556355970587   113.57249190   144.53431481
 H      1   2   7     2.046162437948   168.66939147   204.65221204
 H      2   1   3     2.040730117440   127.68494647   187.27304468
 H      4   3   1     2.045526195428   121.07352477   179.49932898
 H      5   4   3     2.044726466002   122.78533453   179.43083509
 H      6   5   4     2.064966618273   104.43596465   100.12489573
 H      6   5   4     2.059531878959    84.66606446   209.58931893
 H      6   5   4     2.060007785194   133.87974262   322.40880315
 H     55   4   3     1.672782328846   148.87346406    49.29422355
 H     10   1   2     2.048821343902   118.66880456   186.24262732
 H     12   9   2     1.920524309565   125.29023241   180.00180175
 H     14  13  12     1.917952867083    44.97226959   359.42596618
 H     18  14  13     2.046330847636   128.03556573   234.20482432
 H     61  10   1     1.705276549831   140.85757399   234.33520464
 H     21  20  18     2.047649722989   121.05669627   180.67006309
 H     22  21  20     2.045596898814   122.73097286   180.59748951
 H     23  18  14     2.063779938267   103.92715769   234.93429879
 H     23  18  14     2.057669673245   134.19244188    12.25587044
 H     23  18  14     2.059486796529    84.85857450   125.45241208
 H     24  19  17     2.041046823986   127.28078426   178.44613241
 H     26  18  14     2.047344503340   118.76995697   244.94906660
 H     30  14  13     2.046012340948   127.99711412   279.66882698
 H     31  29  14     2.040450114918   125.22293469   180.92530585
 H     33  32  30     2.046930203877   121.01964473   180.74284758
 H     34  33  32     2.045617847496   122.70821597   180.59516895
 H     35  34  33     2.064814429233   105.73575241    97.19771933
 H     35  34  33     2.058786158072    84.05943581   206.43036958
 H     35  34  33     2.058418400901   133.08365142   318.50306270
 H     36  31  29     2.039845353366   126.61599965   178.98859863
 H     38  30  73     2.047975821711   118.77264435   359.90091293
 H     42   2   1     2.045020725966   119.31790784     1.16584527
 H     43  41  15     2.041436952892   126.36969097   182.06329380
 H     45  44  42     2.047097678177   121.10105945   179.58025624
 H     46  45  44     2.045051284662   122.72144639   179.46906377
 H     47  42   2     2.062723288131   106.65128841   315.16475048
 H     47  42   2     2.057569012371   132.46019523    94.52397119
 H     47  42   2     2.058915377895    83.63838232   206.04504406
 H     48  43  41     2.041664347903   127.23657387   181.62955349
 H     50  42   2     2.046925842384   118.77001737    94.71359229

---------------------
BASIS SET INFORMATION
---------------------
There are 3 groups of distinct atoms

 Group   1 Type C   : 17s4p1d contracted to 3s2p1d pattern {881/31/1}
 Group   2 Type N   : 17s4p1d contracted to 3s2p1d pattern {881/31/1}
 Group   3 Type H   : 4s1p contracted to 2s1p pattern {31/1}

Atom   0C    basis set group =>   1
Atom   1N    basis set group =>   2
Atom   2C    basis set group =>   1
Atom   3N    basis set group =>   2
Atom   4C    basis set group =>   1
Atom   5N    basis set group =>   2
Atom   6C    basis set group =>   1
Atom   7N    basis set group =>   2
Atom   8C    basis set group =>   1
Atom   9N    basis set group =>   2
Atom  10C    basis set group =>   1
Atom  11N    basis set group =>   2
Atom  12C    basis set group =>   1
Atom  13N    basis set group =>   2
Atom  14C    basis set group =>   1
Atom  15N    basis set group =>   2
Atom  16C    basis set group =>   1
Atom  17C    basis set group =>   1
Atom  18C    basis set group =>   1
Atom  19C    basis set group =>   1
Atom  20C    basis set group =>   1
Atom  21C    basis set group =>   1
Atom  22C    basis set group =>   1
Atom  23C    basis set group =>   1
Atom  24C    basis set group =>   1
Atom  25C    basis set group =>   1
Atom  26C    basis set group =>   1
Atom  27C    basis set group =>   1
Atom  28C    basis set group =>   1
Atom  29C    basis set group =>   1
Atom  30C    basis set group =>   1
Atom  31C    basis set group =>   1
Atom  32C    basis set group =>   1
Atom  33C    basis set group =>   1
Atom  34C    basis set group =>   1
Atom  35C    basis set group =>   1
Atom  36C    basis set group =>   1
Atom  37C    basis set group =>   1
Atom  38C    basis set group =>   1
Atom  39C    basis set group =>   1
Atom  40C    basis set group =>   1
Atom  41C    basis set group =>   1
Atom  42C    basis set group =>   1
Atom  43C    basis set group =>   1
Atom  44C    basis set group =>   1
Atom  45C    basis set group =>   1
Atom  46C    basis set group =>   1
Atom  47C    basis set group =>   1
Atom  48C    basis set group =>   1
Atom  49C    basis set group =>   1
Atom  50C    basis set group =>   1
Atom  51C    basis set group =>   1
Atom  52H    basis set group =>   3
Atom  53H    basis set group =>   3
Atom  54H    basis set group =>   3
Atom  55H    basis set group =>   3
Atom  56H    basis set group =>   3
Atom  57H    basis set group =>   3
Atom  58H    basis set group =>   3
Atom  59H    basis set group =>   3
Atom  60H    basis set group =>   3
Atom  61H    basis set group =>   3
Atom  62H    basis set group =>   3
Atom  63H    basis set group =>   3
Atom  64H    basis set group =>   3
Atom  65H    basis set group =>   3
Atom  66H    basis set group =>   3
Atom  67H    basis set group =>   3
Atom  68H    basis set group =>   3
Atom  69H    basis set group =>   3
Atom  70H    basis set group =>   3
Atom  71H    basis set group =>   3
Atom  72H    basis set group =>   3
Atom  73H    basis set group =>   3
Atom  74H    basis set group =>   3
Atom  75H    basis set group =>   3
Atom  76H    basis set group =>   3
Atom  77H    basis set group =>   3
Atom  78H    basis set group =>   3
Atom  79H    basis set group =>   3
Atom  80H    basis set group =>   3
Atom  81H    basis set group =>   3
Atom  82H    basis set group =>   3
Atom  83H    basis set group =>   3
Atom  84H    basis set group =>   3
Atom  85H    basis set group =>   3
Atom  86H    basis set group =>   3
Atom  87H    basis set group =>   3
Atom  88H    basis set group =>   3
Atom  89H    basis set group =>   3


           ************************************************************
           *        Program running with 16 parallel MPI-processes    *
           *              working on a common directory               *
           ************************************************************
------------------------------------------------------------------------------
                           ORCA GTO INTEGRAL CALCULATION
------------------------------------------------------------------------------
------------------------------------------------------------------------------
                   ___                                                        
                  /   \      - P O W E R E D   B Y -                         
                 /     \                                                     
                 |  |  |   _    _      __       _____    __    __             
                 |  |  |  | |  | |    /  \     |  _  \  |  |  /  |          
                  \  \/   | |  | |   /    \    | | | |  |  | /  /          
                 / \  \   | |__| |  /  /\  \   | |_| |  |  |/  /          
                |  |  |   |  __  | /  /__\  \  |    /   |      \           
                |  |  |   | |  | | |   __   |  |    \   |  |\   \          
                \     /   | |  | | |  |  |  |  | |\  \  |  | \   \       
                 \___/    |_|  |_| |__|  |__|  |_| \__\ |__|  \__/        
                                                                              
                      - O R C A' S   B I G   F R I E N D -                    
                                      &                                       
                       - I N T E G R A L  F E E D E R -                       
                                                                              
 v1 FN, 2020, v2 2021                                                         
------------------------------------------------------------------------------


Reading SHARK input file /scratch/allen/tmpyp4_amber_gaff2/conf1/conf1/Conf175.orca.SHARKINP.tmp ... ok
----------------------
SHARK INTEGRAL PACKAGE
----------------------

Number of atoms                             ...     90
Number of basis functions                   ...   1230
Number of shells                            ...    738
Maximum angular momentum                    ...      2
Integral batch strategy                     ... SHARK/LIBINT Hybrid
RI-J (if used) integral strategy            ... SPLIT-RIJ (Revised 2003 algorithm where possible)
Printlevel                                  ...      1
Contraction scheme used                     ... PARTIAL GENERAL contraction
Coulomb Range Separation                    ... NOT USED
Exchange Range Separation                   ... NOT USED
Finite Nucleus Model                        ... NOT USED
Auxiliary Coulomb fitting basis             ... NOT available
Auxiliary J/K fitting basis                 ... NOT available
Auxiliary Correlation fitting basis         ... NOT available
Auxiliary 'external' fitting basis          ... NOT available
Integral threshold                          ...     2.500000e-11
Primitive cut-off                           ...     2.500000e-12
Primitive pair pre-selection threshold      ...     2.500000e-12

Calculating pre-screening integrals         ... done (  0.1 sec) Dimension = 738
Calculating pre-screening integrals (ORCA)  ... done (  0.3 sec) Dimension = 426
Organizing shell pair data                  ... done (  0.7 sec)
Shell pair information
Total number of shell pairs                 ...    272691
Shell pairs after pre-screening             ...     71728
Total number of primitive shell pairs       ...    422091
Primitive shell pairs kept                  ...     92638
          la=0 lb=0:  29442 shell pairs
          la=1 lb=0:  26037 shell pairs
          la=1 lb=1:   4699 shell pairs
          la=2 lb=0:   7893 shell pairs
          la=2 lb=1:   3128 shell pairs
          la=2 lb=2:    529 shell pairs

Calculating one electron integrals          ... done (  0.2 sec)
Calculating Nuclear repulsion               ... done (  0.0 sec) ENN=   6235.470412189392 Eh

SHARK setup successfully completed in   2.5 seconds

Maximum memory used throughout the entire GTOINT-calculation: 99.1 MB


           ************************************************************
           *        Program running with 16 parallel MPI-processes    *
           *              working on a common directory               *
           ************************************************************
-------------------------------------------------------------------------------
                                 ORCA SCF
-------------------------------------------------------------------------------

------------
SCF SETTINGS
------------
Hamiltonian:
 Ab initio Hamiltonian  Method          .... Hartree-Fock(GTOs)


General Settings:
 Integral files         IntName         .... /scratch/allen/tmpyp4_amber_gaff2/conf1/conf1/Conf175.orca
 Hartree-Fock type      HFTyp           .... RHF
 Total Charge           Charge          ....    0
 Multiplicity           Mult            ....    1
 Number of Electrons    NEL             ....  358
 Basis Dimension        Dim             ....  918
 Nuclear Repulsion      ENuc            ....   6235.4704121894 Eh

Convergence Acceleration:
 DIIS                   CNVDIIS         .... on
   Start iteration      DIISMaxIt       ....    12
   Startup error        DIISStart       ....  0.200000
   # of expansion vecs  DIISMaxEq       ....     5
   Bias factor          DIISBfac        ....   1.050
   Max. coefficient     DIISMaxC        ....  10.000
 Trust-Rad. Augm. Hess. CNVTRAH         .... auto
   Auto Start mean grad. ratio tolernc. ....  1.125000
   Auto Start start iteration           ....    20
   Auto Start num. interpolation iter.  ....    10
   Max. Number of Micro iterations      ....    16
   Max. Number of Macro iterations      .... Maxiter - #DIIS iter
   Number of Davidson start vectors     ....     2
   Converg. threshold I  (grad. norm)   ....   1.000e-05
   Converg. threshold II (energy diff.) ....   1.000e-08
   Grad. Scal. Fac. for Micro threshold ....   0.100
   Minimum threshold for Micro iter.    ....   0.010
   NR start threshold (gradient norm)   ....   0.001
   Initial trust radius                 ....   0.400
   Minimum AH scaling param. (alpha)    ....   1.000
   Maximum AH scaling param. (alpha)    .... 1000.000
   Orbital update algorithm             .... Taylor
   White noise on init. David. guess    .... on
   Maximum white noise                  ....   0.010
   Quad. conv. algorithm                .... NR
 SOSCF                  CNVSOSCF        .... on
   Start iteration      SOSCFMaxIt      ....   150
   Startup grad/error   SOSCFStart      ....  0.003300
 Level Shifting         CNVShift        .... on
   Level shift para.    LevelShift      ....    0.2500
   Turn off err/grad.   ShiftErr        ....    0.0010
 Zerner damping         CNVZerner       .... off
 Static damping         CNVDamp         .... on
   Fraction old density DampFac         ....    0.7000
   Max. Damping (<1)    DampMax         ....    0.9800
   Min. Damping (>=0)   DampMin         ....    0.0000
   Turn off err/grad.   DampErr         ....    0.1000
 Fernandez-Rico         CNVRico         .... off

SCF Procedure:
 Maximum # iterations   MaxIter         ....   125
 SCF integral mode      SCFMode         .... Direct
   Integral package                     .... SHARK and LIBINT hybrid scheme
 Reset frequency        DirectResetFreq ....    20
 Integral Threshold     Thresh          ....  2.500e-11 Eh
 Primitive CutOff       TCut            ....  2.500e-12 Eh

Convergence Tolerance:
 Convergence Check Mode ConvCheckMode   .... Total+1el-Energy
 Convergence forced     ConvForced      .... 1
 Energy Change          TolE            ....  1.000e-08 Eh
 1-El. energy change                    ....  1.000e-05 Eh
 Orbital Gradient       TolG            ....  1.000e-05
 Orbital Rotation angle TolX            ....  1.000e-05
 DIIS Error             TolErr          ....  5.000e-07


Diagonalization of the overlap matrix:
Smallest eigenvalue                        ... 1.635e-04
Time for diagonalization                   ...    0.485 sec
Threshold for overlap eigenvalues          ... 1.000e-08
Number of eigenvalues below threshold      ... 0
Time for construction of square roots      ...    0.268 sec
Total time needed                          ...    0.760 sec

Time for model grid setup =    1.295 sec

------------------------------
INITIAL GUESS: MODEL POTENTIAL
------------------------------
Loading Hartree-Fock densities                     ... done
Calculating cut-offs                               ... done
Initializing the effective Hamiltonian             ... done
Setting up the integral package (SHARK)            ... done
Starting the Coulomb interaction                   ... done (   1.4 sec)
Reading the grid                                   ... done
Mapping shells                                     ... done
Starting the XC term evaluation                    ... done (   0.2 sec)
Transforming the Hamiltonian                       ... done (   0.3 sec)
Diagonalizing the Hamiltonian                      ... done (   0.4 sec)
Back transforming the eigenvectors                 ... done (   0.1 sec)
Now organizing SCF variables                       ... done
                      ------------------
                      INITIAL GUESS DONE (   3.8 sec)
                      ------------------
--------------
SCF ITERATIONS
--------------
ITER       Energy         Delta-E        Max-DP      RMS-DP      [F,P]     Damp
               ***  Starting incremental Fock matrix formation  ***
  0  -2121.5837337103   0.000000000000 0.07858448  0.00130504  0.2310602 0.7000
  1  -2122.2235803768  -0.639846666534 0.07040216  0.00106597  0.1434332 0.7000
                               ***Turning on DIIS***
  2  -2122.6231858485  -0.399605471710 0.13919585  0.00240936  0.0803242 0.0000
  3  -2118.0515579646   4.571627883908 0.09586377  0.00073990  0.0433749 0.0000
  4  -2123.3268637887  -5.275305824038 0.02724946  0.00024192  0.0093684 0.0000
  5  -2123.4511721935  -0.124308404784 0.01293115  0.00013736  0.0048080 0.0000
  6  -2123.4349999461   0.016172247348 0.00805773  0.00008745  0.0022583 0.0000
  7  -2123.5263725683  -0.091372622184 0.00501145  0.00006818  0.0016411 0.0000
  8  -2123.5320227377  -0.005650169425 0.00398614  0.00006496  0.0015385 0.0000
  9  -2123.5060330523   0.025989685404 0.00269933  0.00004641  0.0012400 0.0000
 10  -2123.5133117749  -0.007278722615 0.00545809  0.00009724  0.0009738 0.0000
                      *** Initiating the SOSCF procedure ***
                           *** Shutting down DIIS ***
                      *** Re-Reading the Fockian *** 
                      *** Removing any level shift *** 
ITER      Energy       Delta-E        Grad      Rot      Max-DP    RMS-DP
 11  -2123.40871603   0.1045957416  0.000185  0.000185  0.000247  0.000005
               *** Restarting incremental Fock matrix formation ***
 12  -2123.47386889  -0.0651528589  0.000930  0.006226  0.001525  0.000036
 13  -2123.47398109  -0.0001121959  0.001132  0.030895  0.006954  0.000139
 14  -2123.47416456  -0.0001834765  0.000409  0.002184  0.000638  0.000013
 15  -2123.47417967  -0.0000151095  0.000159  0.001803  0.000462  0.000012
 16  -2123.47418570  -0.0000060274  0.000134  0.002028  0.000504  0.000008
 17  -2123.47418807  -0.0000023665  0.000110  0.001619  0.000273  0.000006
 18  -2123.47418902  -0.0000009551  0.000053  0.000674  0.000196  0.000003
 19  -2123.47418956  -0.0000005394  0.000039  0.001130  0.000206  0.000004
 20  -2123.47418989  -0.0000003241  0.000021  0.000671  0.000111  0.000002
 21  -2123.47419003  -0.0000001386  0.000025  0.000891  0.000138  0.000003
 22  -2123.47419016  -0.0000001358  0.000017  0.000904  0.000140  0.000003
 23  -2123.47419025  -0.0000000912  0.000013  0.000409  0.000069  0.000001
 24  -2123.47419029  -0.0000000424  0.000007  0.000321  0.000053  0.000001
 25  -2123.47419032  -0.0000000301  0.000007  0.000119  0.000035  0.000001
 26  -2123.47419034  -0.0000000145  0.000006  0.000074  0.000028  0.000000
 27  -2123.47419034  -0.0000000053  0.000003  0.000059  0.000019  0.000000
                  ***Gradient check signals convergence***
              ***Rediagonalizing the Fockian in SOSCF/NRSCF***

               *****************************************************
               *                     SUCCESS                       *
               *           SCF CONVERGED AFTER  28 CYCLES          *
               *****************************************************


----------------
TOTAL SCF ENERGY
----------------

Total Energy       :        -2123.47419035 Eh          -57782.67033 eV

Components:
Nuclear Repulsion  :         6235.47041219 Eh          169675.77607 eV
Electronic Energy  :        -8358.94460254 Eh         -227458.44640 eV
One Electron Energy:       -15311.38733039 Eh         -416644.03103 eV
Two Electron Energy:         6952.44272785 Eh          189185.58463 eV

Virial components:
Potential Energy   :        -4246.06452794 Eh         -115541.28981 eV
Kinetic Energy     :         2122.59033759 Eh           57758.61948 eV
Virial Ratio       :            2.00041640


---------------
SCF CONVERGENCE
---------------

  Last Energy change         ...   -4.3219e-09  Tolerance :   1.0000e-08
  Last MAX-Density change    ...    9.2041e-06  Tolerance :   1.0000e-07
  Last RMS-Density change    ...    1.8203e-07  Tolerance :   5.0000e-09
  Last Orbital Gradient      ...    1.6626e-06  Tolerance :   1.0000e-05
  Last Orbital Rotation      ...    4.5217e-05  Tolerance :   1.0000e-05

             **** THE GBW FILE WAS UPDATED (/scratch/allen/tmpyp4_amber_gaff2/conf1/conf1/Conf175.orca.gbw) ****
             **** DENSITY /scratch/allen/tmpyp4_amber_gaff2/conf1/conf1/Conf175.orca.scfp WAS UPDATED ****
             **** ENERGY FILE WAS UPDATED (/scratch/allen/tmpyp4_amber_gaff2/conf1/conf1/Conf175.orca.en.tmp) ****
             **** THE GBW FILE WAS UPDATED (/scratch/allen/tmpyp4_amber_gaff2/conf1/conf1/Conf175.orca.gbw) ****
             **** DENSITY /scratch/allen/tmpyp4_amber_gaff2/conf1/conf1/Conf175.orca.scfp WAS UPDATED ****
----------------
ORBITAL ENERGIES
----------------

  NO   OCC          E(Eh)            E(eV) 
   0   2.0000     -15.680417      -426.6858 
   1   2.0000     -15.634874      -425.4466 
   2   2.0000     -15.631222      -425.3472 
   3   2.0000     -15.587544      -424.1586 
   4   2.0000     -15.525348      -422.4662 
   5   2.0000     -15.515409      -422.1957 
   6   2.0000     -15.453688      -420.5162 
   7   2.0000     -15.439761      -420.1373 
   8   2.0000     -11.330015      -308.3054 
   9   2.0000     -11.328781      -308.2718 
  10   2.0000     -11.328307      -308.2589 
  11   2.0000     -11.299870      -307.4851 
  12   2.0000     -11.297998      -307.4342 
  13   2.0000     -11.293772      -307.3192 
  14   2.0000     -11.290745      -307.2368 
  15   2.0000     -11.287315      -307.1434 
  16   2.0000     -11.285968      -307.1068 
  17   2.0000     -11.282626      -307.0159 
  18   2.0000     -11.269295      -306.6531 
  19   2.0000     -11.263776      -306.5029 
  20   2.0000     -11.262784      -306.4759 
  21   2.0000     -11.250172      -306.1327 
  22   2.0000     -11.248479      -306.0867 
  23   2.0000     -11.238612      -305.8182 
  24   2.0000     -11.236041      -305.7482 
  25   2.0000     -11.231774      -305.6321 
  26   2.0000     -11.231109      -305.6140 
  27   2.0000     -11.229287      -305.5644 
  28   2.0000     -11.229032      -305.5575 
  29   2.0000     -11.211546      -305.0817 
  30   2.0000     -11.210063      -305.0413 
  31   2.0000     -11.193273      -304.5844 
  32   2.0000     -11.191814      -304.5447 
  33   2.0000     -11.191659      -304.5405 
  34   2.0000     -11.188239      -304.4475 
  35   2.0000     -11.187956      -304.4397 
  36   2.0000     -11.186802      -304.4084 
  37   2.0000     -11.175182      -304.0922 
  38   2.0000     -11.172803      -304.0274 
  39   2.0000     -11.171341      -303.9876 
  40   2.0000     -11.170226      -303.9573 
  41   2.0000     -11.169233      -303.9303 
  42   2.0000     -11.168998      -303.9239 
  43   2.0000     -11.161792      -303.7278 
  44   2.0000     -11.160779      -303.7002 
  45   2.0000     -11.156779      -303.5914 
  46   2.0000     -11.156383      -303.5806 
  47   2.0000     -11.151325      -303.4430 
  48   2.0000     -11.146430      -303.3098 
  49   2.0000     -11.135112      -303.0018 
  50   2.0000     -11.129737      -302.8555 
  51   2.0000     -11.117204      -302.5145 
  52   2.0000      -1.360901       -37.0320 
  53   2.0000      -1.321985       -35.9730 
  54   2.0000      -1.319098       -35.8945 
  55   2.0000      -1.279608       -34.8199 
  56   2.0000      -1.226550       -33.3761 
  57   2.0000      -1.210239       -32.9323 
  58   2.0000      -1.173354       -31.9286 
  59   2.0000      -1.150868       -31.3167 
  60   2.0000      -1.144055       -31.1313 
  61   2.0000      -1.110805       -30.2265 
  62   2.0000      -1.108602       -30.1666 
  63   2.0000      -1.082548       -29.4576 
  64   2.0000      -1.076882       -29.3035 
  65   2.0000      -1.046126       -28.4665 
  66   2.0000      -1.043770       -28.4024 
  67   2.0000      -1.041431       -28.3388 
  68   2.0000      -1.015121       -27.6228 
  69   2.0000      -1.013831       -27.5877 
  70   2.0000      -1.008944       -27.4548 
  71   2.0000      -0.993957       -27.0469 
  72   2.0000      -0.985347       -26.8126 
  73   2.0000      -0.982123       -26.7249 
  74   2.0000      -0.973806       -26.4986 
  75   2.0000      -0.962003       -26.1774 
  76   2.0000      -0.954632       -25.9769 
  77   2.0000      -0.946091       -25.7444 
  78   2.0000      -0.938118       -25.5275 
  79   2.0000      -0.916612       -24.9423 
  80   2.0000      -0.911018       -24.7901 
  81   2.0000      -0.898099       -24.4385 
  82   2.0000      -0.877442       -23.8764 
  83   2.0000      -0.872968       -23.7547 
  84   2.0000      -0.870415       -23.6852 
  85   2.0000      -0.860932       -23.4271 
  86   2.0000      -0.842945       -22.9377 
  87   2.0000      -0.838451       -22.8154 
  88   2.0000      -0.828806       -22.5530 
  89   2.0000      -0.796421       -21.6717 
  90   2.0000      -0.788869       -21.4662 
  91   2.0000      -0.771241       -20.9865 
  92   2.0000      -0.753412       -20.5014 
  93   2.0000      -0.734233       -19.9795 
  94   2.0000      -0.728015       -19.8103 
  95   2.0000      -0.725446       -19.7404 
  96   2.0000      -0.719838       -19.5878 
  97   2.0000      -0.717802       -19.5324 
  98   2.0000      -0.713299       -19.4099 
  99   2.0000      -0.698717       -19.0131 
 100   2.0000      -0.698386       -19.0040 
 101   2.0000      -0.693631       -18.8747 
 102   2.0000      -0.685671       -18.6581 
 103   2.0000      -0.684648       -18.6302 
 104   2.0000      -0.679224       -18.4826 
 105   2.0000      -0.674433       -18.3523 
 106   2.0000      -0.672746       -18.3063 
 107   2.0000      -0.660562       -17.9748 
 108   2.0000      -0.658163       -17.9095 
 109   2.0000      -0.653410       -17.7802 
 110   2.0000      -0.651658       -17.7325 
 111   2.0000      -0.646607       -17.5951 
 112   2.0000      -0.645778       -17.5725 
 113   2.0000      -0.638152       -17.3650 
 114   2.0000      -0.635501       -17.2928 
 115   2.0000      -0.628068       -17.0906 
 116   2.0000      -0.622869       -16.9491 
 117   2.0000      -0.620267       -16.8783 
 118   2.0000      -0.613412       -16.6918 
 119   2.0000      -0.612833       -16.6760 
 120   2.0000      -0.612025       -16.6540 
 121   2.0000      -0.610967       -16.6253 
 122   2.0000      -0.601020       -16.3546 
 123   2.0000      -0.589110       -16.0305 
 124   2.0000      -0.582199       -15.8424 
 125   2.0000      -0.580828       -15.8051 
 126   2.0000      -0.580156       -15.7869 
 127   2.0000      -0.571442       -15.5497 
 128   2.0000      -0.567161       -15.4332 
 129   2.0000      -0.559852       -15.2344 
 130   2.0000      -0.555240       -15.1089 
 131   2.0000      -0.548149       -14.9159 
 132   2.0000      -0.543020       -14.7763 
 133   2.0000      -0.540821       -14.7165 
 134   2.0000      -0.539085       -14.6693 
 135   2.0000      -0.535702       -14.5772 
 136   2.0000      -0.531611       -14.4659 
 137   2.0000      -0.518190       -14.1007 
 138   2.0000      -0.517435       -14.0801 
 139   2.0000      -0.514010       -13.9869 
 140   2.0000      -0.511859       -13.9284 
 141   2.0000      -0.510406       -13.8889 
 142   2.0000      -0.508331       -13.8324 
 143   2.0000      -0.505133       -13.7454 
 144   2.0000      -0.501708       -13.6522 
 145   2.0000      -0.495423       -13.4812 
 146   2.0000      -0.488909       -13.3039 
 147   2.0000      -0.481345       -13.0981 
 148   2.0000      -0.476456       -12.9650 
 149   2.0000      -0.467850       -12.7309 
 150   2.0000      -0.466206       -12.6861 
 151   2.0000      -0.456340       -12.4176 
 152   2.0000      -0.451312       -12.2808 
 153   2.0000      -0.445252       -12.1159 
 154   2.0000      -0.438262       -11.9257 
 155   2.0000      -0.427595       -11.6355 
 156   2.0000      -0.409344       -11.1388 
 157   2.0000      -0.392001       -10.6669 
 158   2.0000      -0.388737       -10.5781 
 159   2.0000      -0.387186       -10.5359 
 160   2.0000      -0.378764       -10.3067 
 161   2.0000      -0.374346       -10.1865 
 162   2.0000      -0.366387        -9.9699 
 163   2.0000      -0.357238        -9.7209 
 164   2.0000      -0.355455        -9.6724 
 165   2.0000      -0.341716        -9.2986 
 166   2.0000      -0.337742        -9.1904 
 167   2.0000      -0.325022        -8.8443 
 168   2.0000      -0.320537        -8.7222 
 169   2.0000      -0.305828        -8.3220 
 170   2.0000      -0.299201        -8.1417 
 171   2.0000      -0.285615        -7.7720 
 172   2.0000      -0.278235        -7.5712 
 173   2.0000      -0.263304        -7.1649 
 174   2.0000      -0.241813        -6.5801 
 175   2.0000      -0.190052        -5.1716 
 176   2.0000      -0.181359        -4.9350 
 177   2.0000      -0.080338        -2.1861 
 178   2.0000      -0.059809        -1.6275 
 179   0.0000       0.028305         0.7702 
 180   0.0000       0.065173         1.7734 
 181   0.0000       0.090139         2.4528 
 182   0.0000       0.105841         2.8801 
 183   0.0000       0.116394         3.1673 
 184   0.0000       0.136518         3.7148 
 185   0.0000       0.139723         3.8021 
 186   0.0000       0.140640         3.8270 
 187   0.0000       0.164345         4.4720 
 188   0.0000       0.164814         4.4848 
 189   0.0000       0.165976         4.5164 
 190   0.0000       0.174397         4.7456 
 191   0.0000       0.180037         4.8990 
 192   0.0000       0.183469         4.9924 
 193   0.0000       0.189641         5.1604 
 194   0.0000       0.204377         5.5614 
 195   0.0000       0.205868         5.6020 
 196   0.0000       0.207747         5.6531 
 197   0.0000       0.209026         5.6879 
 198   0.0000       0.216246         5.8843 
 199   0.0000       0.229244         6.2381 
 200   0.0000       0.233366         6.3502 
 201   0.0000       0.233824         6.3627 
 202   0.0000       0.238674         6.4946 
 203   0.0000       0.239937         6.5290 
 204   0.0000       0.245894         6.6911 
 205   0.0000       0.254672         6.9300 
 206   0.0000       0.256301         6.9743 
 207   0.0000       0.257346         7.0027 
 208   0.0000       0.259247         7.0545 
 209   0.0000       0.260365         7.0849 
 210   0.0000       0.264018         7.1843 
 211   0.0000       0.266658         7.2561 
 212   0.0000       0.268668         7.3108 
 213   0.0000       0.270347         7.3565 
 214   0.0000       0.272727         7.4213 
 215   0.0000       0.276506         7.5241 
 216   0.0000       0.278855         7.5880 
 217   0.0000       0.281638         7.6638 
 218   0.0000       0.285242         7.7618 
 219   0.0000       0.288071         7.8388 
 220   0.0000       0.288861         7.8603 
 221   0.0000       0.292514         7.9597 
 222   0.0000       0.294757         8.0208 
 223   0.0000       0.296175         8.0593 
 224   0.0000       0.297792         8.1033 
 225   0.0000       0.301350         8.2002 
 226   0.0000       0.304735         8.2923 
 227   0.0000       0.308307         8.3895 
 228   0.0000       0.316765         8.6196 
 229   0.0000       0.324582         8.8323 
 230   0.0000       0.328162         8.9297 
 231   0.0000       0.334555         9.1037 
 232   0.0000       0.343938         9.3590 
 233   0.0000       0.356794         9.7089 
 234   0.0000       0.368557        10.0289 
 235   0.0000       0.371404        10.1064 
 236   0.0000       0.377628        10.2758 
 237   0.0000       0.390910        10.6372 
 238   0.0000       0.396187        10.7808 
 239   0.0000       0.400720        10.9041 
 240   0.0000       0.406040        11.0489 
 241   0.0000       0.410888        11.1808 
 242   0.0000       0.412732        11.2310 
 243   0.0000       0.421105        11.4589 
 244   0.0000       0.428689        11.6652 
 245   0.0000       0.435525        11.8512 
 246   0.0000       0.439130        11.9493 
 247   0.0000       0.441257        12.0072 
 248   0.0000       0.441539        12.0149 
 249   0.0000       0.449556        12.2330 
 250   0.0000       0.453432        12.3385 
 251   0.0000       0.461944        12.5701 
 252   0.0000       0.466307        12.6889 
 253   0.0000       0.469713        12.7815 
 254   0.0000       0.471432        12.8283 
 255   0.0000       0.474117        12.9014 
 256   0.0000       0.476775        12.9737 
 257   0.0000       0.481233        13.0950 
 258   0.0000       0.489686        13.3250 
 259   0.0000       0.494428        13.4541 
 260   0.0000       0.504401        13.7254 
 261   0.0000       0.505075        13.7438 
 262   0.0000       0.505770        13.7627 
 263   0.0000       0.511920        13.9301 
 264   0.0000       0.516153        14.0452 
 265   0.0000       0.521813        14.1993 
 266   0.0000       0.525082        14.2882 
 267   0.0000       0.528153        14.3718 
 268   0.0000       0.535835        14.5808 
 269   0.0000       0.538313        14.6483 
 270   0.0000       0.545016        14.8306 
 271   0.0000       0.551311        15.0019 
 272   0.0000       0.557849        15.1798 
 273   0.0000       0.560345        15.2478 
 274   0.0000       0.562233        15.2991 
 275   0.0000       0.566558        15.4168 
 276   0.0000       0.573284        15.5998 
 277   0.0000       0.575047        15.6478 
 278   0.0000       0.580309        15.7910 
 279   0.0000       0.586168        15.9504 
 280   0.0000       0.591672        16.1002 
 281   0.0000       0.593669        16.1546 
 282   0.0000       0.595395        16.2015 
 283   0.0000       0.595830        16.2133 
 284   0.0000       0.598145        16.2764 
 285   0.0000       0.598975        16.2989 
 286   0.0000       0.603310        16.4169 
 287   0.0000       0.609967        16.5980 
 288   0.0000       0.616493        16.7756 
 289   0.0000       0.624791        17.0014 
 290   0.0000       0.626390        17.0449 
 291   0.0000       0.629176        17.1208 
 292   0.0000       0.631440        17.1824 
 293   0.0000       0.635932        17.3046 
 294   0.0000       0.646048        17.5799 
 295   0.0000       0.649455        17.6726 
 296   0.0000       0.653659        17.7870 
 297   0.0000       0.655510        17.8373 
 298   0.0000       0.661192        17.9920 
 299   0.0000       0.664464        18.0810 
 300   0.0000       0.670437        18.2435 
 301   0.0000       0.675343        18.3770 
 302   0.0000       0.676854        18.4181 
 303   0.0000       0.680197        18.5091 
 304   0.0000       0.681757        18.5516 
 305   0.0000       0.685376        18.6500 
 306   0.0000       0.689247        18.7554 
 307   0.0000       0.692869        18.8539 
 308   0.0000       0.695189        18.9171 
 309   0.0000       0.700215        19.0538 
 310   0.0000       0.703136        19.1333 
 311   0.0000       0.704880        19.1808 
 312   0.0000       0.707946        19.2642 
 313   0.0000       0.710434        19.3319 
 314   0.0000       0.710873        19.3438 
 315   0.0000       0.714811        19.4510 
 316   0.0000       0.716708        19.5026 
 317   0.0000       0.719034        19.5659 
 318   0.0000       0.724951        19.7269 
 319   0.0000       0.727225        19.7888 
 320   0.0000       0.728012        19.8102 
 321   0.0000       0.730442        19.8763 
 322   0.0000       0.731353        19.9011 
 323   0.0000       0.734491        19.9865 
 324   0.0000       0.737218        20.0607 
 325   0.0000       0.741857        20.1870 
 326   0.0000       0.745311        20.2809 
 327   0.0000       0.748733        20.3740 
 328   0.0000       0.750202        20.4140 
 329   0.0000       0.753582        20.5060 
 330   0.0000       0.758602        20.6426 
 331   0.0000       0.763725        20.7820 
 332   0.0000       0.766490        20.8572 
 333   0.0000       0.768377        20.9086 
 334   0.0000       0.771461        20.9925 
 335   0.0000       0.775588        21.1048 
 336   0.0000       0.779212        21.2034 
 337   0.0000       0.782719        21.2989 
 338   0.0000       0.786210        21.3939 
 339   0.0000       0.790687        21.5157 
 340   0.0000       0.792599        21.5677 
 341   0.0000       0.797566        21.7029 
 342   0.0000       0.799317        21.7505 
 343   0.0000       0.804642        21.8954 
 344   0.0000       0.806739        21.9525 
 345   0.0000       0.808835        22.0095 
 346   0.0000       0.810762        22.0620 
 347   0.0000       0.812197        22.1010 
 348   0.0000       0.815773        22.1983 
 349   0.0000       0.816579        22.2202 
 350   0.0000       0.818736        22.2789 
 351   0.0000       0.821975        22.3671 
 352   0.0000       0.823895        22.4193 
 353   0.0000       0.829157        22.5625 
 354   0.0000       0.830452        22.5977 
 355   0.0000       0.832559        22.6551 
 356   0.0000       0.835996        22.7486 
 357   0.0000       0.836574        22.7643 
 358   0.0000       0.838380        22.8135 
 359   0.0000       0.841696        22.9037 
 360   0.0000       0.842898        22.9364 
 361   0.0000       0.843395        22.9499 
 362   0.0000       0.847194        23.0533 
 363   0.0000       0.849518        23.1166 
 364   0.0000       0.852055        23.1856 
 365   0.0000       0.857512        23.3341 
 366   0.0000       0.859421        23.3860 
 367   0.0000       0.864429        23.5223 
 368   0.0000       0.865436        23.5497 
 369   0.0000       0.868631        23.6367 
 370   0.0000       0.869335        23.6558 
 371   0.0000       0.873516        23.7696 
 372   0.0000       0.877633        23.8816 
 373   0.0000       0.878312        23.9001 
 374   0.0000       0.879630        23.9359 
 375   0.0000       0.884701        24.0739 
 376   0.0000       0.890443        24.2302 
 377   0.0000       0.892166        24.2771 
 378   0.0000       0.893465        24.3124 
 379   0.0000       0.895253        24.3611 
 380   0.0000       0.896872        24.4051 
 381   0.0000       0.898614        24.4525 
 382   0.0000       0.899002        24.4631 
 383   0.0000       0.902409        24.5558 
 384   0.0000       0.906466        24.6662 
 385   0.0000       0.907350        24.6903 
 386   0.0000       0.909809        24.7572 
 387   0.0000       0.912498        24.8303 
 388   0.0000       0.915404        24.9094 
 389   0.0000       0.917980        24.9795 
 390   0.0000       0.920429        25.0461 
 391   0.0000       0.926893        25.2220 
 392   0.0000       0.927684        25.2436 
 393   0.0000       0.929093        25.2819 
 394   0.0000       0.930578        25.3223 
 395   0.0000       0.935107        25.4455 
 396   0.0000       0.935741        25.4628 
 397   0.0000       0.942001        25.6331 
 398   0.0000       0.942744        25.6534 
 399   0.0000       0.946497        25.7555 
 400   0.0000       0.949182        25.8285 
 401   0.0000       0.952869        25.9289 
 402   0.0000       0.956058        26.0157 
 403   0.0000       0.958109        26.0715 
 404   0.0000       0.961359        26.1599 
 405   0.0000       0.964767        26.2527 
 406   0.0000       0.969236        26.3743 
 407   0.0000       0.979958        26.6660 
 408   0.0000       0.981995        26.7214 
 409   0.0000       0.986419        26.8418 
 410   0.0000       0.989014        26.9124 
 411   0.0000       0.995048        27.0766 
 412   0.0000       0.998269        27.1643 
 413   0.0000       1.005255        27.3544 
 414   0.0000       1.011973        27.5372 
 415   0.0000       1.015505        27.6333 
 416   0.0000       1.016102        27.6495 
 417   0.0000       1.023924        27.8624 
 418   0.0000       1.025782        27.9130 
 419   0.0000       1.031322        28.0637 
 420   0.0000       1.035442        28.1758 
 421   0.0000       1.040414        28.3111 
 422   0.0000       1.050354        28.5816 
 423   0.0000       1.053414        28.6649 
 424   0.0000       1.054555        28.6959 
 425   0.0000       1.073525        29.2121 
 426   0.0000       1.077497        29.3202 
 427   0.0000       1.078769        29.3548 
 428   0.0000       1.082432        29.4545 
 429   0.0000       1.083937        29.4954 
 430   0.0000       1.089349        29.6427 
 431   0.0000       1.094648        29.7869 
 432   0.0000       1.099948        29.9311 
 433   0.0000       1.102405        29.9980 
 434   0.0000       1.108140        30.1540 
 435   0.0000       1.112839        30.2819 
 436   0.0000       1.113383        30.2967 
 437   0.0000       1.118345        30.4317 
 438   0.0000       1.121215        30.5098 
 439   0.0000       1.123648        30.5760 
 440   0.0000       1.126678        30.6585 
 441   0.0000       1.128645        30.7120 
 442   0.0000       1.134705        30.8769 
 443   0.0000       1.136978        30.9387 
 444   0.0000       1.137167        30.9439 
 445   0.0000       1.143034        31.1035 
 446   0.0000       1.147918        31.2364 
 447   0.0000       1.151613        31.3370 
 448   0.0000       1.154585        31.4179 
 449   0.0000       1.155559        31.4444 
 450   0.0000       1.164198        31.6794 
 451   0.0000       1.165305        31.7096 
 452   0.0000       1.167687        31.7744 
 453   0.0000       1.168362        31.7927 
 454   0.0000       1.170697        31.8563 
 455   0.0000       1.176964        32.0268 
 456   0.0000       1.183848        32.2141 
 457   0.0000       1.191051        32.4101 
 458   0.0000       1.194728        32.5102 
 459   0.0000       1.199520        32.6406 
 460   0.0000       1.202886        32.7322 
 461   0.0000       1.205886        32.8138 
 462   0.0000       1.206994        32.8440 
 463   0.0000       1.208911        32.8961 
 464   0.0000       1.212872        33.0039 
 465   0.0000       1.215320        33.0705 
 466   0.0000       1.222233        33.2587 
 467   0.0000       1.229028        33.4436 
 468   0.0000       1.230597        33.4862 
 469   0.0000       1.232825        33.5469 
 470   0.0000       1.236188        33.6384 
 471   0.0000       1.240196        33.7474 
 472   0.0000       1.241162        33.7737 
 473   0.0000       1.242759        33.8172 
 474   0.0000       1.244072        33.8529 
 475   0.0000       1.248081        33.9620 
 476   0.0000       1.252847        34.0917 
 477   0.0000       1.253368        34.1059 
 478   0.0000       1.257239        34.2112 
 479   0.0000       1.261367        34.3235 
 480   0.0000       1.263590        34.3840 
 481   0.0000       1.270219        34.5644 
 482   0.0000       1.271341        34.5950 
 483   0.0000       1.273606        34.6566 
 484   0.0000       1.275185        34.6995 
 485   0.0000       1.281839        34.8806 
 486   0.0000       1.286557        35.0090 
 487   0.0000       1.290699        35.1217 
 488   0.0000       1.292075        35.1591 
 489   0.0000       1.296908        35.2906 
 490   0.0000       1.299108        35.3505 
 491   0.0000       1.301814        35.4242 
 492   0.0000       1.305719        35.5304 
 493   0.0000       1.309671        35.6380 
 494   0.0000       1.313924        35.7537 
 495   0.0000       1.318886        35.8887 
 496   0.0000       1.320406        35.9301 
 497   0.0000       1.325472        36.0679 
 498   0.0000       1.327638        36.1269 
 499   0.0000       1.331680        36.2369 
 500   0.0000       1.335384        36.3377 
 501   0.0000       1.338681        36.4274 
 502   0.0000       1.342483        36.5308 
 503   0.0000       1.348360        36.6907 
 504   0.0000       1.349333        36.7172 
 505   0.0000       1.352163        36.7942 
 506   0.0000       1.352368        36.7998 
 507   0.0000       1.357709        36.9451 
 508   0.0000       1.361837        37.0575 
 509   0.0000       1.363809        37.1111 
[...]
      px      :     0.043622
      py      :     0.014042
 77 H s       :     0.884391  s :     0.884391
      pz      :     0.047989  p :     0.079304
      px      :     0.015024
      py      :     0.016291
 78 H s       :     0.884753  s :     0.884753
      pz      :     0.025888  p :     0.079272
      px      :     0.020452
      py      :     0.032932
 79 H s       :     0.910745  s :     0.910745
      pz      :     0.021791  p :     0.086300
      px      :     0.021656
      py      :     0.042853
 80 H s       :     0.864264  s :     0.864264
      pz      :     0.039404  p :     0.084856
      px      :     0.030302
      py      :     0.015150
 81 H s       :     0.886828  s :     0.886828
      pz      :     0.037825  p :     0.084128
      px      :     0.016184
      py      :     0.030118
 82 H s       :     0.916170  s :     0.916170
      pz      :     0.021962  p :     0.086721
      px      :     0.031656
      py      :     0.033103
 83 H s       :     0.873529  s :     0.873529
      pz      :     0.039266  p :     0.084095
      px      :     0.015278
      py      :     0.029551
 84 H s       :     0.886763  s :     0.886763
      pz      :     0.035761  p :     0.083421
      px      :     0.031692
      py      :     0.015967
 85 H s       :     0.892892  s :     0.892892
      pz      :     0.022488  p :     0.079781
      px      :     0.014071
      py      :     0.043222
 86 H s       :     0.891057  s :     0.891057
      pz      :     0.024728  p :     0.078822
      px      :     0.032976
      py      :     0.021118
 87 H s       :     0.889868  s :     0.889868
      pz      :     0.048016  p :     0.078739
      px      :     0.015585
      py      :     0.015137
 88 H s       :     0.910518  s :     0.910518
      pz      :     0.021629  p :     0.087027
      px      :     0.042940
      py      :     0.022458
 89 H s       :     0.871006  s :     0.871006
      pz      :     0.037962  p :     0.083856
      px      :     0.030505
      py      :     0.015389


                      *****************************
                      * MAYER POPULATION ANALYSIS *
                      *****************************

  NA   - Mulliken gross atomic population
  ZA   - Total nuclear charge
  QA   - Mulliken gross atomic charge
  VA   - Mayer's total valence
  BVA  - Mayer's bonded valence
  FA   - Mayer's free valence

  ATOM       NA         ZA         QA         VA         BVA        FA
  0 C      5.7795     6.0000     0.2205     3.8482     3.8482     0.0000
  1 N      7.4562     7.0000    -0.4562     3.3470     3.3470    -0.0000
  2 C      6.0758     6.0000    -0.0758     3.9235     3.9235     0.0000
  3 N      7.3417     7.0000    -0.3417     3.4558     3.4558     0.0000
  4 C      6.0889     6.0000    -0.0889     4.1557     4.1557     0.0000
  5 N      7.5687     7.0000    -0.5687     3.0954     3.0954     0.0000
  6 C      6.1131     6.0000    -0.1131     3.9356     3.9356     0.0000
  7 N      7.3411     7.0000    -0.3411     3.4320     3.4320    -0.0000
  8 C      5.7765     6.0000     0.2235     3.8524     3.8524     0.0000
  9 N      7.5625     7.0000    -0.5625     3.0770     3.0770    -0.0000
 10 C      5.8808     6.0000     0.1192     3.9093     3.9093     0.0000
 11 N      7.4382     7.0000    -0.4382     3.3792     3.3792     0.0000
 12 C      6.0428     6.0000    -0.0428     3.8161     3.8161     0.0000
 13 N      7.4292     7.0000    -0.4292     3.4292     3.4292     0.0000
 14 C      5.7919     6.0000     0.2081     3.8081     3.8081     0.0000
 15 N      7.4411     7.0000    -0.4411     3.3719     3.3719     0.0000
 16 C      5.7644     6.0000     0.2356     3.7765     3.7765    -0.0000
 17 C      6.1129     6.0000    -0.1129     3.9269     3.9269    -0.0000
 18 C      6.1608     6.0000    -0.1608     3.7440     3.7440     0.0000
 19 C      5.7960     6.0000     0.2040     3.8763     3.8763     0.0000
 20 C      5.7857     6.0000     0.2143     3.8289     3.8289     0.0000
 21 C      6.0524     6.0000    -0.0524     3.8200     3.8200     0.0000
 22 C      6.0896     6.0000    -0.0896     3.9823     3.9823    -0.0000
 23 C      6.0395     6.0000    -0.0395     3.9925     3.9925     0.0000
 24 C      5.8063     6.0000     0.1937     3.8210     3.8210    -0.0000
 25 C      5.8855     6.0000     0.1145     3.8912     3.8912     0.0000
 26 C      6.0924     6.0000    -0.0924     3.9102     3.9102     0.0000
 27 C      5.7832     6.0000     0.2168     3.8611     3.8611     0.0000
 28 C      6.0618     6.0000    -0.0618     3.9887     3.9887    -0.0000
 29 C      6.1834     6.0000    -0.1834     3.7476     3.7476     0.0000
 30 C      5.7540     6.0000     0.2460     3.7995     3.7995    -0.0000
 31 C      5.7691     6.0000     0.2309     3.8169     3.8169    -0.0000
 32 C      6.0613     6.0000    -0.0613     3.9234     3.9234    -0.0000
 33 C      6.0597     6.0000    -0.0597     3.9708     3.9708     0.0000
 34 C      6.0509     6.0000    -0.0509     3.9833     3.9833     0.0000
 35 C      5.7713     6.0000     0.2287     3.8162     3.8162     0.0000
 36 C      5.8919     6.0000     0.1081     3.8744     3.8744     0.0000
 37 C      6.0644     6.0000    -0.0644     3.9178     3.9178    -0.0000
 38 C      5.7687     6.0000     0.2313     3.8017     3.8017    -0.0000
 39 C      6.0579     6.0000    -0.0579     3.9829     3.9829     0.0000
 40 C      6.1814     6.0000    -0.1814     3.7261     3.7261    -0.0000
 41 C      5.7743     6.0000     0.2257     3.8876     3.8876    -0.0000
 42 C      5.8029     6.0000     0.1971     3.8256     3.8256    -0.0000
 43 C      6.0727     6.0000    -0.0727     3.8999     3.8999    -0.0000
 44 C      6.0899     6.0000    -0.0899     3.9855     3.9855     0.0000
 45 C      6.0618     6.0000    -0.0618     3.9918     3.9918     0.0000
 46 C      5.7885     6.0000     0.2115     3.8286     3.8286    -0.0000
 47 C      5.8846     6.0000     0.1154     3.8931     3.8931     0.0000
 48 C      6.0666     6.0000    -0.0666     3.9094     3.9094    -0.0000
 49 C      5.7619     6.0000     0.2381     3.8964     3.8964    -0.0000
 50 C      6.0461     6.0000    -0.0461     3.9903     3.9903    -0.0000
 51 C      6.1947     6.0000    -0.1947     3.7380     3.7380     0.0000
 52 H      0.9655     1.0000     0.0345     0.9857     0.9857    -0.0000
 53 H      1.0182     1.0000    -0.0182     0.9994     0.9994     0.0000
 54 H      0.9540     1.0000     0.0460     0.9962     0.9962     0.0000
 55 H      0.9677     1.0000     0.0323     0.9864     0.9864     0.0000
 56 H      0.9505     1.0000     0.0495     0.9695     0.9695     0.0000
 57 H      0.9528     1.0000     0.0472     0.9823     0.9823     0.0000
 58 H      0.9534     1.0000     0.0466     0.9847     0.9847     0.0000
 59 H      1.0197     1.0000    -0.0197     0.9910     0.9910     0.0000
 60 H      0.9533     1.0000     0.0467     1.0196     1.0196     0.0000
 61 H      0.8290     1.0000     0.1710     1.0423     1.0423     0.0000
 62 H      0.8244     1.0000     0.1756     1.0437     1.0437    -0.0000
 63 H      0.9444     1.0000     0.0556     0.9852     0.9852    -0.0000
 64 H      1.0282     1.0000    -0.0282     0.9938     0.9938     0.0000
 65 H      0.9530     1.0000     0.0470     1.0101     1.0101     0.0000
 66 H      0.9442     1.0000     0.0558     0.9855     0.9855    -0.0000
 67 H      0.9372     1.0000     0.0628     0.9719     0.9719     0.0000
 68 H      0.9426     1.0000     0.0574     0.9868     0.9868     0.0000
 69 H      0.9435     1.0000     0.0565     0.9828     0.9828     0.0000
 70 H      1.0302     1.0000    -0.0302     0.9941     0.9941    -0.0000
 71 H      0.9549     1.0000     0.0451     1.0058     1.0058    -0.0000
 72 H      0.9283     1.0000     0.0717     0.9835     0.9835    -0.0000
 73 H      1.0079     1.0000    -0.0079     1.0010     1.0010    -0.0000
 74 H      0.9392     1.0000     0.0608     1.0101     1.0101    -0.0000
 75 H      0.9289     1.0000     0.0711     0.9838     0.9838    -0.0000
 76 H      0.9247     1.0000     0.0753     0.9721     0.9721    -0.0000
 77 H      0.9318     1.0000     0.0682     0.9855     0.9855     0.0000
 78 H      0.9325     1.0000     0.0675     0.9854     0.9854    -0.0000
 79 H      1.0166     1.0000    -0.0166     0.9975     0.9975    -0.0000
 80 H      0.9384     1.0000     0.0616     1.0072     1.0072    -0.0000
 81 H      0.9457     1.0000     0.0543     0.9856     0.9856    -0.0000
 82 H      1.0252     1.0000    -0.0252     0.9933     0.9933    -0.0000
 83 H      0.9583     1.0000     0.0417     1.0083     1.0083     0.0000
 84 H      0.9460     1.0000     0.0540     0.9852     0.9852     0.0000
 85 H      0.9392     1.0000     0.0608     0.9716     0.9716     0.0000
 86 H      0.9446     1.0000     0.0554     0.9839     0.9839     0.0000
 87 H      0.9428     1.0000     0.0572     0.9856     0.9856    -0.0000
 88 H      1.0144     1.0000    -0.0144     0.9968     0.9968    -0.0000
 89 H      0.9528     1.0000     0.0472     1.0075     1.0075    -0.0000

  Mayer bond orders larger than 0.100000
B(  0-C ,  1-N ) :   1.0935 B(  0-C , 17-C ) :   1.7246 B(  0-C , 52-H ) :   0.9599 
B(  1-N ,  8-C ) :   1.0983 B(  1-N , 10-C ) :   0.9775 B(  2-C , 12-C ) :   1.4810 
B(  2-C , 16-C ) :   1.3781 B(  2-C , 53-H ) :   0.9718 B(  3-N , 14-C ) :   1.2237 
B(  3-N , 16-C ) :   1.1792 B(  3-N , 61-H ) :   0.8982 B(  4-C ,  6-C ) :   1.2228 
B(  4-C , 17-C ) :   1.2233 B(  4-C , 18-C ) :   1.4823 B(  5-N , 19-C ) :   1.4598 
B(  5-N , 27-C ) :   1.3689 B(  6-C ,  8-C ) :   1.7243 B(  6-C , 54-H ) :   0.8694 
B(  7-N , 30-C ) :   1.1947 B(  7-N , 38-C ) :   1.1897 B(  7-N , 62-H ) :   0.8966 
B(  8-C , 55-H ) :   0.9612 B(  9-N , 41-C ) :   1.3936 B(  9-N , 49-C ) :   1.4260 
B( 10-C , 56-H ) :   0.9776 B( 10-C , 57-H ) :   0.9829 B( 10-C , 58-H ) :   0.9834 
B( 11-N , 20-C ) :   1.1321 B( 11-N , 24-C ) :   1.1074 B( 11-N , 25-C ) :   0.9598 
B( 12-C , 14-C ) :   1.3624 B( 12-C , 59-H ) :   0.9104 B( 13-N , 31-C ) :   1.1627 
B( 13-N , 35-C ) :   1.1609 B( 13-N , 36-C ) :   0.9410 B( 14-C , 18-C ) :   1.1145 
B( 15-N , 42-C ) :   1.1072 B( 15-N , 46-C ) :   1.1243 B( 15-N , 47-C ) :   0.9614 
B( 16-C , 51-C ) :   1.1665 B( 17-C , 60-H ) :   0.8667 B( 18-C , 19-C ) :   1.1135 
B( 19-C , 21-C ) :   1.2533 B( 20-C , 28-C ) :   1.6278 B( 20-C , 63-H ) :   0.9702 
B( 21-C , 26-C ) :   1.5800 B( 21-C , 64-H ) :   0.9113 B( 22-C , 23-C ) :   1.2905 
B( 22-C , 28-C ) :   1.2644 B( 22-C , 29-C ) :   1.2252 B( 23-C , 24-C ) :   1.6190 
B( 23-C , 65-H ) :   0.9703 B( 24-C , 66-H ) :   0.9695 B( 25-C , 67-H ) :   0.9761 
B( 25-C , 68-H ) :   0.9828 B( 25-C , 69-H ) :   0.9823 B( 26-C , 27-C ) :   1.2633 
B( 26-C , 70-H ) :   0.9660 B( 27-C , 29-C ) :   1.2057 B( 28-C , 71-H ) :   0.9720 
B( 29-C , 30-C ) :   1.2484 B( 30-C , 32-C ) :   1.2773 B( 31-C , 39-C ) :   1.5869 
B( 31-C , 72-H ) :   0.9681 B( 32-C , 37-C ) :   1.5816 B( 32-C , 73-H ) :   0.9786 
B( 33-C , 34-C ) :   1.3080 B( 33-C , 39-C ) :   1.3046 B( 33-C , 40-C ) :   1.1744 
B( 34-C , 35-C ) :   1.5843 B( 34-C , 74-H ) :   0.9696 B( 35-C , 75-H ) :   0.9681 
B( 36-C , 76-H ) :   0.9768 B( 36-C , 77-H ) :   0.9815 B( 36-C , 78-H ) :   0.9823 
B( 37-C , 38-C ) :   1.2833 B( 37-C , 79-H ) :   0.9764 B( 38-C , 40-C ) :   1.2354 
B( 39-C , 80-H ) :   0.9705 B( 40-C , 41-C ) :   1.2507 B( 41-C , 43-C ) :   1.1846 
B( 42-C , 50-C ) :   1.6337 B( 42-C , 81-H ) :   0.9697 B( 43-C , 48-C ) :   1.6682 
B( 43-C , 82-H ) :   0.9720 B( 44-C , 45-C ) :   1.2628 B( 44-C , 50-C ) :   1.2719 
B( 44-C , 51-C ) :   1.2622 B( 45-C , 46-C ) :   1.6351 B( 45-C , 83-H ) :   0.9719 
B( 46-C , 84-H ) :   0.9700 B( 47-C , 85-H ) :   0.9762 B( 47-C , 86-H ) :   0.9829 
B( 47-C , 87-H ) :   0.9824 B( 48-C , 49-C ) :   1.1880 B( 48-C , 88-H ) :   0.9749 
B( 49-C , 51-C ) :   1.2454 B( 50-C , 89-H ) :   0.9708 B( 54-H , 59-H ) :   0.1059 
B( 60-H , 64-H ) :   0.1023 

-------
TIMINGS
-------

Total SCF time: 0 days 0 hours 28 min 42 sec 

Total time                  ....    1722.593 sec
Sum of individual times     ....    1717.731 sec  ( 99.7%)

Fock matrix formation       ....    1690.018 sec  ( 98.1%)
Diagonalization             ....       8.754 sec  (  0.5%)
Density matrix formation    ....       0.527 sec  (  0.0%)
Population analysis         ....       0.585 sec  (  0.0%)
Initial guess               ....       2.511 sec  (  0.1%)
Orbital Transformation      ....       0.000 sec  (  0.0%)
Orbital Orthonormalization  ....       0.000 sec  (  0.0%)
DIIS solution               ....       3.964 sec  (  0.2%)
SOSCF solution              ....      10.076 sec  (  0.6%)

Maximum memory used throughout the entire SCF-calculation: 302.7 MB


           ************************************************************
           *        Program running with 16 parallel MPI-processes    *
           *              working on a common directory               *
           ************************************************************

------------------------------------------------------------------------------
                                ORCA  MP2 
------------------------------------------------------------------------------

Freezing NCore=104 chemical core electrons

----------
MP2 ENERGY (disk based algorithm)
----------

Dimension of the basis                    ...  918
Memory devoted to MP2                     ... 2000 MB   
Data format for buffers                   ... DOUBLE
Compression type for matrix containers    ... UNCOMPRESSED

-------------------------------
PARTIAL EXCHANGE TRANSFORMATION
-------------------------------

Transformation type                        ... one-operator
Generation of integrals (i,mue|j,nue)      ... ON
Generation of integrals (mue,kappa|nue,tau)... OFF
Generation of integrals (i,mue|a,nue)      ... OFF
Dimension of the basis                     ...  918
Number of internal MOs                     ...  127 (  52- 178)
Pair cutoff                                ... 2.500e-12 Eh
Number of AO pairs in the trafo            ... 421821
Total Number of distinct AO pairs          ... 421821
Memory devoted for trafo                   ... 2000.0 MB 
Max. Number of MO pairs treated together   ...  311      
Number Format for Storage                  ... Double (8 Byte)
Integral package used                      ... LIBINT

Starting integral evaluation:
    ... done with AO integral generation
Closing buffer AOK     (38.22 GB; CompressionRatio= 1.33)
Collecting buffer AOK 
Number of MO pairs included in the trafo   ... 8128
------------------------
SORTING OF (i,mue|j,nue)
------------------------

IBATCH = 1 of  2
IBATCH = 2 of  2
Closing buffer KAO     (51.03 GB; CompressionRatio= 1.00)
Collecting buffer KAO 
N(AO-Batches) Done                         ...  86215800 
N(AO-Batches) Skipped                      ...  82383246 
N(IJ)-pairs Skipped                        ...         0 
TOTAL TIME for half transformation         ...  2884.457 sec
AO-integral generation                     ...   211.977 sec
Half transformation                        ...   423.014 sec
K-integral sorting                         ...  2022.517 sec
Process 10:   Internal MO 132
Process 13:   Internal MO 156
Process  4:   Internal MO  84

Finished integral transformation - now doing MP2 part

OPERATOR COMBINATION   0   0: ij=( 52..178, 52..178)
Process  1:   Internal MO  60
Process  7:   Internal MO 108
Process  0:   Internal MO  54
Process  2:   Internal MO  69
Process  0:   Internal MO  57
Process  1:   Internal MO  63
Process  5:   Internal MO  93
Process  1:   Internal MO  66
Process  8:   Internal MO 117
Process  2:   Internal MO  72
Process  6:   Internal MO 102
Process 11:   Internal MO 141
Process  4:   Internal MO  87
Process 14:   Internal MO 165
Process  3:   Internal MO  78
Process  2:   Internal MO  75
Process  5:   Internal MO  96
Process  9:   Internal MO 126
Process 12:   Internal MO 150
Process  4:   Internal MO  90
Process  6:   Internal MO 105
Process 15:   Internal MO 174
Process  8:   Internal MO 120
Process  5:   Internal MO  99
Process  3:   Internal MO  81
Process 10:   Internal MO 135
Process  7:   Internal MO 111
Process  9:   Internal MO 129
Process 11:   Internal MO 144
Process  8:   Internal MO 123
Process 12:   Internal MO 153
Process 14:   Internal MO 168
Process 13:   Internal MO 159
Process  7:   Internal MO 114
Process 10:   Internal MO 138
Process 15:   Internal MO 177
Process 11:   Internal MO 147
Process 13:   Internal MO 162
Process 14:   Internal MO 171
-----------------------------------------------
 MP2 CORRELATION ENERGY   :     -7.291398914 Eh
-----------------------------------------------


-------
TIMINGS
-------
Total time                : 3179.577 sec
Integral trafo            : 2886.996 sec ( 90.8%)
K(i,j)                    :    6.567 sec (  0.2%)
T(i,j)                    :    0.244 sec (  0.0%)

---------------------------------------
MP2 TOTAL ENERGY:    -2130.765589263 Eh
---------------------------------------

Maximum memory used throughout the entire MP2-calculation: 2275.3 MB

-------------------------   --------------------
FINAL SINGLE POINT ENERGY     -2130.765589262897
-------------------------   --------------------


                            ***************************************
                            *     ORCA property calculations      *
                            ***************************************


  WARNING: The energy has been calculated at the MP2 level but the densities
           used in the property calculations are still SCF densities
           MP2 response densities have not been calculated 
           use %mp2 Density relaxed end
           or  %mp2 Density unrelaxed end

                                    ---------------------
                                    Active property flags
                                    ---------------------
   (+) Dipole Moment


------------------------------------------------------------------------------
                       ORCA ELECTRIC PROPERTIES CALCULATION
------------------------------------------------------------------------------

Dipole Moment Calculation                       ... on
Quadrupole Moment Calculation                   ... off
Polarizability Calculation                      ... off
GBWName                                         ... /scratch/allen/tmpyp4_amber_gaff2/conf1/conf1/Conf175.orca.gbw
Electron density                                ... /scratch/allen/tmpyp4_amber_gaff2/conf1/conf1/Conf175.orca.scfp
The origin for moment calculation is the CENTER OF MASS  = ( 0.003376, -0.001773  0.000643)

-------------
DIPOLE MOMENT
-------------
                                X             Y             Z
Electronic contribution:      2.74478      -4.46029      -0.20910
Nuclear contribution   :      0.05739       0.22474       0.20641
                        -----------------------------------------
Total Dipole Moment    :      2.80217      -4.23554      -0.00269
                        -----------------------------------------
Magnitude (a.u.)       :      5.07858
Magnitude (Debye)      :     12.90873



--------------------
Rotational spectrum 
--------------------
 
Rotational constants in cm-1:     0.001501     0.001480     0.000760 
Rotational constants in MHz :    45.011475    44.356828    22.781637 

 Dipole components along the rotational axes: 
x,y,z [a.u.] :     3.492226    -3.687322    -0.000432 
x,y,z [Debye]:     8.876533    -9.372428    -0.001097 

 

Timings for individual modules:

Sum of individual times         ...     4927.891 sec (=  82.132 min)
GTO integral calculation        ...        3.727 sec (=   0.062 min)   0.1 %
SCF iterations                  ...     1723.852 sec (=  28.731 min)  35.0 %
MP2 module                      ...     3200.313 sec (=  53.339 min)  64.9 %
                             ****ORCA TERMINATED NORMALLY****
TOTAL RUN TIME: 0 days 1 hours 22 minutes 11 seconds 529 msec
# of primitive gaussian functions

