
                                 *****************
                                 * O   R   C   A *
                                 *****************

                                            #,                                       
                                            ###                                      
                                            ####                                     
                                            #####                                    
                                            ######                                   
                                           ########,                                 
                                     ,,################,,,,,                         
                               ,,#################################,,                 
                          ,,##########################################,,             
                       ,#########################################, ''#####,          
                    ,#############################################,,   '####,        
                  ,##################################################,,,,####,       
                ,###########''''           ''''###############################       
              ,#####''   ,,,,##########,,,,          '''####'''          '####       
            ,##' ,,,,###########################,,,                        '##       
           ' ,,###''''                  '''############,,,                           
         ,,##''                                '''############,,,,        ,,,,,,###''
      ,#''                                            '''#######################'''  
     '                                                          ''''####''''         
             ,#######,   #######,   ,#######,      ##                                
            ,#'     '#,  ##    ##  ,#'     '#,    #''#        ######   ,####,        
            ##       ##  ##   ,#'  ##            #'  '#       #        #'  '#        
            ##       ##  #######   ##           ,######,      #####,   #    #        
            '#,     ,#'  ##    ##  '#,     ,#' ,#      #,         ##   #,  ,#        
             '#######'   ##     ##  '#######'  #'      '#     #####' # '####'        



                  #######################################################
                  #                        -***-                        #
                  #          Department of theory and spectroscopy      #
                  #    Directorship and core code : Frank Neese         #
                  #        Max Planck Institute fuer Kohlenforschung    #
                  #                Kaiser Wilhelm Platz 1               #
                  #                 D-45470 Muelheim/Ruhr               #
                  #                      Germany                        #
                  #                                                     #
                  #                  All rights reserved                #
                  #                        -***-                        #
                  #######################################################


                         Program Version 5.0.4 -  RELEASE  -


 With contributions from (in alphabetic order):
   Daniel Aravena         : Magnetic Suceptibility
   Michael Atanasov       : Ab Initio Ligand Field Theory (pilot matlab implementation)
   Alexander A. Auer      : GIAO ZORA, VPT2 properties, NMR spectrum
   Ute Becker             : Parallelization
   Giovanni Bistoni       : ED, misc. LED, open-shell LED, HFLD
   Martin Brehm           : Molecular dynamics
   Dmytro Bykov           : SCF Hessian
   Vijay G. Chilkuri      : MRCI spin determinant printing, contributions to CSF-ICE
   Dipayan Datta          : RHF DLPNO-CCSD density
   Achintya Kumar Dutta   : EOM-CC, STEOM-CC
   Dmitry Ganyushin       : Spin-Orbit,Spin-Spin,Magnetic field MRCI
   Miquel Garcia          : C-PCM and meta-GGA Hessian, CC/C-PCM, Gaussian charge scheme
   Yang Guo               : DLPNO-NEVPT2, F12-NEVPT2, CIM, IAO-localization
   Andreas Hansen         : Spin unrestricted coupled pair/coupled cluster methods
   Benjamin Helmich-Paris : MC-RPA, TRAH-SCF, COSX integrals
   Lee Huntington         : MR-EOM, pCC
   Robert Izsak           : Overlap fitted RIJCOSX, COSX-SCS-MP3, EOM
   Marcus Kettner         : VPT2
   Christian Kollmar      : KDIIS, OOCD, Brueckner-CCSD(T), CCSD density, CASPT2, CASPT2-K
   Simone Kossmann        : Meta GGA functionals, TD-DFT gradient, OOMP2, MP2 Hessian
   Martin Krupicka        : Initial AUTO-CI
   Lucas Lang             : DCDCAS
   Marvin Lechner         : AUTO-CI (C++ implementation), FIC-MRCC
   Dagmar Lenk            : GEPOL surface, SMD
   Dimitrios Liakos       : Extrapolation schemes; Compound Job, initial MDCI parallelization
   Dimitrios Manganas     : Further ROCIS development; embedding schemes
   Dimitrios Pantazis     : SARC Basis sets
   Anastasios Papadopoulos: AUTO-CI, single reference methods and gradients
   Taras Petrenko         : DFT Hessian,TD-DFT gradient, ASA, ECA, R-Raman, ABS, FL, XAS/XES, NRVS
   Peter Pinski           : DLPNO-MP2, DLPNO-MP2 Gradient
   Christoph Reimann      : Effective Core Potentials
   Marius Retegan         : Local ZFS, SOC
   Christoph Riplinger    : Optimizer, TS searches, QM/MM, DLPNO-CCSD(T), (RO)-DLPNO pert. Triples
   Tobias Risthaus        : Range-separated hybrids, TD-DFT gradient, RPA, STAB
   Michael Roemelt        : Original ROCIS implementation
   Masaaki Saitow         : Open-shell DLPNO-CCSD energy and density
   Barbara Sandhoefer     : DKH picture change effects
   Avijit Sen             : IP-ROCIS
   Kantharuban Sivalingam : CASSCF convergence, NEVPT2, FIC-MRCI
   Bernardo de Souza      : ESD, SOC TD-DFT
   Georgi Stoychev        : AutoAux, RI-MP2 NMR, DLPNO-MP2 response
   Willem Van den Heuvel  : Paramagnetic NMR
   Boris Wezisla          : Elementary symmetry handling
   Frank Wennmohs         : Technical directorship


 We gratefully acknowledge several colleagues who have allowed us to
 interface, adapt or use parts of their codes:
   Stefan Grimme, W. Hujo, H. Kruse, P. Pracht,  : VdW corrections, initial TS optimization,
                  C. Bannwarth, S. Ehlert          DFT functionals, gCP, sTDA/sTD-DF
   Ed Valeev, F. Pavosevic, A. Kumar             : LibInt (2-el integral package), F12 methods
   Garnet Chan, S. Sharma, J. Yang, R. Olivares  : DMRG
   Ulf Ekstrom                                   : XCFun DFT Library
   Mihaly Kallay                                 : mrcc  (arbitrary order and MRCC methods)
   Jiri Pittner, Ondrej Demel                    : Mk-CCSD
   Frank Weinhold                                : gennbo (NPA and NBO analysis)
   Christopher J. Cramer and Donald G. Truhlar   : smd solvation model
   Lars Goerigk                                  : TD-DFT with DH, B97 family of functionals
   V. Asgeirsson, H. Jonsson                     : NEB implementation
   FAccTs GmbH                                   : IRC, NEB, NEB-TS, DLPNO-Multilevel, CI-OPT
                                                   MM, QMMM, 2- and 3-layer-ONIOM, Crystal-QMMM,
                                                   LR-CPCM, SF, NACMEs, symmetry and pop. for TD-DFT,
                                                   nearIR, NL-DFT gradient (VV10), updates on ESD,
                                                   ML-optimized integration grids
   S Lehtola, MJT Oliveira, MAL Marques          : LibXC Library
   Liviu Ungur et al                             : ANISO software


 Your calculation uses the libint2 library for the computation of 2-el integrals
 For citations please refer to: http://libint.valeyev.net

 Your ORCA version has been built with support for libXC version: 5.1.0
 For citations please refer to: https://tddft.org/programs/libxc/

 This ORCA versions uses:
   CBLAS   interface :  Fast vector & matrix operations
   LAPACKE interface :  Fast linear algebra routines
   SCALAPACK package :  Parallel linear algebra routines
   Shared memory     :  Shared parallel matrices
   BLAS/LAPACK       :  OpenBLAS 0.3.15  USE64BITINT DYNAMIC_ARCH NO_AFFINITY Sandybridge SINGLE_THREADED
        Core in use  :  Sandybridge
   Copyright (c) 2011-2014, The OpenBLAS Project


================================================================================

----- Orbital basis set information -----
Your calculation utilizes the basis: cc-pVDZ 
       H, B-Ne : Obtained from the ccRepo (grant-hill.group.shef.ac.uk/ccrepo) Feb. 2017
                 T. H. Dunning, Jr., J. Chem. Phys. 90, 1007 (1989)
            He : Obtained from the ccRepo (grant-hill.group.shef.ac.uk/ccrepo) Feb. 2017
                 D. E. Woon, T. H. Dunning, Jr., J. Chem. Phys. 100, 2975 (1994)
  Li-Be, Na-Mg : Obtained from the ccRepo (grant-hill.group.shef.ac.uk/ccrepo) Feb. 2017
                 B. P. Prascher, D. E. Woon, K. A. Peterson, T. H. Dunning, Jr., A. K. Wilson, Theor. Chem. Acc. 128, 69 (2011)
         Al-Ar : Obtained from the ccRepo (grant-hill.group.shef.ac.uk/ccrepo) Feb. 2017
                 D. E. Woon, T. H. Dunning, Jr., J. Chem. Phys. 98, 1358 (1993)
            Ca : Obtained from the Peterson Research Group Website (tyr0.chem.wsu.edu/~kipeters) Feb. 2017
                 J. Koput, K. A. Peterson, J. Phys. Chem. 106, 9595 (2002)
         Sc-Zn : Obtained from the ccRepo (grant-hill.group.shef.ac.uk/ccrepo) Feb. 2017
                 N. B. Balabanov, K. A. Peterson, J. Chem. Phys. 123, 064107 (2005)
                 N. B. Balabanov, K. A. Peterson, J. Chem. Phys. 125, 074110 (2006)
         Ga-Kr : Obtained from the ccRepo (grant-hill.group.shef.ac.uk/ccrepo) Feb. 2017
                 A. K. Wilson, D. E. Woon, K. A. Peterson, T. H. Dunning, Jr., J. Chem. Phys. 110, 7667 (1999)

================================================================================
                                        WARNINGS
                       Please study these warnings very carefully!
================================================================================


WARNING: No MP2 level density has been requested!
         To caclulate MP2 level properties use
         %mp2 Density relaxed end
         or
         %mp2 Density unrelaxed end

WARNING: Post HF methods need fully converged wavefunctions
  ===> : Setting SCFConvForced true
         You can overwrite this default with %scf ConvForced false 


INFO   : the flag for use of the SHARK integral package has been found!

================================================================================
                                       INPUT FILE
================================================================================
NAME = /scratch/allen/tmpyp4_amber_gaff2/2.Mdgx/conf11/conf11/Conf20.orca
|  1> ! PAL2
|  2> ! mp2 cc-pvdz TightSCF  NoKeepInts
|  3> 
|  4> %scf
|  5>   MaxCore 2000
|  6> end
|  7> %mp2
|  8>   MaxCore 2000
|  9> end
| 10> * xyz 0 1
| 11>    C       -3.08200         6.46900        -0.26900
| 12>    C        1.47400         4.04100         0.05700
| 13>    C       -2.80200         4.09300         0.04900
| 14>    C       -4.14800         4.03900         0.44200
| 15>    C       -4.91100         5.18900         0.46400
| 16>    C       -5.23000         7.59000         0.11400
| 17>    C        0.13200         4.30700         0.06100
| 18>    C       -0.56900         3.05600         0.04700
| 19>    C        1.64900         2.61800         0.02300
| 20>    C       -2.28000         5.34500        -0.31200
| 21>    N       -4.37600         6.38200         0.11600
| 22>    N        0.38800         2.06700         0.02500
| 23>    N       -2.01000         0.39500        -0.07500
| 24>    N       -0.38800        -2.07400        -0.02700
| 25>    N        2.01000        -0.40100         0.06500
| 26>    C       -1.96000         2.86100         0.02400
| 27>    C       -2.62300         1.61500        -0.01800
| 28>    C       -5.57300        -4.32900         1.06600
| 29>    C       -4.07300         1.47100         0.05600
| 30>    C       -4.10600        -2.75600        -0.02600
| 31>    C       -4.99500        -2.75700        -1.11100
| 32>    C       -6.13200        -3.54200        -1.07600
| 33>    C       -7.65100        -5.11300         0.04000
| 34>    C       -4.32400         0.14100         0.03700
| 35>    C       -3.02500        -0.52000        -0.04800
| 36>    C       -4.42200        -3.56600         1.07500
| 37>    N       -6.40700        -4.31300         0.00100
| 38>    C       -2.86700        -1.92200        -0.04000
| 39>    C       -1.65000        -2.62400        -0.02700
| 40>    C        3.56800        -6.14200        -1.04000
| 41>    C       -1.47600        -4.04900        -0.03400
| 42>    C        2.80300        -4.09900        -0.00800
| 43>    C        3.65700        -4.38400         1.06900
| 44>    C        4.42700        -5.53000         1.05900
| 45>    C        5.24500        -7.58800         0.01400
| 46>    C       -0.13400        -4.31500        -0.02200
| 47>    C        0.56800        -3.06400        -0.02700
| 48>    C        2.77500        -5.01200        -1.07400
| 49>    N        4.37600        -6.39100         0.01700
| 50>    C        1.95900        -2.86900        -0.00900
| 51>    C        2.62100        -1.62200         0.00900
| 52>    C        5.54300         4.33900        -1.13000
| 53>    C        4.07000        -1.47900        -0.09400
| 54>    C        4.10400         2.75100        -0.02100
| 55>    C        5.02700         2.72900         1.03600
| 56>    C        6.16600         3.50900         0.97800
| 57>    C        7.61900         5.15300        -0.11500
| 58>    C        4.32100        -0.14800        -0.09200
| 59>    C        3.02500         0.51400         0.01500
| 60>    C        4.38700         3.58200        -1.11500
| 61>    C        2.86600         1.91600         0.01300
| 62>    N        6.41300         4.29600        -0.09500
| 63>    H       -2.71900         7.45600        -0.52600
| 64>    H        2.27400         4.76600         0.08100
| 65>    H       -4.61100         3.10000         0.72300
| 66>    H       -5.95500         5.19500         0.75100
| 67>    H       -5.74700         7.65900        -0.84700
| 68>    H       -5.95500         7.50900         0.92400
| 69>    H       -4.59900         8.46600         0.26300
| 70>    H       -0.33200         5.28200         0.06900
| 71>    H       -1.24400         5.45500        -0.61100
| 72>    H        0.18200         1.07200         0.00500
| 73>    H       -0.18300        -1.08000        -0.02100
| 74>    H       -5.86400        -4.96200         1.89500
| 75>    H       -4.79400         2.27200         0.13900
| 76>    H       -4.80000        -2.16000        -1.99400
| 77>    H       -6.84100        -3.58200        -1.89300
| 78>    H       -8.42800        -4.53600         0.54600
| 79>    H       -7.95600        -5.33700        -0.98100
| 80>    H       -7.45600        -6.03700         0.58400
| 81>    H       -5.28700        -0.34400         0.10000
| 82>    H       -3.78000        -3.60100         1.94700
| 83>    H        3.58700        -6.86800        -1.84300
| 84>    H       -2.27600        -4.77400        -0.05000
| 85>    H        3.71400        -3.72400         1.92600
| 86>    H        5.09200        -5.79500         1.87100
| 87>    H        6.20500        -7.32900        -0.43900
| 88>    H        5.39300        -7.91700         1.04200
| 89>    H        4.75900        -8.37300        -0.56400
| 90>    H        0.32900        -5.29000        -0.00800
| 91>    H        2.14600        -4.84200        -1.94000
| 92>    H        5.80800         4.98600        -1.95600
| 93>    H        4.78800        -2.28100        -0.18500
| 94>    H        4.86000         2.11400         1.91200
| 95>    H        6.90100         3.53100         1.77200
| 96>    H        7.38300         6.10900         0.35600
| 97>    H        8.41400         4.65200         0.43500
| 98>    H        7.92100         5.31000        -1.15000
| 99>    H        5.28300         0.33600        -0.17900
|100>    H        3.72000         3.63200        -1.96700
|101> *
|102> 
|103>                          ****END OF INPUT****
================================================================================

                       ****************************
                       * Single Point Calculation *
                       ****************************

---------------------------------
CARTESIAN COORDINATES (ANGSTROEM)
---------------------------------
  C     -3.082000    6.469000   -0.269000
  C      1.474000    4.041000    0.057000
  C     -2.802000    4.093000    0.049000
  C     -4.148000    4.039000    0.442000
  C     -4.911000    5.189000    0.464000
  C     -5.230000    7.590000    0.114000
  C      0.132000    4.307000    0.061000
  C     -0.569000    3.056000    0.047000
  C      1.649000    2.618000    0.023000
  C     -2.280000    5.345000   -0.312000
  N     -4.376000    6.382000    0.116000
  N      0.388000    2.067000    0.025000
  N     -2.010000    0.395000   -0.075000
  N     -0.388000   -2.074000   -0.027000
  N      2.010000   -0.401000    0.065000
  C     -1.960000    2.861000    0.024000
  C     -2.623000    1.615000   -0.018000
  C     -5.573000   -4.329000    1.066000
  C     -4.073000    1.471000    0.056000
  C     -4.106000   -2.756000   -0.026000
  C     -4.995000   -2.757000   -1.111000
  C     -6.132000   -3.542000   -1.076000
  C     -7.651000   -5.113000    0.040000
  C     -4.324000    0.141000    0.037000
  C     -3.025000   -0.520000   -0.048000
  C     -4.422000   -3.566000    1.075000
  N     -6.407000   -4.313000    0.001000
  C     -2.867000   -1.922000   -0.040000
  C     -1.650000   -2.624000   -0.027000
  C      3.568000   -6.142000   -1.040000
  C     -1.476000   -4.049000   -0.034000
  C      2.803000   -4.099000   -0.008000
  C      3.657000   -4.384000    1.069000
  C      4.427000   -5.530000    1.059000
  C      5.245000   -7.588000    0.014000
  C     -0.134000   -4.315000   -0.022000
  C      0.568000   -3.064000   -0.027000
  C      2.775000   -5.012000   -1.074000
  N      4.376000   -6.391000    0.017000
  C      1.959000   -2.869000   -0.009000
  C      2.621000   -1.622000    0.009000
  C      5.543000    4.339000   -1.130000
  C      4.070000   -1.479000   -0.094000
  C      4.104000    2.751000   -0.021000
  C      5.027000    2.729000    1.036000
  C      6.166000    3.509000    0.978000
  C      7.619000    5.153000   -0.115000
  C      4.321000   -0.148000   -0.092000
  C      3.025000    0.514000    0.015000
  C      4.387000    3.582000   -1.115000
  C      2.866000    1.916000    0.013000
  N      6.413000    4.296000   -0.095000
  H     -2.719000    7.456000   -0.526000
  H      2.274000    4.766000    0.081000
  H     -4.611000    3.100000    0.723000
  H     -5.955000    5.195000    0.751000
  H     -5.747000    7.659000   -0.847000
  H     -5.955000    7.509000    0.924000
  H     -4.599000    8.466000    0.263000
  H     -0.332000    5.282000    0.069000
  H     -1.244000    5.455000   -0.611000
  H      0.182000    1.072000    0.005000
  H     -0.183000   -1.080000   -0.021000
  H     -5.864000   -4.962000    1.895000
  H     -4.794000    2.272000    0.139000
  H     -4.800000   -2.160000   -1.994000
  H     -6.841000   -3.582000   -1.893000
  H     -8.428000   -4.536000    0.546000
  H     -7.956000   -5.337000   -0.981000
  H     -7.456000   -6.037000    0.584000
  H     -5.287000   -0.344000    0.100000
  H     -3.780000   -3.601000    1.947000
  H      3.587000   -6.868000   -1.843000
  H     -2.276000   -4.774000   -0.050000
  H      3.714000   -3.724000    1.926000
  H      5.092000   -5.795000    1.871000
  H      6.205000   -7.329000   -0.439000
  H      5.393000   -7.917000    1.042000
  H      4.759000   -8.373000   -0.564000
  H      0.329000   -5.290000   -0.008000
  H      2.146000   -4.842000   -1.940000
  H      5.808000    4.986000   -1.956000
  H      4.788000   -2.281000   -0.185000
  H      4.860000    2.114000    1.912000
  H      6.901000    3.531000    1.772000
  H      7.383000    6.109000    0.356000
  H      8.414000    4.652000    0.435000
  H      7.921000    5.310000   -1.150000
  H      5.283000    0.336000   -0.179000
  H      3.720000    3.632000   -1.967000

----------------------------
CARTESIAN COORDINATES (A.U.)
----------------------------
  NO LB      ZA    FRAG     MASS         X           Y           Z
   0 C     6.0000    0    12.011   -5.824136   12.224638   -0.508336
   1 C     6.0000    0    12.011    2.785456    7.636383    0.107714
   2 C     6.0000    0    12.011   -5.295013    7.734649    0.092597
   3 C     6.0000    0    12.011   -7.838584    7.632604    0.835259
   4 C     6.0000    0    12.011   -9.280445    9.805789    0.876833
   5 C     6.0000    0    12.011   -9.883268   14.343021    0.215429
   6 C     6.0000    0    12.011    0.249444    8.139050    0.115273
   7 C     6.0000    0    12.011   -1.075254    5.775003    0.088817
   8 C     6.0000    0    12.011    3.116158    4.947303    0.043464
   9 C     6.0000    0    12.011   -4.308576   10.100586   -0.589595
  10 N     7.0000    0    14.007   -8.269442   12.060232    0.219208
  11 N     7.0000    0    14.007    0.733214    3.906064    0.047243
  12 N     7.0000    0    14.007   -3.798350    0.746442   -0.141729
  13 N     7.0000    0    14.007   -0.733214   -3.919292   -0.051023
  14 N     7.0000    0    14.007    3.798350   -0.757780    0.122832
  15 C     6.0000    0    12.011   -3.703863    5.406506    0.045353
  16 C     6.0000    0    12.011   -4.956752    3.051908   -0.034015
  17 C     6.0000    0    12.011  -10.531444   -8.180624    2.014448
  18 C     6.0000    0    12.011   -7.696855    2.779787    0.105825
  19 C     6.0000    0    12.011   -7.759216   -5.208085   -0.049133
  20 C     6.0000    0    12.011   -9.439182   -5.209975   -2.099486
  21 C     6.0000    0    12.011  -11.587801   -6.693410   -2.033345
  22 C     6.0000    0    12.011  -14.458295   -9.662170    0.075589
  23 C     6.0000    0    12.011   -8.171176    0.266451    0.069920
  24 C     6.0000    0    12.011   -5.716422   -0.982658   -0.090707
  25 C     6.0000    0    12.011   -8.356369   -6.738763    2.031456
  26 N     7.0000    0    14.007  -12.107475   -8.150389    0.001890
  27 C     6.0000    0    12.011   -5.417845   -3.632054   -0.075589
  28 C     6.0000    0    12.011   -3.118048   -4.958641   -0.051023
  29 C     6.0000    0    12.011    6.742543  -11.606698   -1.965315
  30 C     6.0000    0    12.011   -2.789236   -7.651501   -0.064251
  31 C     6.0000    0    12.011    5.296902   -7.745987   -0.015118
  32 C     6.0000    0    12.011    6.910728   -8.284559    2.020117
  33 C     6.0000    0    12.011    8.365818  -10.450186    2.001220
  34 C     6.0000    0    12.011    9.911614  -14.339242    0.026456
  35 C     6.0000    0    12.011   -0.253223   -8.154168   -0.041574
  36 C     6.0000    0    12.011    1.073364   -5.790121   -0.051023
  37 C     6.0000    0    12.011    5.243990   -9.471307   -2.029566
  38 N     7.0000    0    14.007    8.269442  -12.077240    0.032125
  39 C     6.0000    0    12.011    3.701973   -5.421624   -0.017008
  40 C     6.0000    0    12.011    4.952972   -3.065136    0.017008
  41 C     6.0000    0    12.011   10.474752    8.199522   -2.135391
  42 C     6.0000    0    12.011    7.691185   -2.794905   -0.177634
  43 C     6.0000    0    12.011    7.755436    5.198637   -0.039684
  44 C     6.0000    0    12.011    9.499653    5.157063    1.957756
  45 C     6.0000    0    12.011   11.652051    6.631049    1.848152
  46 C     6.0000    0    12.011   14.397823    9.737759   -0.217319
  47 C     6.0000    0    12.011    8.165507   -0.279679   -0.173855
  48 C     6.0000    0    12.011    5.716422    0.971319    0.028346
  49 C     6.0000    0    12.011    8.290229    6.768999   -2.107045
  50 C     6.0000    0    12.011    5.415955    3.620715    0.024566
  51 N     7.0000    0    14.007   12.118814    8.118263   -0.179524
  52 H     1.0000    0     1.008   -5.138165   14.089798   -0.993996
  53 H     1.0000    0     1.008    4.297237    9.006435    0.153068
  54 H     1.0000    0     1.008   -8.713527    5.858151    1.366272
  55 H     1.0000    0     1.008  -11.253319    9.817127    1.419184
  56 H     1.0000    0     1.008  -10.860256   14.473412   -1.600598
  57 H     1.0000    0     1.008  -11.253319   14.189954    1.746107
  58 H     1.0000    0     1.008   -8.690850   15.998421    0.496998
  59 H     1.0000    0     1.008   -0.627389    9.981533    0.130391
  60 H     1.0000    0     1.008   -2.350819   10.308456   -1.154623
  61 H     1.0000    0     1.008    0.343930    2.025786    0.009449
  62 H     1.0000    0     1.008   -0.345820   -2.040904   -0.039684
  63 H     1.0000    0     1.008  -11.081354   -9.376821    3.581031
  64 H     1.0000    0     1.008   -9.059347    4.293458    0.262672
  65 H     1.0000    0     1.008   -9.070685   -4.081808   -3.768114
  66 H     1.0000    0     1.008  -12.927616   -6.768999   -3.577252
  67 H     1.0000    0     1.008  -15.926612   -8.571798    1.031790
  68 H     1.0000    0     1.008  -15.034661  -10.085468   -1.853821
  69 H     1.0000    0     1.008  -14.089798  -11.408277    1.103600
  70 H     1.0000    0     1.008   -9.990982   -0.650066    0.188973
  71 H     1.0000    0     1.008   -7.143165   -6.804904    3.679297
  72 H     1.0000    0     1.008    6.778448  -12.978639   -3.482765
  73 H     1.0000    0     1.008   -4.301017   -9.021553   -0.094486
  74 H     1.0000    0     1.008    7.018443   -7.037340    3.639613
  75 H     1.0000    0     1.008    9.622485  -10.950963    3.535678
  76 H     1.0000    0     1.008   11.725751  -13.849803   -0.829590
  77 H     1.0000    0     1.008   10.191293  -14.960962    1.969095
  78 H     1.0000    0     1.008    8.993207  -15.822677   -1.065806
  79 H     1.0000    0     1.008    0.621720   -9.996651   -0.015118
  80 H     1.0000    0     1.008    4.055352   -9.150054   -3.666069
  81 H     1.0000    0     1.008   10.975529    9.422175   -3.696304
  82 H     1.0000    0     1.008    9.048009   -4.310465   -0.349599
  83 H     1.0000    0     1.008    9.184069    3.994881    3.613156
  84 H     1.0000    0     1.008   13.041000    6.672623    3.348595
  85 H     1.0000    0     1.008   13.951848   11.544337    0.672743
  86 H     1.0000    0     1.008   15.900156    8.791006    0.822031
  87 H     1.0000    0     1.008   14.968521   10.034446   -2.173185
  88 H     1.0000    0     1.008    9.983423    0.634948   -0.338261
  89 H     1.0000    0     1.008    7.029781    6.863485   -3.717091

--------------------------------
INTERNAL COORDINATES (ANGSTROEM)
--------------------------------
 C      0   0   0     0.000000000000     0.00000000     0.00000000
 C      1   0   0     5.172871156331     0.00000000     0.00000000
 C      1   2   0     2.413482960371    55.07065772     0.00000000
 C      3   1   2     1.403239466378    87.90844850   164.16298874
 C      4   3   1     1.380272799123   120.17495466     0.14036932
 C      5   4   3     2.447256014397   152.52315313     1.57223492
 C      2   1   3     1.368114030335    17.25148137   354.40358066
 C      7   2   1     1.434084376876   108.05010202   166.53535191
 C      2   1   3     1.434123425651   124.86963982    10.89875516
 C      1   2   3     1.381459011335    26.96932792   342.16484339
 N      1   2   3     1.352859933622   142.59015192    26.78484432
 N      9   2   1     1.376127174356   106.58526707   354.15154028
 N     12   9   2     2.925062050624   168.53581413   171.12065651
 N     13  12   9     2.954513327098    91.55032014    11.12112580
 N     14  13  12     2.925371258490    88.43092389   359.84326247
 C      8   7   2     1.404790019896   127.24786865   181.11170171
 C     13  12   9     1.366535034311    81.72106996   188.00453233
 C     14  13  12     5.758810554272    80.56209567   166.76250791
 C     17  13  12     1.459010623676   111.08861209   183.82872609
 C     18  14  13     2.412235892279    27.27532823    36.33507194
 C     20  18  14     1.402692767501    87.95206320   148.94598259
 C     21  20  18     1.382106725257   120.14573887   359.70382047
 C     18  14  13     2.446510985056   144.15733107    82.80075377
 C     19  17  13     1.353610726908   106.29293361   359.75308708
 C     13  12   9     1.366813447402   172.21332906    33.46711076
 C     18  14  13     1.380960173213    15.08449437   309.23336894
 N     22  21  20     1.352773077792   120.73759875     0.27865223
 C     25  13  17     1.410897586645   125.60330303   182.37774668
 C     14  13  12     1.376642291955    80.24689249   177.85461986
 C     14  13  12     5.764089607215   164.51507311   312.20821879
 C     29  14  13     1.435600919476   106.58649366   178.76395472
 C     30  14  13     2.413316804732    27.10625047    82.12560436
 C     32  30  14     1.403734305344    87.90059683   149.76154742
 C     33  32  30     1.380694028378   120.14881443   359.74174632
 C     34  33  32     2.448777858443   152.49203239     2.45173620
 C     31  29  14     1.368160809262   108.16950133     0.70383075
 C     14  13  12     1.376239804685   169.26375223   353.09862627
 C     30  14  13     1.380907310430    14.68948582   353.70041132
 N     34  33  32     1.352658863128   120.85575621     0.19603406
 C     37  14  29     1.404717053360   126.01551127   180.90772073
 C     15  14  13     1.366491126938    81.61824056   183.09049352
 C      2   1   3     4.249062720177   142.45748885   153.92714950
 C     41  15  14     1.459677704153   111.05201287   175.08990246
 C     42   2   1     2.412953791518    41.78584867   185.96978114
 C     44  42   2     1.403446472082    87.95153797   233.97558675
 C     45  44  42     1.381696421071   120.11137308     0.19721020
 C     42   2   1     2.450019795838   135.97209175    96.28463024
 C     43  41  15     1.354461516618   106.26758155     0.30894352
 C     15  14  13     1.367461151185   171.87382904   332.35056460
 C     42   2   1     1.381886391857    32.59078432   234.82506033
 C      9   2   1     1.404988612053   126.98745415   175.15587781
 N     42   2   1     1.352765315936   113.57249190   124.02121943
 H      1   2   3     1.082583484079    98.48601093   186.64563256
 H      2   1   3     1.079907866440   109.80063242   186.76843603
 H      4   3   1     1.083997693724   121.03992184   179.51302978
 H      5   4   3     1.082746969518   122.80960415   179.42158367
 H      6   5   4     1.093421693584   104.43265369   100.15947741
 H      6   5   4     1.090085317762    84.69380225   209.55566321
 H      6   5   4     1.089833932303   133.91380987   322.45174308
 H      7   2   1     1.079807853278   126.66122480   346.77376570
 H     10   1   2     1.083880528472   118.74506596   331.12985218
 H     12   9   2     1.016297692608   125.29023241   180.00180175
 H     14  13  12     1.014936943854    44.97226959   359.42596618
 H     18  14  13     1.082871645210   128.03556573   234.20482432
 H     55   4   3     1.029625660131   128.71817465   294.75644467
 H     21  20  18     1.083569563987   121.05669627   180.67006309
 H     22  21  20     1.082483256222   122.73097286   180.59748951
 H     23  18  14     1.092105306278   103.92715769   234.93429879
 H     23  18  14     1.088871893291   134.19244188    12.25587044
 H     23  18  14     1.089833473518    84.85857450   125.45241208
 H     24  19  17     1.080075460327   127.28078426   178.44613241
 H     26  18  14     1.083408048706   118.76995697   244.94906660
 H     30  14  13     1.082703098730   127.99711412   279.66882698
 H     31  29  14     1.079759695488   125.22293469   180.92530585
 H     33  32  30     1.083188810873   121.01964473   180.74284758
 H     34  33  32     1.082494341787   122.70821597   180.59516895
 H     35  34  33     1.092652735319   105.73575241    97.19771933
 H     35  34  33     1.089462711615    84.05943581   206.43036958
 H     35  34  33     1.089268102902   133.08365142   318.50306270
 H     36  31  29     1.079439669458   126.61599965   178.98859863
 H     38  30  73     1.083742127999   118.77264435   359.90091293
 H     42   2   1     1.082178358682   119.31790784   340.65274989
 H     43  41  15     1.080281907652   126.36969097   182.06329380
 H     45  44  42     1.083277434455   121.10105945   179.58025624
 H     46  45  44     1.082194529648   122.72144639   179.46906377
 H     47  42   2     1.091546151109   106.65128841   315.16475048
 H     47  42   2     1.088818625851   132.46019523    94.52397119
 H     47  42   2     1.089531091801    83.63838232   206.04504406
 H     48  43  41     1.080402239909   127.23657387   181.62955349
 H     50  42   2     1.083186502870   118.77001737    94.71359229

---------------------------
INTERNAL COORDINATES (A.U.)
---------------------------
 C      0   0   0     0.000000000000     0.00000000     0.00000000
 C      1   0   0     9.775309811526     0.00000000     0.00000000
 C      1   2   0     4.560821823986    55.07065772     0.00000000
 C      3   1   2     2.651738291764    87.90844850   164.16298874
 C      4   3   1     2.608337580444   120.17495466     0.14036932
 C      5   4   3     4.624643646801   152.52315313     1.57223492
 C      2   1   3     2.585360837309    17.25148137   354.40358066
 C      7   2   1     2.710026725231   108.05010202   166.53535191
 C      2   1   3     2.710100516721   124.86963982    10.89875516
 C      1   2   3     2.610579196662    26.96932792   342.16484339
 N      1   2   3     2.556534772101   142.59015192    26.78484432
 N      9   2   1     2.600503484979   106.58526707   354.15154028
 N     12   9   2     5.527566200405   168.53581413   171.12065651
 N     13  12   9     5.583221047236    91.55032014    11.12112580
 N     14  13  12     5.528150518591    88.43092389   359.84326247
 C      8   7   2     2.654668413270   127.24786865   181.11170171
 C     13  12   9     2.582376967257    81.72106996   188.00453233
 C     14  13  12    10.882574804710    80.56209567   166.76250791
 C     17  13  12     2.757130505230   111.08861209   183.82872609
 C     18  14  13     4.558465206823    27.27532823    36.33507194
 C     20  18  14     2.650705180609    87.95206320   148.94598259
 C     21  20  18     2.611803198586   120.14573887   359.70382047
 C     18  14  13     4.623235745386   144.15733107    82.80075377
 C     19  17  13     2.557953565794   106.29293361   359.75308708
 C     13  12   9     2.582903091751   172.21332906    33.46711076
 C     18  14  13     2.609636529225    15.08449437   309.23336894
 N     22  21  20     2.556370638369   120.73759875     0.27865223
 C     25  13  17     2.666210041769   125.60330303   182.37774668
 C     14  13  12     2.601476916169    80.24689249   177.85461986
 C     14  13  12    10.892550769017   164.51507311   312.20821879
 C     29  14  13     2.712892575415   106.58649366   178.76395472
 C     30  14  13     4.560507835333    27.10625047    82.12560436
 C     32  30  14     2.652673401891    87.90059683   149.76154742
 C     33  32  30     2.609133588376   120.14881443   359.74174632
 C     34  33  32     4.627519515267   152.49203239     2.45173620
 C     31  29  14     2.585449236669   108.16950133     0.70383075
 C     14  13  12     2.600716325456   169.26375223   353.09862627
 C     30  14  13     2.609536633043    14.68948582   353.70041132
 N     34  33  32     2.556154803934   120.85575621     0.19603406
 C     37  14  29     2.654530526499   126.01551127   180.90772073
 C     15  14  13     2.582293994346    81.61824056   183.09049352
 C      2   1   3     8.029564866989   142.45748885   153.92714950
 C     41  15  14     2.758391104639   111.05201287   175.08990246
 C     42   2   1     4.559821839776    41.78584867   185.96978114
 C     44  42   2     2.652129475853    87.95153797   233.97558675
 C     45  44  42     2.611027836043   120.11137308     0.19721020
 C     42   2   1     4.629866436820   135.97209175    96.28463024
 C     43  41  15     2.559561325344   106.26758155     0.30894352
 C     15  14  13     2.584127074516   171.87382904   332.35056460
 C     42   2   1     2.611386828803    32.59078432   234.82506033
 C      9   2   1     2.655043698059   126.98745415   175.15587781
 N     42   2   1     2.556355970587   113.57249190   124.02121943
 H      1   2   3     2.045786302015    98.48601093   186.64563256
 H      2   1   3     2.040730117440   109.80063242   186.76843603
 H      4   3   1     2.048458770942   121.03992184   179.51302978
 H      5   4   3     2.046095244722   122.80960415   179.42158367
 H      6   5   4     2.066267549762   104.43265369   100.15947741
 H      6   5   4     2.059962713178    84.69380225   209.55566321
 H      6   5   4     2.059487663508   133.91380987   322.45174308
 H      7   2   1     2.040541119952   126.66122480   346.77376570
 H     10   1   2     2.048237360701   118.74506596   331.12985218
 H     12   9   2     1.920524309565   125.29023241   180.00180175
 H     14  13  12     1.917952867083    44.97226959   359.42596618
 H     18  14  13     2.046330847636   128.03556573   234.20482432
 H     55   4   3     1.945710518105   128.71817465   294.75644467
 H     21  20  18     2.047649722989   121.05669627   180.67006309
 H     22  21  20     2.045596898814   122.73097286   180.59748951
 H     23  18  14     2.063779938267   103.92715769   234.93429879
 H     23  18  14     2.057669673245   134.19244188    12.25587044
 H     23  18  14     2.059486796529    84.85857450   125.45241208
 H     24  19  17     2.041046823986   127.28078426   178.44613241
 H     26  18  14     2.047344503340   118.76995697   244.94906660
 H     30  14  13     2.046012340948   127.99711412   279.66882698
 H     31  29  14     2.040450114918   125.22293469   180.92530585
 H     33  32  30     2.046930203877   121.01964473   180.74284758
 H     34  33  32     2.045617847496   122.70821597   180.59516895
 H     35  34  33     2.064814429233   105.73575241    97.19771933
 H     35  34  33     2.058786158072    84.05943581   206.43036958
 H     35  34  33     2.058418400901   133.08365142   318.50306270
 H     36  31  29     2.039845353366   126.61599965   178.98859863
 H     38  30  73     2.047975821711   118.77264435   359.90091293
 H     42   2   1     2.045020725966   119.31790784   340.65274989
 H     43  41  15     2.041436952892   126.36969097   182.06329380
 H     45  44  42     2.047097678177   121.10105945   179.58025624
 H     46  45  44     2.045051284662   122.72144639   179.46906377
 H     47  42   2     2.062723288131   106.65128841   315.16475048
 H     47  42   2     2.057569012371   132.46019523    94.52397119
 H     47  42   2     2.058915377895    83.63838232   206.04504406
 H     48  43  41     2.041664347903   127.23657387   181.62955349
 H     50  42   2     2.046925842384   118.77001737    94.71359229

---------------------
BASIS SET INFORMATION
---------------------
There are 3 groups of distinct atoms

 Group   1 Type C   : 17s4p1d contracted to 3s2p1d pattern {881/31/1}
 Group   2 Type N   : 17s4p1d contracted to 3s2p1d pattern {881/31/1}
 Group   3 Type H   : 4s1p contracted to 2s1p pattern {31/1}

Atom   0C    basis set group =>   1
Atom   1N    basis set group =>   2
Atom   2C    basis set group =>   1
Atom   3N    basis set group =>   2
Atom   4C    basis set group =>   1
Atom   5N    basis set group =>   2
Atom   6C    basis set group =>   1
Atom   7N    basis set group =>   2
Atom   8C    basis set group =>   1
Atom   9N    basis set group =>   2
Atom  10C    basis set group =>   1
Atom  11N    basis set group =>   2
Atom  12C    basis set group =>   1
Atom  13N    basis set group =>   2
Atom  14C    basis set group =>   1
Atom  15N    basis set group =>   2
Atom  16C    basis set group =>   1
Atom  17C    basis set group =>   1
Atom  18C    basis set group =>   1
Atom  19C    basis set group =>   1
Atom  20C    basis set group =>   1
Atom  21C    basis set group =>   1
Atom  22C    basis set group =>   1
Atom  23C    basis set group =>   1
Atom  24C    basis set group =>   1
Atom  25C    basis set group =>   1
Atom  26C    basis set group =>   1
Atom  27C    basis set group =>   1
Atom  28C    basis set group =>   1
Atom  29C    basis set group =>   1
Atom  30C    basis set group =>   1
Atom  31C    basis set group =>   1
Atom  32C    basis set group =>   1
Atom  33C    basis set group =>   1
Atom  34C    basis set group =>   1
Atom  35C    basis set group =>   1
Atom  36C    basis set group =>   1
Atom  37C    basis set group =>   1
Atom  38C    basis set group =>   1
Atom  39C    basis set group =>   1
Atom  40C    basis set group =>   1
Atom  41C    basis set group =>   1
Atom  42C    basis set group =>   1
Atom  43C    basis set group =>   1
Atom  44C    basis set group =>   1
Atom  45C    basis set group =>   1
Atom  46C    basis set group =>   1
Atom  47C    basis set group =>   1
Atom  48C    basis set group =>   1
Atom  49C    basis set group =>   1
Atom  50C    basis set group =>   1
Atom  51C    basis set group =>   1
Atom  52H    basis set group =>   3
Atom  53H    basis set group =>   3
Atom  54H    basis set group =>   3
Atom  55H    basis set group =>   3
Atom  56H    basis set group =>   3
Atom  57H    basis set group =>   3
Atom  58H    basis set group =>   3
Atom  59H    basis set group =>   3
Atom  60H    basis set group =>   3
Atom  61H    basis set group =>   3
Atom  62H    basis set group =>   3
Atom  63H    basis set group =>   3
Atom  64H    basis set group =>   3
Atom  65H    basis set group =>   3
Atom  66H    basis set group =>   3
Atom  67H    basis set group =>   3
Atom  68H    basis set group =>   3
Atom  69H    basis set group =>   3
Atom  70H    basis set group =>   3
Atom  71H    basis set group =>   3
Atom  72H    basis set group =>   3
Atom  73H    basis set group =>   3
Atom  74H    basis set group =>   3
Atom  75H    basis set group =>   3
Atom  76H    basis set group =>   3
Atom  77H    basis set group =>   3
Atom  78H    basis set group =>   3
Atom  79H    basis set group =>   3
Atom  80H    basis set group =>   3
Atom  81H    basis set group =>   3
Atom  82H    basis set group =>   3
Atom  83H    basis set group =>   3
Atom  84H    basis set group =>   3
Atom  85H    basis set group =>   3
Atom  86H    basis set group =>   3
Atom  87H    basis set group =>   3
Atom  88H    basis set group =>   3
Atom  89H    basis set group =>   3


           ************************************************************
           *        Program running with 16 parallel MPI-processes    *
           *              working on a common directory               *
           ************************************************************
------------------------------------------------------------------------------
                           ORCA GTO INTEGRAL CALCULATION
------------------------------------------------------------------------------
------------------------------------------------------------------------------
                   ___                                                        
                  /   \      - P O W E R E D   B Y -                         
                 /     \                                                     
                 |  |  |   _    _      __       _____    __    __             
                 |  |  |  | |  | |    /  \     |  _  \  |  |  /  |          
                  \  \/   | |  | |   /    \    | | | |  |  | /  /          
                 / \  \   | |__| |  /  /\  \   | |_| |  |  |/  /          
                |  |  |   |  __  | /  /__\  \  |    /   |      \           
                |  |  |   | |  | | |   __   |  |    \   |  |\   \          
                \     /   | |  | | |  |  |  |  | |\  \  |  | \   \       
                 \___/    |_|  |_| |__|  |__|  |_| \__\ |__|  \__/        
                                                                              
                      - O R C A' S   B I G   F R I E N D -                    
                                      &                                       
                       - I N T E G R A L  F E E D E R -                       
                                                                              
 v1 FN, 2020, v2 2021                                                         
------------------------------------------------------------------------------


Reading SHARK input file /scratch/allen/tmpyp4_amber_gaff2/conf1/conf1/Conf20.orca.SHARKINP.tmp ... ok
----------------------
SHARK INTEGRAL PACKAGE
----------------------

Number of atoms                             ...     90
Number of basis functions                   ...   1230
Number of shells                            ...    738
Maximum angular momentum                    ...      2
Integral batch strategy                     ... SHARK/LIBINT Hybrid
RI-J (if used) integral strategy            ... SPLIT-RIJ (Revised 2003 algorithm where possible)
Printlevel                                  ...      1
Contraction scheme used                     ... PARTIAL GENERAL contraction
Coulomb Range Separation                    ... NOT USED
Exchange Range Separation                   ... NOT USED
Finite Nucleus Model                        ... NOT USED
Auxiliary Coulomb fitting basis             ... NOT available
Auxiliary J/K fitting basis                 ... NOT available
Auxiliary Correlation fitting basis         ... NOT available
Auxiliary 'external' fitting basis          ... NOT available
Integral threshold                          ...     2.500000e-11
Primitive cut-off                           ...     2.500000e-12
Primitive pair pre-selection threshold      ...     2.500000e-12

Calculating pre-screening integrals         ... done (  0.1 sec) Dimension = 738
Calculating pre-screening integrals (ORCA)  ... done (  0.3 sec) Dimension = 426
Organizing shell pair data                  ... done (  0.8 sec)
Shell pair information
Total number of shell pairs                 ...    272691
Shell pairs after pre-screening             ...     71717
Total number of primitive shell pairs       ...    422091
Primitive shell pairs kept                  ...     92618
          la=0 lb=0:  29444 shell pairs
          la=1 lb=0:  26028 shell pairs
          la=1 lb=1:   4701 shell pairs
          la=2 lb=0:   7891 shell pairs
          la=2 lb=1:   3124 shell pairs
          la=2 lb=2:    529 shell pairs

Calculating one electron integrals          ... done (  0.3 sec)
Calculating Nuclear repulsion               ... done (  0.0 sec) ENN=   6233.997225951769 Eh

SHARK setup successfully completed in   2.2 seconds

Maximum memory used throughout the entire GTOINT-calculation: 99.1 MB


           ************************************************************
           *        Program running with 16 parallel MPI-processes    *
           *              working on a common directory               *
           ************************************************************
-------------------------------------------------------------------------------
                                 ORCA SCF
-------------------------------------------------------------------------------

------------
SCF SETTINGS
------------
Hamiltonian:
 Ab initio Hamiltonian  Method          .... Hartree-Fock(GTOs)


General Settings:
 Integral files         IntName         .... /scratch/allen/tmpyp4_amber_gaff2/conf1/conf1/Conf20.orca
 Hartree-Fock type      HFTyp           .... RHF
 Total Charge           Charge          ....    0
 Multiplicity           Mult            ....    1
 Number of Electrons    NEL             ....  358
 Basis Dimension        Dim             ....  918
 Nuclear Repulsion      ENuc            ....   6233.9972259518 Eh

Convergence Acceleration:
 DIIS                   CNVDIIS         .... on
   Start iteration      DIISMaxIt       ....    12
   Startup error        DIISStart       ....  0.200000
   # of expansion vecs  DIISMaxEq       ....     5
   Bias factor          DIISBfac        ....   1.050
   Max. coefficient     DIISMaxC        ....  10.000
 Trust-Rad. Augm. Hess. CNVTRAH         .... auto
   Auto Start mean grad. ratio tolernc. ....  1.125000
   Auto Start start iteration           ....    20
   Auto Start num. interpolation iter.  ....    10
   Max. Number of Micro iterations      ....    16
   Max. Number of Macro iterations      .... Maxiter - #DIIS iter
   Number of Davidson start vectors     ....     2
   Converg. threshold I  (grad. norm)   ....   1.000e-05
   Converg. threshold II (energy diff.) ....   1.000e-08
   Grad. Scal. Fac. for Micro threshold ....   0.100
   Minimum threshold for Micro iter.    ....   0.010
   NR start threshold (gradient norm)   ....   0.001
   Initial trust radius                 ....   0.400
   Minimum AH scaling param. (alpha)    ....   1.000
   Maximum AH scaling param. (alpha)    .... 1000.000
   Orbital update algorithm             .... Taylor
   White noise on init. David. guess    .... on
   Maximum white noise                  ....   0.010
   Quad. conv. algorithm                .... NR
 SOSCF                  CNVSOSCF        .... on
   Start iteration      SOSCFMaxIt      ....   150
   Startup grad/error   SOSCFStart      ....  0.003300
 Level Shifting         CNVShift        .... on
   Level shift para.    LevelShift      ....    0.2500
   Turn off err/grad.   ShiftErr        ....    0.0010
 Zerner damping         CNVZerner       .... off
 Static damping         CNVDamp         .... on
   Fraction old density DampFac         ....    0.7000
   Max. Damping (<1)    DampMax         ....    0.9800
   Min. Damping (>=0)   DampMin         ....    0.0000
   Turn off err/grad.   DampErr         ....    0.1000
 Fernandez-Rico         CNVRico         .... off

SCF Procedure:
 Maximum # iterations   MaxIter         ....   125
 SCF integral mode      SCFMode         .... Direct
   Integral package                     .... SHARK and LIBINT hybrid scheme
 Reset frequency        DirectResetFreq ....    20
 Integral Threshold     Thresh          ....  2.500e-11 Eh
 Primitive CutOff       TCut            ....  2.500e-12 Eh

Convergence Tolerance:
 Convergence Check Mode ConvCheckMode   .... Total+1el-Energy
 Convergence forced     ConvForced      .... 1
 Energy Change          TolE            ....  1.000e-08 Eh
 1-El. energy change                    ....  1.000e-05 Eh
 Orbital Gradient       TolG            ....  1.000e-05
 Orbital Rotation angle TolX            ....  1.000e-05
 DIIS Error             TolErr          ....  5.000e-07


Diagonalization of the overlap matrix:
Smallest eigenvalue                        ... 2.004e-04
Time for diagonalization                   ...    0.361 sec
Threshold for overlap eigenvalues          ... 1.000e-08
Number of eigenvalues below threshold      ... 0
Time for construction of square roots      ...    0.252 sec
Total time needed                          ...    0.619 sec

Time for model grid setup =    1.046 sec

------------------------------
INITIAL GUESS: MODEL POTENTIAL
------------------------------
Loading Hartree-Fock densities                     ... done
Calculating cut-offs                               ... done
Initializing the effective Hamiltonian             ... done
Setting up the integral package (SHARK)            ... done
Starting the Coulomb interaction                   ... done (   1.1 sec)
Reading the grid                                   ... done
Mapping shells                                     ... done
Starting the XC term evaluation                    ... done (   0.2 sec)
Transforming the Hamiltonian                       ... done (   0.2 sec)
Diagonalizing the Hamiltonian                      ... done (   0.3 sec)
Back transforming the eigenvectors                 ... done (   0.1 sec)
Now organizing SCF variables                       ... done
                      ------------------
                      INITIAL GUESS DONE (   3.1 sec)
                      ------------------
--------------
SCF ITERATIONS
--------------
ITER       Energy         Delta-E        Max-DP      RMS-DP      [F,P]     Damp
               ***  Starting incremental Fock matrix formation  ***
  0  -2121.6360877665   0.000000000000 0.07478635  0.00125108  0.2314748 0.7000
  1  -2122.2821126028  -0.646024836320 0.05677995  0.00102061  0.1435678 0.7000
                               ***Turning on DIIS***
  2  -2122.6846911173  -0.402578514471 0.13253072  0.00231259  0.0802805 0.0000
  3  -2118.0045177928   4.680173324465 0.06446555  0.00069842  0.0435683 0.0000
  4  -2123.3732665265  -5.368748733697 0.01848180  0.00023034  0.0090448 0.0000
  5  -2123.5142021622  -0.140935635656 0.00860865  0.00013371  0.0048749 0.0000
  6  -2123.4985606252   0.015641537051 0.00507532  0.00008568  0.0021938 0.0000
  7  -2123.5921740632  -0.093613438006 0.00308510  0.00006752  0.0016029 0.0000
  8  -2123.6000714961  -0.007897432930 0.00328622  0.00006439  0.0015002 0.0000
  9  -2123.5723729192   0.027698576929 0.00263227  0.00004565  0.0012049 0.0000
 10  -2123.5804614854  -0.008088566234 0.00527693  0.00009549  0.0009402 0.0000
                      *** Initiating the SOSCF procedure ***
                           *** Shutting down DIIS ***
                      *** Re-Reading the Fockian *** 
                      *** Removing any level shift *** 
ITER      Energy       Delta-E        Grad      Rot      Max-DP    RMS-DP
 11  -2123.47382627   0.1066352183  0.000179  0.000179  0.000242  0.000005
               *** Restarting incremental Fock matrix formation ***
 12  -2123.53980181  -0.0659755441  0.000900  0.006224  0.001446  0.000035
 13  -2123.53991252  -0.0001107084  0.001118  0.030613  0.006556  0.000137
 14  -2123.54009906  -0.0001865386  0.000369  0.001520  0.000615  0.000012
 15  -2123.54011442  -0.0000153647  0.000188  0.002517  0.000573  0.000015
 16  -2123.54012225  -0.0000078302  0.000141  0.002330  0.000454  0.000009
 17  -2123.54012506  -0.0000028084  0.000137  0.002004  0.000313  0.000007
 18  -2123.54012651  -0.0000014440  0.000064  0.001162  0.000247  0.000005
 19  -2123.54012732  -0.0000008156  0.000046  0.001465  0.000245  0.000005
 20  -2123.54012778  -0.0000004571  0.000028  0.000962  0.000142  0.000003
 21  -2123.54012801  -0.0000002364  0.000027  0.001182  0.000175  0.000004
 22  -2123.54012824  -0.0000002246  0.000024  0.000994  0.000154  0.000003
 23  -2123.54012837  -0.0000001348  0.000016  0.000474  0.000076  0.000002
 24  -2123.54012843  -0.0000000585  0.000009  0.000324  0.000055  0.000001
 25  -2123.54012847  -0.0000000354  0.000009  0.000156  0.000044  0.000001
 26  -2123.54012848  -0.0000000152  0.000006  0.000104  0.000033  0.000001
 27  -2123.54012848  -0.0000000012  0.000003  0.000070  0.000023  0.000000
                  ***Gradient check signals convergence***
              ***Rediagonalizing the Fockian in SOSCF/NRSCF***

               *****************************************************
               *                     SUCCESS                       *
               *           SCF CONVERGED AFTER  28 CYCLES          *
               *****************************************************


----------------
TOTAL SCF ENERGY
----------------

Total Energy       :        -2123.54012848 Eh          -57784.46460 eV

Components:
Nuclear Repulsion  :         6233.99722595 Eh          169635.68863 eV
Electronic Energy  :        -8357.53735443 Eh         -227420.15323 eV
One Electron Energy:       -15308.58757613 Eh         -416567.84585 eV
Two Electron Energy:         6951.05022170 Eh          189147.69262 eV

Virial components:
Potential Energy   :        -4245.95624032 Eh         -115538.34316 eV
Kinetic Energy     :         2122.41611184 Eh           57753.87855 eV
Virial Ratio       :            2.00052959


---------------
SCF CONVERGENCE
---------------

  Last Energy change         ...    1.9518e-09  Tolerance :   1.0000e-08
  Last MAX-Density change    ...    1.0023e-05  Tolerance :   1.0000e-07
  Last RMS-Density change    ...    2.0062e-07  Tolerance :   5.0000e-09
  Last Orbital Gradient      ...    2.0793e-06  Tolerance :   1.0000e-05
  Last Orbital Rotation      ...    4.4476e-05  Tolerance :   1.0000e-05

             **** THE GBW FILE WAS UPDATED (/scratch/allen/tmpyp4_amber_gaff2/conf1/conf1/Conf20.orca.gbw) ****
             **** DENSITY /scratch/allen/tmpyp4_amber_gaff2/conf1/conf1/Conf20.orca.scfp WAS UPDATED ****
             **** ENERGY FILE WAS UPDATED (/scratch/allen/tmpyp4_amber_gaff2/conf1/conf1/Conf20.orca.en.tmp) ****
             **** THE GBW FILE WAS UPDATED (/scratch/allen/tmpyp4_amber_gaff2/conf1/conf1/Conf20.orca.gbw) ****
             **** DENSITY /scratch/allen/tmpyp4_amber_gaff2/conf1/conf1/Conf20.orca.scfp WAS UPDATED ****
----------------
ORBITAL ENERGIES
----------------

  NO   OCC          E(Eh)            E(eV) 
   0   2.0000     -15.678573      -426.6357 
   1   2.0000     -15.633179      -425.4004 
   2   2.0000     -15.632438      -425.3803 
   3   2.0000     -15.588710      -424.1904 
   4   2.0000     -15.524880      -422.4535 
   5   2.0000     -15.515824      -422.2070 
   6   2.0000     -15.453837      -420.5203 
   7   2.0000     -15.439879      -420.1405 
   8   2.0000     -11.328344      -308.2599 
   9   2.0000     -11.327422      -308.2348 
  10   2.0000     -11.327184      -308.2284 
  11   2.0000     -11.298829      -307.4568 
  12   2.0000     -11.298738      -307.4543 
  13   2.0000     -11.292286      -307.2787 
  14   2.0000     -11.291651      -307.2614 
  15   2.0000     -11.287139      -307.1387 
  16   2.0000     -11.285924      -307.1056 
  17   2.0000     -11.280906      -306.9690 
  18   2.0000     -11.270819      -306.6946 
  19   2.0000     -11.262538      -306.4692 
  20   2.0000     -11.261545      -306.4422 
  21   2.0000     -11.253203      -306.2152 
  22   2.0000     -11.250145      -306.1320 
  23   2.0000     -11.237183      -305.7793 
  24   2.0000     -11.236953      -305.7730 
  25   2.0000     -11.230559      -305.5991 
  26   2.0000     -11.230206      -305.5894 
  27   2.0000     -11.230068      -305.5857 
  28   2.0000     -11.229763      -305.5774 
  29   2.0000     -11.210513      -305.0536 
  30   2.0000     -11.209252      -305.0192 
  31   2.0000     -11.195557      -304.6466 
  32   2.0000     -11.191071      -304.5245 
  33   2.0000     -11.190918      -304.5204 
  34   2.0000     -11.188595      -304.4571 
  35   2.0000     -11.188336      -304.4501 
  36   2.0000     -11.186991      -304.4135 
  37   2.0000     -11.182359      -304.2874 
  38   2.0000     -11.177547      -304.1565 
  39   2.0000     -11.174128      -304.0635 
  40   2.0000     -11.171643      -303.9958 
  41   2.0000     -11.171141      -303.9822 
  42   2.0000     -11.167774      -303.8906 
  43   2.0000     -11.161723      -303.7259 
  44   2.0000     -11.160149      -303.6831 
  45   2.0000     -11.156781      -303.5915 
  46   2.0000     -11.156688      -303.5889 
  47   2.0000     -11.153985      -303.5154 
  48   2.0000     -11.147391      -303.3359 
  49   2.0000     -11.136214      -303.0318 
  50   2.0000     -11.129585      -302.8514 
  51   2.0000     -11.117512      -302.5229 
  52   2.0000      -1.359350       -36.9898 
  53   2.0000      -1.320539       -35.9337 
  54   2.0000      -1.320138       -35.9228 
  55   2.0000      -1.281782       -34.8791 
  56   2.0000      -1.225826       -33.3564 
  57   2.0000      -1.210407       -32.9369 
  58   2.0000      -1.173393       -31.9296 
  59   2.0000      -1.150670       -31.3113 
  60   2.0000      -1.142823       -31.0978 
  61   2.0000      -1.110189       -30.2098 
  62   2.0000      -1.108887       -30.1744 
  63   2.0000      -1.081124       -29.4189 
  64   2.0000      -1.078108       -29.3368 
  65   2.0000      -1.044779       -28.4299 
  66   2.0000      -1.044750       -28.4291 
  67   2.0000      -1.040567       -28.3153 
  68   2.0000      -1.014844       -27.6153 
  69   2.0000      -1.013052       -27.5666 
  70   2.0000      -1.009178       -27.4611 
  71   2.0000      -0.993191       -27.0261 
  72   2.0000      -0.985968       -26.8296 
  73   2.0000      -0.981264       -26.7016 
  74   2.0000      -0.972634       -26.4667 
  75   2.0000      -0.962013       -26.1777 
  76   2.0000      -0.954490       -25.9730 
  77   2.0000      -0.945722       -25.7344 
  78   2.0000      -0.936396       -25.4806 
  79   2.0000      -0.917586       -24.9688 
  80   2.0000      -0.909635       -24.7524 
  81   2.0000      -0.895903       -24.3788 
  82   2.0000      -0.876054       -23.8386 
  83   2.0000      -0.871659       -23.7191 
  84   2.0000      -0.870582       -23.6897 
  85   2.0000      -0.858788       -23.3688 
  86   2.0000      -0.842433       -22.9238 
  87   2.0000      -0.835440       -22.7335 
  88   2.0000      -0.826405       -22.4876 
  89   2.0000      -0.796986       -21.6871 
  90   2.0000      -0.789764       -21.4906 
  91   2.0000      -0.756558       -20.5870 
  92   2.0000      -0.751457       -20.4482 
  93   2.0000      -0.733309       -19.9544 
  94   2.0000      -0.726167       -19.7600 
  95   2.0000      -0.722788       -19.6681 
  96   2.0000      -0.718066       -19.5396 
  97   2.0000      -0.715337       -19.4653 
  98   2.0000      -0.711313       -19.3558 
  99   2.0000      -0.697845       -18.9893 
 100   2.0000      -0.696757       -18.9597 
 101   2.0000      -0.690138       -18.7796 
 102   2.0000      -0.684566       -18.6280 
 103   2.0000      -0.683541       -18.6001 
 104   2.0000      -0.678432       -18.4611 
 105   2.0000      -0.674337       -18.3496 
 106   2.0000      -0.671900       -18.2833 
 107   2.0000      -0.660268       -17.9668 
 108   2.0000      -0.657889       -17.9021 
 109   2.0000      -0.652609       -17.7584 
 110   2.0000      -0.652028       -17.7426 
 111   2.0000      -0.645290       -17.5592 
 112   2.0000      -0.644810       -17.5462 
 113   2.0000      -0.637389       -17.3442 
 114   2.0000      -0.637206       -17.3393 
 115   2.0000      -0.628246       -17.0954 
 116   2.0000      -0.622622       -16.9424 
 117   2.0000      -0.621189       -16.9034 
 118   2.0000      -0.612842       -16.6763 
 119   2.0000      -0.611957       -16.6522 
 120   2.0000      -0.611756       -16.6467 
 121   2.0000      -0.610471       -16.6118 
 122   2.0000      -0.601082       -16.3563 
 123   2.0000      -0.587382       -15.9835 
 124   2.0000      -0.581264       -15.8170 
 125   2.0000      -0.580946       -15.8083 
 126   2.0000      -0.579831       -15.7780 
 127   2.0000      -0.571293       -15.5457 
 128   2.0000      -0.568829       -15.4786 
 129   2.0000      -0.559750       -15.2316 
 130   2.0000      -0.552908       -15.0454 
 131   2.0000      -0.547696       -14.9036 
 132   2.0000      -0.542422       -14.7601 
 133   2.0000      -0.541460       -14.7339 
 134   2.0000      -0.538192       -14.6449 
 135   2.0000      -0.536261       -14.5924 
 136   2.0000      -0.530502       -14.4357 
 137   2.0000      -0.519911       -14.1475 
 138   2.0000      -0.516610       -14.0577 
 139   2.0000      -0.514797       -14.0083 
 140   2.0000      -0.512485       -13.9454 
 141   2.0000      -0.510656       -13.8957 
 142   2.0000      -0.508595       -13.8396 
 143   2.0000      -0.504649       -13.7322 
 144   2.0000      -0.502333       -13.6692 
 145   2.0000      -0.496103       -13.4997 
 146   2.0000      -0.489836       -13.3291 
 147   2.0000      -0.482083       -13.1181 
 148   2.0000      -0.478330       -13.0160 
 149   2.0000      -0.467386       -12.7182 
 150   2.0000      -0.466412       -12.6917 
 151   2.0000      -0.457107       -12.4385 
 152   2.0000      -0.451588       -12.2883 
 153   2.0000      -0.444746       -12.1022 
 154   2.0000      -0.439309       -11.9542 
 155   2.0000      -0.427629       -11.6364 
 156   2.0000      -0.413562       -11.2536 
 157   2.0000      -0.407269       -11.0824 
 158   2.0000      -0.392395       -10.6776 
 159   2.0000      -0.386904       -10.5282 
 160   2.0000      -0.385745       -10.4966 
 161   2.0000      -0.378542       -10.3007 
 162   2.0000      -0.369786       -10.0624 
 163   2.0000      -0.356469        -9.7000 
 164   2.0000      -0.355926        -9.6852 
 165   2.0000      -0.341866        -9.3027 
 166   2.0000      -0.337668        -9.1884 
 167   2.0000      -0.324780        -8.8377 
 168   2.0000      -0.321857        -8.7582 
 169   2.0000      -0.304920        -8.2973 
 170   2.0000      -0.299582        -8.1520 
 171   2.0000      -0.285464        -7.7679 
 172   2.0000      -0.279663        -7.6100 
 173   2.0000      -0.263792        -7.1782 
 174   2.0000      -0.241494        -6.5714 
 175   2.0000      -0.189950        -5.1688 
 176   2.0000      -0.180732        -4.9180 
 177   2.0000      -0.078427        -2.1341 
 178   2.0000      -0.059389        -1.6161 
 179   0.0000       0.028316         0.7705 
 180   0.0000       0.065493         1.7822 
 181   0.0000       0.090453         2.4613 
 182   0.0000       0.107027         2.9124 
 183   0.0000       0.113783         3.0962 
 184   0.0000       0.137202         3.7335 
 185   0.0000       0.139322         3.7911 
 186   0.0000       0.141567         3.8522 
 187   0.0000       0.163821         4.4578 
 188   0.0000       0.165338         4.4991 
 189   0.0000       0.165516         4.5039 
 190   0.0000       0.172259         4.6874 
 191   0.0000       0.181003         4.9253 
 192   0.0000       0.184401         5.0178 
 193   0.0000       0.188644         5.1333 
 194   0.0000       0.205019         5.5789 
 195   0.0000       0.205514         5.5923 
 196   0.0000       0.208288         5.6678 
 197   0.0000       0.208683         5.6785 
 198   0.0000       0.217121         5.9082 
 199   0.0000       0.228360         6.2140 
 200   0.0000       0.233146         6.3442 
 201   0.0000       0.234350         6.3770 
 202   0.0000       0.239095         6.5061 
 203   0.0000       0.239721         6.5231 
 204   0.0000       0.246629         6.7111 
 205   0.0000       0.255473         6.9518 
 206   0.0000       0.256425         6.9777 
 207   0.0000       0.257474         7.0062 
 208   0.0000       0.258799         7.0423 
 209   0.0000       0.260720         7.0945 
 210   0.0000       0.263184         7.1616 
 211   0.0000       0.266113         7.2413 
 212   0.0000       0.269176         7.3247 
 213   0.0000       0.271692         7.3931 
 214   0.0000       0.272797         7.4232 
 215   0.0000       0.275835         7.5059 
 216   0.0000       0.277838         7.5604 
 217   0.0000       0.282523         7.6878 
 218   0.0000       0.286606         7.7989 
 219   0.0000       0.287570         7.8252 
 220   0.0000       0.289852         7.8873 
 221   0.0000       0.292004         7.9458 
 222   0.0000       0.295048         8.0287 
 223   0.0000       0.296757         8.0752 
 224   0.0000       0.296969         8.0809 
 225   0.0000       0.300100         8.1661 
 226   0.0000       0.304860         8.2957 
 227   0.0000       0.308962         8.4073 
 228   0.0000       0.310964         8.4618 
 229   0.0000       0.324633         8.8337 
 230   0.0000       0.327677         8.9166 
 231   0.0000       0.334002         9.0887 
 232   0.0000       0.342388         9.3169 
 233   0.0000       0.353100         9.6083 
 234   0.0000       0.356568         9.7027 
 235   0.0000       0.363335         9.8868 
 236   0.0000       0.375879        10.2282 
 237   0.0000       0.390362        10.6223 
 238   0.0000       0.395152        10.7526 
 239   0.0000       0.398909        10.8549 
 240   0.0000       0.405314        11.0291 
 241   0.0000       0.409493        11.1429 
 242   0.0000       0.411965        11.2101 
 243   0.0000       0.418926        11.3995 
 244   0.0000       0.429376        11.6839 
 245   0.0000       0.434286        11.8175 
 246   0.0000       0.436465        11.8768 
 247   0.0000       0.440616        11.9898 
 248   0.0000       0.442228        12.0336 
 249   0.0000       0.448057        12.1923 
 250   0.0000       0.457340        12.4448 
 251   0.0000       0.466993        12.7075 
 252   0.0000       0.468486        12.7481 
 253   0.0000       0.469092        12.7646 
 254   0.0000       0.471773        12.8376 
 255   0.0000       0.475417        12.9368 
 256   0.0000       0.476269        12.9599 
 257   0.0000       0.479417        13.0456 
 258   0.0000       0.488473        13.2920 
 259   0.0000       0.496512        13.5108 
 260   0.0000       0.503721        13.7069 
 261   0.0000       0.505492        13.7551 
 262   0.0000       0.506279        13.7766 
 263   0.0000       0.511478        13.9180 
 264   0.0000       0.516090        14.0435 
 265   0.0000       0.519625        14.1397 
 266   0.0000       0.523962        14.2577 
 267   0.0000       0.528839        14.3904 
 268   0.0000       0.531629        14.4664 
 269   0.0000       0.536257        14.5923 
 270   0.0000       0.543507        14.7896 
 271   0.0000       0.546426        14.8690 
 272   0.0000       0.557917        15.1817 
 273   0.0000       0.559309        15.2196 
 274   0.0000       0.561474        15.2785 
 275   0.0000       0.566047        15.4029 
 276   0.0000       0.570633        15.5277 
 277   0.0000       0.573706        15.6113 
 278   0.0000       0.578903        15.7528 
 279   0.0000       0.586364        15.9558 
 280   0.0000       0.591477        16.0949 
 281   0.0000       0.593173        16.1410 
 282   0.0000       0.593973        16.1628 
 283   0.0000       0.595793        16.2124 
 284   0.0000       0.598275        16.2799 
 285   0.0000       0.599927        16.3249 
 286   0.0000       0.605735        16.4829 
 287   0.0000       0.611183        16.6311 
 288   0.0000       0.617064        16.7912 
 289   0.0000       0.623869        16.9763 
 290   0.0000       0.626001        17.0343 
 291   0.0000       0.628493        17.1022 
 292   0.0000       0.635307        17.2876 
 293   0.0000       0.636434        17.3183 
 294   0.0000       0.644582        17.5400 
 295   0.0000       0.647827        17.6283 
 296   0.0000       0.652307        17.7502 
 297   0.0000       0.655371        17.8335 
 298   0.0000       0.661446        17.9989 
 299   0.0000       0.666369        18.1328 
 300   0.0000       0.671690        18.2776 
 301   0.0000       0.675289        18.3755 
 302   0.0000       0.677209        18.4278 
 303   0.0000       0.679179        18.4814 
 304   0.0000       0.681314        18.5395 
 305   0.0000       0.684715        18.6320 
 306   0.0000       0.688463        18.7340 
 307   0.0000       0.691489        18.8164 
 308   0.0000       0.695553        18.9270 
 309   0.0000       0.699006        19.0209 
 310   0.0000       0.702439        19.1143 
 311   0.0000       0.703577        19.1453 
 312   0.0000       0.706188        19.2164 
 313   0.0000       0.711391        19.3579 
 314   0.0000       0.712665        19.3926 
 315   0.0000       0.715822        19.4785 
 316   0.0000       0.717153        19.5147 
 317   0.0000       0.717959        19.5367 
 318   0.0000       0.723754        19.6943 
 319   0.0000       0.725463        19.7408 
 320   0.0000       0.727408        19.7938 
 321   0.0000       0.729150        19.8412 
 322   0.0000       0.731050        19.8929 
 323   0.0000       0.732607        19.9352 
 324   0.0000       0.734976        19.9997 
 325   0.0000       0.740268        20.1437 
 326   0.0000       0.743873        20.2418 
 327   0.0000       0.749612        20.3980 
 328   0.0000       0.753224        20.4963 
 329   0.0000       0.755545        20.5594 
 330   0.0000       0.757310        20.6074 
 331   0.0000       0.761266        20.7151 
 332   0.0000       0.763066        20.7641 
 333   0.0000       0.766942        20.8695 
 334   0.0000       0.768750        20.9188 
 335   0.0000       0.773381        21.0448 
 336   0.0000       0.777074        21.1453 
 337   0.0000       0.781490        21.2654 
 338   0.0000       0.783158        21.3108 
 339   0.0000       0.789231        21.4761 
 340   0.0000       0.793174        21.5834 
 341   0.0000       0.793819        21.6009 
 342   0.0000       0.799631        21.7591 
 343   0.0000       0.803039        21.8518 
 344   0.0000       0.805645        21.9227 
 345   0.0000       0.807794        21.9812 
 346   0.0000       0.809072        22.0160 
 347   0.0000       0.814929        22.1753 
 348   0.0000       0.815513        22.1912 
 349   0.0000       0.817292        22.2396 
 350   0.0000       0.820624        22.3303 
 351   0.0000       0.821586        22.3565 
 352   0.0000       0.823229        22.4012 
 353   0.0000       0.826629        22.4937 
 354   0.0000       0.829309        22.5666 
 355   0.0000       0.832775        22.6610 
 356   0.0000       0.833992        22.6941 
 357   0.0000       0.836237        22.7552 
 358   0.0000       0.838215        22.8090 
 359   0.0000       0.839966        22.8566 
 360   0.0000       0.841555        22.8999 
 361   0.0000       0.843202        22.9447 
 362   0.0000       0.844562        22.9817 
 363   0.0000       0.849204        23.1080 
 364   0.0000       0.850367        23.1397 
 365   0.0000       0.855708        23.2850 
 366   0.0000       0.857743        23.3404 
 367   0.0000       0.861449        23.4412 
 368   0.0000       0.866665        23.5831 
 369   0.0000       0.868112        23.6225 
 370   0.0000       0.870801        23.6957 
 371   0.0000       0.872901        23.7528 
 372   0.0000       0.874883        23.8068 
 373   0.0000       0.876463        23.8498 
 374   0.0000       0.878631        23.9088 
 375   0.0000       0.883188        24.0328 
 376   0.0000       0.887067        24.1383 
 377   0.0000       0.889787        24.2123 
 378   0.0000       0.891923        24.2705 
 379   0.0000       0.892667        24.2907 
 380   0.0000       0.897116        24.4118 
 381   0.0000       0.898455        24.4482 
 382   0.0000       0.899658        24.4809 
 383   0.0000       0.900786        24.5116 
 384   0.0000       0.905757        24.6469 
 385   0.0000       0.905947        24.6521 
 386   0.0000       0.908273        24.7154 
 387   0.0000       0.910319        24.7710 
 388   0.0000       0.914381        24.8816 
 389   0.0000       0.916589        24.9417 
 390   0.0000       0.920549        25.0494 
 391   0.0000       0.925144        25.1745 
 392   0.0000       0.926660        25.2157 
 393   0.0000       0.927733        25.2449 
 394   0.0000       0.929105        25.2822 
 395   0.0000       0.930934        25.3320 
 396   0.0000       0.934914        25.4403 
 397   0.0000       0.940472        25.5915 
 398   0.0000       0.942509        25.6470 
 399   0.0000       0.943896        25.6847 
 400   0.0000       0.947996        25.7963 
 401   0.0000       0.953575        25.9481 
 402   0.0000       0.954560        25.9749 
 403   0.0000       0.956741        26.0343 
 404   0.0000       0.960205        26.1285 
 405   0.0000       0.962818        26.1996 
 406   0.0000       0.970744        26.4153 
 407   0.0000       0.976106        26.5612 
 408   0.0000       0.981033        26.6953 
 409   0.0000       0.985024        26.8039 
 410   0.0000       0.987143        26.8615 
 411   0.0000       0.988644        26.9024 
 412   0.0000       0.996300        27.1107 
 413   0.0000       1.000308        27.2198 
 414   0.0000       1.004080        27.3224 
 415   0.0000       1.008252        27.4359 
 416   0.0000       1.013735        27.5851 
 417   0.0000       1.015955        27.6455 
 418   0.0000       1.024911        27.8893 
 419   0.0000       1.032166        28.0867 
 420   0.0000       1.032589        28.0982 
 421   0.0000       1.037102        28.2210 
 422   0.0000       1.042185        28.3593 
 423   0.0000       1.052207        28.6320 
 424   0.0000       1.059285        28.8246 
 425   0.0000       1.061749        28.8917 
 426   0.0000       1.067831        29.0572 
 427   0.0000       1.071049        29.1447 
 428   0.0000       1.077634        29.3239 
 429   0.0000       1.085798        29.5461 
 430   0.0000       1.087536        29.5934 
 431   0.0000       1.089984        29.6600 
 432   0.0000       1.098500        29.8917 
 433   0.0000       1.100190        29.9377 
 434   0.0000       1.103900        30.0387 
 435   0.0000       1.106583        30.1117 
 436   0.0000       1.111299        30.2400 
 437   0.0000       1.114622        30.3304 
 438   0.0000       1.115880        30.3646 
 439   0.0000       1.120847        30.4998 
 440   0.0000       1.122279        30.5388 
 441   0.0000       1.125567        30.6282 
 442   0.0000       1.127629        30.6843 
 443   0.0000       1.130808        30.7708 
 444   0.0000       1.136561        30.9274 
 445   0.0000       1.137087        30.9417 
 446   0.0000       1.141807        31.0701 
 447   0.0000       1.147186        31.2165 
 448   0.0000       1.149870        31.2896 
 449   0.0000       1.152350        31.3570 
 450   0.0000       1.157057        31.4851 
 451   0.0000       1.159455        31.5504 
 452   0.0000       1.165350        31.7108 
 453   0.0000       1.167701        31.7747 
 454   0.0000       1.169119        31.8133 
 455   0.0000       1.171742        31.8847 
 456   0.0000       1.179207        32.0879 
 457   0.0000       1.183231        32.1974 
 458   0.0000       1.188691        32.3459 
 459   0.0000       1.197485        32.5852 
 460   0.0000       1.198904        32.6238 
 461   0.0000       1.200923        32.6788 
 462   0.0000       1.201728        32.7007 
 463   0.0000       1.206907        32.8416 
 464   0.0000       1.208743        32.8916 
 465   0.0000       1.215020        33.0624 
 466   0.0000       1.216806        33.1110 
 467   0.0000       1.222890        33.2765 
 468   0.0000       1.224541        33.3214 
 469   0.0000       1.227696        33.4073 
 470   0.0000       1.230083        33.4722 
 471   0.0000       1.234851        33.6020 
 472   0.0000       1.237699        33.6795 
 473   0.0000       1.242011        33.7968 
 474   0.0000       1.243636        33.8411 
 475   0.0000       1.246194        33.9107 
 476   0.0000       1.249961        34.0132 
 477   0.0000       1.250879        34.0381 
 478   0.0000       1.251859        34.0648 
 479   0.0000       1.256841        34.2004 
 480   0.0000       1.261063        34.3153 
 481   0.0000       1.263409        34.3791 
 482   0.0000       1.266667        34.4678 
 483   0.0000       1.271433        34.5975 
 484   0.0000       1.277859        34.7723 
 485   0.0000       1.280961        34.8567 
 486   0.0000       1.283139        34.9160 
 487   0.0000       1.288039        35.0493 
 488   0.0000       1.290135        35.1064 
 489   0.0000       1.292765        35.1779 
 490   0.0000       1.297316        35.3018 
 491   0.0000       1.299762        35.3683 
 492   0.0000       1.304396        35.4944 
 493   0.0000       1.311323        35.6829 
 494   0.0000       1.312358        35.7111 
 495   0.0000       1.318512        35.8785 
 496   0.0000       1.319475        35.9047 
 497   0.0000       1.322330        35.9824 
 498   0.0000       1.326297        36.0904 
 499   0.0000       1.330741        36.2113 
 500   0.0000       1.331896        36.2427 
 501   0.0000       1.340517        36.4773 
 502   0.0000       1.341913        36.5153 
 503   0.0000       1.345408        36.6104 
 504   0.0000       1.347455        36.6661 
 505   0.0000       1.350084        36.7376 
 506   0.0000       1.351968        36.7889 
 507   0.0000       1.356330        36.9076 
 508   0.0000       1.358740        36.9732 
 509   0.0000       1.361887        37.0588 
[...]
      pz      :     0.022118  p :     0.079775
      px      :     0.043603
      py      :     0.014054
 77 H s       :     0.884611  s :     0.884611
      pz      :     0.047969  p :     0.079283
      px      :     0.015024
      py      :     0.016291
 78 H s       :     0.884940  s :     0.884940
      pz      :     0.025880  p :     0.079255
      px      :     0.020458
      py      :     0.032918
 79 H s       :     0.910769  s :     0.910769
      pz      :     0.021793  p :     0.086300
      px      :     0.021662
      py      :     0.042845
 80 H s       :     0.864513  s :     0.864513
      pz      :     0.039380  p :     0.084810
      px      :     0.030272
      py      :     0.015157
 81 H s       :     0.886699  s :     0.886699
      pz      :     0.037830  p :     0.084124
      px      :     0.016173
      py      :     0.030121
 82 H s       :     0.915918  s :     0.915918
      pz      :     0.021946  p :     0.086733
      px      :     0.031652
      py      :     0.033134
 83 H s       :     0.873233  s :     0.873233
      pz      :     0.039291  p :     0.084111
      px      :     0.015271
      py      :     0.029549
 84 H s       :     0.886524  s :     0.886524
      pz      :     0.035781  p :     0.083437
      px      :     0.031703
      py      :     0.015953
 85 H s       :     0.892682  s :     0.892682
      pz      :     0.022494  p :     0.079793
      px      :     0.014063
      py      :     0.043236
 86 H s       :     0.890881  s :     0.890881
      pz      :     0.024734  p :     0.078838
      px      :     0.032988
      py      :     0.021116
 87 H s       :     0.889772  s :     0.889772
      pz      :     0.048022  p :     0.078748
      px      :     0.015587
      py      :     0.015139
 88 H s       :     0.910601  s :     0.910601
      pz      :     0.021615  p :     0.087009
      px      :     0.042940
      py      :     0.022454
 89 H s       :     0.871153  s :     0.871153
      pz      :     0.037958  p :     0.083855
      px      :     0.030497
      py      :     0.015400


                      *****************************
                      * MAYER POPULATION ANALYSIS *
                      *****************************

  NA   - Mulliken gross atomic population
  ZA   - Total nuclear charge
  QA   - Mulliken gross atomic charge
  VA   - Mayer's total valence
  BVA  - Mayer's bonded valence
  FA   - Mayer's free valence

  ATOM       NA         ZA         QA         VA         BVA        FA
  0 C      5.7853     6.0000     0.2147     3.8460     3.8460     0.0000
  1 N      7.4556     7.0000    -0.4556     3.3389     3.3389    -0.0000
  2 C      6.0709     6.0000    -0.0709     3.9230     3.9230    -0.0000
  3 N      7.3398     7.0000    -0.3398     3.4561     3.4561    -0.0000
  4 C      6.0541     6.0000    -0.0541     4.0745     4.0745    -0.0000
  5 N      7.5670     7.0000    -0.5670     3.0950     3.0950     0.0000
  6 C      6.1092     6.0000    -0.1092     3.9518     3.9518    -0.0000
  7 N      7.3407     7.0000    -0.3407     3.4329     3.4329    -0.0000
  8 C      5.7908     6.0000     0.2092     3.8467     3.8467     0.0000
  9 N      7.5621     7.0000    -0.5621     3.0770     3.0770    -0.0000
 10 C      5.8815     6.0000     0.1185     3.9093     3.9093    -0.0000
 11 N      7.4386     7.0000    -0.4386     3.3772     3.3772    -0.0000
 12 C      6.0697     6.0000    -0.0697     3.8725     3.8725    -0.0000
 13 N      7.4297     7.0000    -0.4297     3.4270     3.4270     0.0000
 14 C      5.7742     6.0000     0.2258     3.7903     3.7903    -0.0000
 15 N      7.4408     7.0000    -0.4408     3.3732     3.3732    -0.0000
 16 C      5.7704     6.0000     0.2296     3.7765     3.7765    -0.0000
 17 C      6.1219     6.0000    -0.1219     3.9683     3.9683    -0.0000
 18 C      6.1861     6.0000    -0.1861     3.7634     3.7634    -0.0000
 19 C      5.7817     6.0000     0.2183     3.8677     3.8677     0.0000
 20 C      5.7869     6.0000     0.2131     3.8292     3.8292     0.0000
 21 C      6.0741     6.0000    -0.0741     3.8469     3.8469     0.0000
 22 C      6.0912     6.0000    -0.0912     3.9830     3.9830    -0.0000
 23 C      6.0397     6.0000    -0.0397     3.9926     3.9926     0.0000
 24 C      5.8065     6.0000     0.1935     3.8213     3.8213    -0.0000
 25 C      5.8853     6.0000     0.1147     3.8919     3.8919     0.0000
 26 C      6.0891     6.0000    -0.0891     3.9108     3.9108    -0.0000
 27 C      5.7854     6.0000     0.2146     3.8622     3.8622    -0.0000
 28 C      6.0617     6.0000    -0.0617     3.9887     3.9887     0.0000
 29 C      6.1814     6.0000    -0.1814     3.7454     3.7454     0.0000
 30 C      5.7538     6.0000     0.2462     3.8010     3.8010     0.0000
 31 C      5.7705     6.0000     0.2295     3.8173     3.8173     0.0000
 32 C      6.0620     6.0000    -0.0620     3.9228     3.9228     0.0000
 33 C      6.0607     6.0000    -0.0607     3.9717     3.9717    -0.0000
 34 C      6.0515     6.0000    -0.0515     3.9837     3.9837    -0.0000
 35 C      5.7718     6.0000     0.2282     3.8168     3.8168     0.0000
 36 C      5.8916     6.0000     0.1084     3.8752     3.8752    -0.0000
 37 C      6.0642     6.0000    -0.0642     3.9178     3.9178     0.0000
 38 C      5.7691     6.0000     0.2309     3.8003     3.8003    -0.0000
 39 C      6.0575     6.0000    -0.0575     3.9833     3.9833     0.0000
 40 C      6.1815     6.0000    -0.1815     3.7274     3.7274    -0.0000
 41 C      5.7738     6.0000     0.2262     3.8873     3.8873     0.0000
 42 C      5.8023     6.0000     0.1977     3.8257     3.8257     0.0000
 43 C      6.0723     6.0000    -0.0723     3.9000     3.9000     0.0000
 44 C      6.0891     6.0000    -0.0891     3.9849     3.9849     0.0000
 45 C      6.0613     6.0000    -0.0613     3.9920     3.9920    -0.0000
 46 C      5.7881     6.0000     0.2119     3.8283     3.8283    -0.0000
 47 C      5.8847     6.0000     0.1153     3.8926     3.8926     0.0000
 48 C      6.0668     6.0000    -0.0668     3.9095     3.9095    -0.0000
 49 C      5.7612     6.0000     0.2388     3.8938     3.8938    -0.0000
 50 C      6.0464     6.0000    -0.0464     3.9903     3.9903    -0.0000
 51 C      6.1925     6.0000    -0.1925     3.7363     3.7363    -0.0000
 52 H      0.9632     1.0000     0.0368     0.9858     0.9858    -0.0000
 53 H      1.0176     1.0000    -0.0176     0.9986     0.9986    -0.0000
 54 H      0.9519     1.0000     0.0481     1.0208     1.0208    -0.0000
 55 H      0.9641     1.0000     0.0359     0.9864     0.9864    -0.0000
 56 H      0.9505     1.0000     0.0495     0.9695     0.9695    -0.0000
 57 H      0.9522     1.0000     0.0478     0.9827     0.9827     0.0000
 58 H      0.9530     1.0000     0.0470     0.9847     0.9847     0.0000
 59 H      1.0037     1.0000    -0.0037     0.9997     0.9997     0.0000
 60 H      0.9547     1.0000     0.0453     1.0171     1.0171    -0.0000
 61 H      0.8288     1.0000     0.1712     1.0421     1.0421     0.0000
 62 H      0.8246     1.0000     0.1754     1.0436     1.0436    -0.0000
 63 H      0.9451     1.0000     0.0549     0.9853     0.9853    -0.0000
 64 H      1.0192     1.0000    -0.0192     0.9936     0.9936     0.0000
 65 H      0.9530     1.0000     0.0470     1.0098     1.0098     0.0000
 66 H      0.9446     1.0000     0.0554     0.9855     0.9855    -0.0000
 67 H      0.9379     1.0000     0.0621     0.9719     0.9719     0.0000
 68 H      0.9429     1.0000     0.0571     0.9868     0.9868     0.0000
 69 H      0.9438     1.0000     0.0562     0.9828     0.9828    -0.0000
 70 H      1.0304     1.0000    -0.0304     0.9940     0.9940     0.0000
 71 H      0.9556     1.0000     0.0444     1.0059     1.0059     0.0000
 72 H      0.9290     1.0000     0.0710     0.9836     0.9836    -0.0000
 73 H      1.0080     1.0000    -0.0080     1.0010     1.0010     0.0000
 74 H      0.9399     1.0000     0.0601     1.0100     1.0100    -0.0000
 75 H      0.9295     1.0000     0.0705     0.9839     0.9839    -0.0000
 76 H      0.9253     1.0000     0.0747     0.9721     0.9721     0.0000
 77 H      0.9322     1.0000     0.0678     0.9855     0.9855     0.0000
 78 H      0.9328     1.0000     0.0672     0.9854     0.9854    -0.0000
 79 H      1.0167     1.0000    -0.0167     0.9975     0.9975     0.0000
 80 H      0.9389     1.0000     0.0611     1.0072     1.0072     0.0000
 81 H      0.9454     1.0000     0.0546     0.9856     0.9856     0.0000
 82 H      1.0247     1.0000    -0.0247     0.9935     0.9935    -0.0000
 83 H      0.9577     1.0000     0.0423     1.0083     1.0083    -0.0000
 84 H      0.9455     1.0000     0.0545     0.9852     0.9852     0.0000
 85 H      0.9388     1.0000     0.0612     0.9716     0.9716     0.0000
 86 H      0.9442     1.0000     0.0558     0.9839     0.9839    -0.0000
 87 H      0.9426     1.0000     0.0574     0.9857     0.9857     0.0000
 88 H      1.0145     1.0000    -0.0145     0.9967     0.9967    -0.0000
 89 H      0.9532     1.0000     0.0468     1.0076     1.0076    -0.0000

  Mayer bond orders larger than 0.100000
B(  0-C ,  1-N ) :   1.0976 B(  0-C , 17-C ) :   1.7082 B(  0-C , 52-H ) :   0.9648 
B(  1-N ,  8-C ) :   1.0885 B(  1-N , 10-C ) :   0.9777 B(  2-C , 12-C ) :   1.4969 
B(  2-C , 16-C ) :   1.3654 B(  2-C , 53-H ) :   0.9736 B(  3-N , 14-C ) :   1.2208 
B(  3-N , 16-C ) :   1.1841 B(  3-N , 61-H ) :   0.8989 B(  4-C ,  6-C ) :   1.2128 
B(  4-C , 17-C ) :   1.2141 B(  4-C , 18-C ) :   1.4612 B(  5-N , 19-C ) :   1.4559 
B(  5-N , 27-C ) :   1.3741 B(  6-C ,  8-C ) :   1.7172 B(  6-C , 54-H ) :   0.9108 
B(  7-N , 30-C ) :   1.1961 B(  7-N , 38-C ) :   1.1893 B(  7-N , 62-H ) :   0.8968 
B(  8-C , 55-H ) :   0.9644 B(  9-N , 41-C ) :   1.3949 B(  9-N , 49-C ) :   1.4247 
B( 10-C , 56-H ) :   0.9774 B( 10-C , 57-H ) :   0.9822 B( 10-C , 58-H ) :   0.9842 
B( 11-N , 20-C ) :   1.1303 B( 11-N , 24-C ) :   1.1064 B( 11-N , 25-C ) :   0.9605 
B( 12-C , 14-C ) :   1.3566 B( 12-C , 59-H ) :   0.9564 B( 13-N , 31-C ) :   1.1602 
B( 13-N , 35-C ) :   1.1596 B( 13-N , 36-C ) :   0.9417 B( 14-C , 18-C ) :   1.1231 
B( 15-N , 42-C ) :   1.1084 B( 15-N , 46-C ) :   1.1249 B( 15-N , 47-C ) :   0.9610 
B( 16-C , 51-C ) :   1.1691 B( 17-C , 60-H ) :   0.9289 B( 18-C , 19-C ) :   1.1233 
B( 19-C , 21-C ) :   1.2517 B( 20-C , 28-C ) :   1.6295 B( 20-C , 63-H ) :   0.9703 
B( 21-C , 26-C ) :   1.5868 B( 21-C , 64-H ) :   0.9392 B( 22-C , 23-C ) :   1.2884 
B( 22-C , 28-C ) :   1.2632 B( 22-C , 29-C ) :   1.2269 B( 23-C , 24-C ) :   1.6212 
B( 23-C , 65-H ) :   0.9703 B( 24-C , 66-H ) :   0.9695 B( 25-C , 67-H ) :   0.9761 
B( 25-C , 68-H ) :   0.9828 B( 25-C , 69-H ) :   0.9823 B( 26-C , 27-C ) :   1.2565 
B( 26-C , 70-H ) :   0.9687 B( 27-C , 29-C ) :   1.2064 B( 28-C , 71-H ) :   0.9720 
B( 29-C , 30-C ) :   1.2453 B( 30-C , 32-C ) :   1.2801 B( 31-C , 39-C ) :   1.5886 
B( 31-C , 72-H ) :   0.9681 B( 32-C , 37-C ) :   1.5784 B( 32-C , 73-H ) :   0.9786 
B( 33-C , 34-C ) :   1.3060 B( 33-C , 39-C ) :   1.3036 B( 33-C , 40-C ) :   1.1779 
B( 34-C , 35-C ) :   1.5864 B( 34-C , 74-H ) :   0.9697 B( 35-C , 75-H ) :   0.9681 
B( 36-C , 76-H ) :   0.9768 B( 36-C , 77-H ) :   0.9816 B( 36-C , 78-H ) :   0.9823 
B( 37-C , 38-C ) :   1.2862 B( 37-C , 79-H ) :   0.9765 B( 38-C , 40-C ) :   1.2329 
B( 39-C , 80-H ) :   0.9705 B( 40-C , 41-C ) :   1.2503 B( 41-C , 43-C ) :   1.1843 
B( 42-C , 50-C ) :   1.6323 B( 42-C , 81-H ) :   0.9696 B( 43-C , 48-C ) :   1.6687 
B( 43-C , 82-H ) :   0.9722 B( 44-C , 45-C ) :   1.2643 B( 44-C , 50-C ) :   1.2731 
B( 44-C , 51-C ) :   1.2590 B( 45-C , 46-C ) :   1.6338 B( 45-C , 83-H ) :   0.9718 
B( 46-C , 84-H ) :   0.9700 B( 47-C , 85-H ) :   0.9762 B( 47-C , 86-H ) :   0.9829 
B( 47-C , 87-H ) :   0.9824 B( 48-C , 49-C ) :   1.1877 B( 48-C , 88-H ) :   0.9748 
B( 49-C , 51-C ) :   1.2446 B( 50-C , 89-H ) :   0.9709 

-------
TIMINGS
-------

Total SCF time: 0 days 0 hours 30 min 23 sec 

Total time                  ....    1823.899 sec
Sum of individual times     ....    1819.343 sec  ( 99.8%)

Fock matrix formation       ....    1796.188 sec  ( 98.5%)
Diagonalization             ....       6.883 sec  (  0.4%)
Density matrix formation    ....       0.670 sec  (  0.0%)
Population analysis         ....       0.529 sec  (  0.0%)
Initial guess               ....       2.050 sec  (  0.1%)
Orbital Transformation      ....       0.000 sec  (  0.0%)
Orbital Orthonormalization  ....       0.000 sec  (  0.0%)
DIIS solution               ....       3.478 sec  (  0.2%)
SOSCF solution              ....       8.498 sec  (  0.5%)

Maximum memory used throughout the entire SCF-calculation: 302.7 MB


           ************************************************************
           *        Program running with 16 parallel MPI-processes    *
           *              working on a common directory               *
           ************************************************************

------------------------------------------------------------------------------
                                ORCA  MP2 
------------------------------------------------------------------------------

Freezing NCore=104 chemical core electrons

----------
MP2 ENERGY (disk based algorithm)
----------

Dimension of the basis                    ...  918
Memory devoted to MP2                     ... 2000 MB   
Data format for buffers                   ... DOUBLE
Compression type for matrix containers    ... UNCOMPRESSED

-------------------------------
PARTIAL EXCHANGE TRANSFORMATION
-------------------------------

Transformation type                        ... one-operator
Generation of integrals (i,mue|j,nue)      ... ON
Generation of integrals (mue,kappa|nue,tau)... OFF
Generation of integrals (i,mue|a,nue)      ... OFF
Dimension of the basis                     ...  918
Number of internal MOs                     ...  127 (  52- 178)
Pair cutoff                                ... 2.500e-12 Eh
Number of AO pairs in the trafo            ... 421821
Total Number of distinct AO pairs          ... 421821
Memory devoted for trafo                   ... 2000.0 MB 
Max. Number of MO pairs treated together   ...  311      
Number Format for Storage                  ... Double (8 Byte)
Integral package used                      ... LIBINT

Starting integral evaluation:
    ... done with AO integral generation
Closing buffer AOK     (38.39 GB; CompressionRatio= 1.32)
Collecting buffer AOK 
Number of MO pairs included in the trafo   ... 8128
------------------------
SORTING OF (i,mue|j,nue)
------------------------

IBATCH = 1 of  2
IBATCH = 2 of  2
Closing buffer KAO     (51.03 GB; CompressionRatio= 1.00)
Collecting buffer KAO 
N(AO-Batches) Done                         ...  85813433 
N(AO-Batches) Skipped                      ...  82637641 
N(IJ)-pairs Skipped                        ...         0 
TOTAL TIME for half transformation         ...  2906.279 sec
AO-integral generation                     ...   212.542 sec
Half transformation                        ...   371.307 sec
K-integral sorting                         ...  2131.591 sec
Process 10:   Internal MO 132
Process 13:   Internal MO 156
Process  7:   Internal MO 108

Finished integral transformation - now doing MP2 part

OPERATOR COMBINATION   0   0: ij=( 52..178, 52..178)
Process  4:   Internal MO  84
Process  1:   Internal MO  60
Process  0:   Internal MO  54
Process  2:   Internal MO  69
Process  0:   Internal MO  57
Process  5:   Internal MO  93
Process  2:   Internal MO  72
Process  8:   Internal MO 117
Process  6:   Internal MO 102
Process  3:   Internal MO  78
Process  4:   Internal MO  87
Process  1:   Internal MO  63
Process 14:   Internal MO 165
Process 11:   Internal MO 141
Process  2:   Internal MO  75
Process  9:   Internal MO 126
Process 12:   Internal MO 150
Process  3:   Internal MO  81
Process  1:   Internal MO  66
Process  7:   Internal MO 111
Process  5:   Internal MO  96
Process  4:   Internal MO  90
Process 10:   Internal MO 135
Process  6:   Internal MO 105
Process 15:   Internal MO 174
Process  8:   Internal MO 120
Process  5:   Internal MO  99
Process  9:   Internal MO 129
Process  7:   Internal MO 114
Process 13:   Internal MO 159
Process 11:   Internal MO 144
Process 14:   Internal MO 168
Process 10:   Internal MO 138
Process 12:   Internal MO 153
Process  8:   Internal MO 123
Process 15:   Internal MO 177
Process 11:   Internal MO 147
Process 13:   Internal MO 162
Process 14:   Internal MO 171
-----------------------------------------------
 MP2 CORRELATION ENERGY   :     -7.286898689 Eh
-----------------------------------------------


-------
TIMINGS
-------
Total time                : 3273.418 sec
Integral trafo            : 2908.376 sec ( 88.8%)
K(i,j)                    :    5.232 sec (  0.2%)
T(i,j)                    :    0.280 sec (  0.0%)

---------------------------------------
MP2 TOTAL ENERGY:    -2130.827027171 Eh
---------------------------------------

Maximum memory used throughout the entire MP2-calculation: 2275.3 MB

-------------------------   --------------------
FINAL SINGLE POINT ENERGY     -2130.827027170921
-------------------------   --------------------


                            ***************************************
                            *     ORCA property calculations      *
                            ***************************************


  WARNING: The energy has been calculated at the MP2 level but the densities
           used in the property calculations are still SCF densities
           MP2 response densities have not been calculated 
           use %mp2 Density relaxed end
           or  %mp2 Density unrelaxed end

                                    ---------------------
                                    Active property flags
                                    ---------------------
   (+) Dipole Moment


------------------------------------------------------------------------------
                       ORCA ELECTRIC PROPERTIES CALCULATION
------------------------------------------------------------------------------

Dipole Moment Calculation                       ... on
Quadrupole Moment Calculation                   ... off
Polarizability Calculation                      ... off
GBWName                                         ... /scratch/allen/tmpyp4_amber_gaff2/conf1/conf1/Conf20.orca.gbw
Electron density                                ... /scratch/allen/tmpyp4_amber_gaff2/conf1/conf1/Conf20.orca.scfp
The origin for moment calculation is the CENTER OF MASS  = (-0.000860, -0.004735  0.002915)

-------------
DIPOLE MOMENT
-------------
                                X             Y             Z
Electronic contribution:      2.85635      -4.14973      -0.10408
Nuclear contribution   :     -0.04753       0.15489       0.12053
                        -----------------------------------------
Total Dipole Moment    :      2.80882      -3.99484       0.01645
                        -----------------------------------------
Magnitude (a.u.)       :      4.88350
Magnitude (Debye)      :     12.41286



--------------------
Rotational spectrum 
--------------------
 
Rotational constants in cm-1:     0.001503     0.001477     0.000760 
Rotational constants in MHz :    45.052777    44.290825    22.788890 

 Dipole components along the rotational axes: 
x,y,z [a.u.] :     3.520513     3.384389     0.020778 
x,y,z [Debye]:     8.948434     8.602434     0.052812 

 

Timings for individual modules:

Sum of individual times         ...     5122.067 sec (=  85.368 min)
GTO integral calculation        ...        3.289 sec (=   0.055 min)   0.1 %
SCF iterations                  ...     1824.959 sec (=  30.416 min)  35.6 %
MP2 module                      ...     3293.819 sec (=  54.897 min)  64.3 %
                             ****ORCA TERMINATED NORMALLY****
TOTAL RUN TIME: 0 days 1 hours 25 minutes 25 seconds 432 msec
# of primitive gaussian functions

