
                                 *****************
                                 * O   R   C   A *
                                 *****************

                                            #,                                       
                                            ###                                      
                                            ####                                     
                                            #####                                    
                                            ######                                   
                                           ########,                                 
                                     ,,################,,,,,                         
                               ,,#################################,,                 
                          ,,##########################################,,             
                       ,#########################################, ''#####,          
                    ,#############################################,,   '####,        
                  ,##################################################,,,,####,       
                ,###########''''           ''''###############################       
              ,#####''   ,,,,##########,,,,          '''####'''          '####       
            ,##' ,,,,###########################,,,                        '##       
           ' ,,###''''                  '''############,,,                           
         ,,##''                                '''############,,,,        ,,,,,,###''
      ,#''                                            '''#######################'''  
     '                                                          ''''####''''         
             ,#######,   #######,   ,#######,      ##                                
            ,#'     '#,  ##    ##  ,#'     '#,    #''#        ######   ,####,        
            ##       ##  ##   ,#'  ##            #'  '#       #        #'  '#        
            ##       ##  #######   ##           ,######,      #####,   #    #        
            '#,     ,#'  ##    ##  '#,     ,#' ,#      #,         ##   #,  ,#        
             '#######'   ##     ##  '#######'  #'      '#     #####' # '####'        



                  #######################################################
                  #                        -***-                        #
                  #          Department of theory and spectroscopy      #
                  #    Directorship and core code : Frank Neese         #
                  #        Max Planck Institute fuer Kohlenforschung    #
                  #                Kaiser Wilhelm Platz 1               #
                  #                 D-45470 Muelheim/Ruhr               #
                  #                      Germany                        #
                  #                                                     #
                  #                  All rights reserved                #
                  #                        -***-                        #
                  #######################################################


                         Program Version 5.0.4 -  RELEASE  -


 With contributions from (in alphabetic order):
   Daniel Aravena         : Magnetic Suceptibility
   Michael Atanasov       : Ab Initio Ligand Field Theory (pilot matlab implementation)
   Alexander A. Auer      : GIAO ZORA, VPT2 properties, NMR spectrum
   Ute Becker             : Parallelization
   Giovanni Bistoni       : ED, misc. LED, open-shell LED, HFLD
   Martin Brehm           : Molecular dynamics
   Dmytro Bykov           : SCF Hessian
   Vijay G. Chilkuri      : MRCI spin determinant printing, contributions to CSF-ICE
   Dipayan Datta          : RHF DLPNO-CCSD density
   Achintya Kumar Dutta   : EOM-CC, STEOM-CC
   Dmitry Ganyushin       : Spin-Orbit,Spin-Spin,Magnetic field MRCI
   Miquel Garcia          : C-PCM and meta-GGA Hessian, CC/C-PCM, Gaussian charge scheme
   Yang Guo               : DLPNO-NEVPT2, F12-NEVPT2, CIM, IAO-localization
   Andreas Hansen         : Spin unrestricted coupled pair/coupled cluster methods
   Benjamin Helmich-Paris : MC-RPA, TRAH-SCF, COSX integrals
   Lee Huntington         : MR-EOM, pCC
   Robert Izsak           : Overlap fitted RIJCOSX, COSX-SCS-MP3, EOM
   Marcus Kettner         : VPT2
   Christian Kollmar      : KDIIS, OOCD, Brueckner-CCSD(T), CCSD density, CASPT2, CASPT2-K
   Simone Kossmann        : Meta GGA functionals, TD-DFT gradient, OOMP2, MP2 Hessian
   Martin Krupicka        : Initial AUTO-CI
   Lucas Lang             : DCDCAS
   Marvin Lechner         : AUTO-CI (C++ implementation), FIC-MRCC
   Dagmar Lenk            : GEPOL surface, SMD
   Dimitrios Liakos       : Extrapolation schemes; Compound Job, initial MDCI parallelization
   Dimitrios Manganas     : Further ROCIS development; embedding schemes
   Dimitrios Pantazis     : SARC Basis sets
   Anastasios Papadopoulos: AUTO-CI, single reference methods and gradients
   Taras Petrenko         : DFT Hessian,TD-DFT gradient, ASA, ECA, R-Raman, ABS, FL, XAS/XES, NRVS
   Peter Pinski           : DLPNO-MP2, DLPNO-MP2 Gradient
   Christoph Reimann      : Effective Core Potentials
   Marius Retegan         : Local ZFS, SOC
   Christoph Riplinger    : Optimizer, TS searches, QM/MM, DLPNO-CCSD(T), (RO)-DLPNO pert. Triples
   Tobias Risthaus        : Range-separated hybrids, TD-DFT gradient, RPA, STAB
   Michael Roemelt        : Original ROCIS implementation
   Masaaki Saitow         : Open-shell DLPNO-CCSD energy and density
   Barbara Sandhoefer     : DKH picture change effects
   Avijit Sen             : IP-ROCIS
   Kantharuban Sivalingam : CASSCF convergence, NEVPT2, FIC-MRCI
   Bernardo de Souza      : ESD, SOC TD-DFT
   Georgi Stoychev        : AutoAux, RI-MP2 NMR, DLPNO-MP2 response
   Willem Van den Heuvel  : Paramagnetic NMR
   Boris Wezisla          : Elementary symmetry handling
   Frank Wennmohs         : Technical directorship


 We gratefully acknowledge several colleagues who have allowed us to
 interface, adapt or use parts of their codes:
   Stefan Grimme, W. Hujo, H. Kruse, P. Pracht,  : VdW corrections, initial TS optimization,
                  C. Bannwarth, S. Ehlert          DFT functionals, gCP, sTDA/sTD-DF
   Ed Valeev, F. Pavosevic, A. Kumar             : LibInt (2-el integral package), F12 methods
   Garnet Chan, S. Sharma, J. Yang, R. Olivares  : DMRG
   Ulf Ekstrom                                   : XCFun DFT Library
   Mihaly Kallay                                 : mrcc  (arbitrary order and MRCC methods)
   Jiri Pittner, Ondrej Demel                    : Mk-CCSD
   Frank Weinhold                                : gennbo (NPA and NBO analysis)
   Christopher J. Cramer and Donald G. Truhlar   : smd solvation model
   Lars Goerigk                                  : TD-DFT with DH, B97 family of functionals
   V. Asgeirsson, H. Jonsson                     : NEB implementation
   FAccTs GmbH                                   : IRC, NEB, NEB-TS, DLPNO-Multilevel, CI-OPT
                                                   MM, QMMM, 2- and 3-layer-ONIOM, Crystal-QMMM,
                                                   LR-CPCM, SF, NACMEs, symmetry and pop. for TD-DFT,
                                                   nearIR, NL-DFT gradient (VV10), updates on ESD,
                                                   ML-optimized integration grids
   S Lehtola, MJT Oliveira, MAL Marques          : LibXC Library
   Liviu Ungur et al                             : ANISO software


 Your calculation uses the libint2 library for the computation of 2-el integrals
 For citations please refer to: http://libint.valeyev.net

 Your ORCA version has been built with support for libXC version: 5.1.0
 For citations please refer to: https://tddft.org/programs/libxc/

 This ORCA versions uses:
   CBLAS   interface :  Fast vector & matrix operations
   LAPACKE interface :  Fast linear algebra routines
   SCALAPACK package :  Parallel linear algebra routines
   Shared memory     :  Shared parallel matrices
   BLAS/LAPACK       :  OpenBLAS 0.3.15  USE64BITINT DYNAMIC_ARCH NO_AFFINITY Sandybridge SINGLE_THREADED
        Core in use  :  Sandybridge
   Copyright (c) 2011-2014, The OpenBLAS Project


================================================================================

----- Orbital basis set information -----
Your calculation utilizes the basis: cc-pVDZ 
       H, B-Ne : Obtained from the ccRepo (grant-hill.group.shef.ac.uk/ccrepo) Feb. 2017
                 T. H. Dunning, Jr., J. Chem. Phys. 90, 1007 (1989)
            He : Obtained from the ccRepo (grant-hill.group.shef.ac.uk/ccrepo) Feb. 2017
                 D. E. Woon, T. H. Dunning, Jr., J. Chem. Phys. 100, 2975 (1994)
  Li-Be, Na-Mg : Obtained from the ccRepo (grant-hill.group.shef.ac.uk/ccrepo) Feb. 2017
                 B. P. Prascher, D. E. Woon, K. A. Peterson, T. H. Dunning, Jr., A. K. Wilson, Theor. Chem. Acc. 128, 69 (2011)
         Al-Ar : Obtained from the ccRepo (grant-hill.group.shef.ac.uk/ccrepo) Feb. 2017
                 D. E. Woon, T. H. Dunning, Jr., J. Chem. Phys. 98, 1358 (1993)
            Ca : Obtained from the Peterson Research Group Website (tyr0.chem.wsu.edu/~kipeters) Feb. 2017
                 J. Koput, K. A. Peterson, J. Phys. Chem. 106, 9595 (2002)
         Sc-Zn : Obtained from the ccRepo (grant-hill.group.shef.ac.uk/ccrepo) Feb. 2017
                 N. B. Balabanov, K. A. Peterson, J. Chem. Phys. 123, 064107 (2005)
                 N. B. Balabanov, K. A. Peterson, J. Chem. Phys. 125, 074110 (2006)
         Ga-Kr : Obtained from the ccRepo (grant-hill.group.shef.ac.uk/ccrepo) Feb. 2017
                 A. K. Wilson, D. E. Woon, K. A. Peterson, T. H. Dunning, Jr., J. Chem. Phys. 110, 7667 (1999)

================================================================================
                                        WARNINGS
                       Please study these warnings very carefully!
================================================================================


WARNING: No MP2 level density has been requested!
         To caclulate MP2 level properties use
         %mp2 Density relaxed end
         or
         %mp2 Density unrelaxed end

WARNING: Post HF methods need fully converged wavefunctions
  ===> : Setting SCFConvForced true
         You can overwrite this default with %scf ConvForced false 


INFO   : the flag for use of the SHARK integral package has been found!

================================================================================
                                       INPUT FILE
================================================================================
NAME = /scratch/allen/tmpyp4_amber_gaff2/2.Mdgx/conf11/conf11/Conf182.orca
|  1> ! PAL2
|  2> ! mp2 cc-pvdz TightSCF  NoKeepInts
|  3> 
|  4> %scf
|  5>   MaxCore 2000
|  6> end
|  7> %mp2
|  8>   MaxCore 2000
|  9> end
| 10> * xyz 0 1
| 11>    C       -4.95600         5.18200         0.07700
| 12>    C        1.47400         4.04100         0.05700
| 13>    C       -2.80200         4.09300         0.04900
| 14>    C       -2.21500         5.36800         0.05200
| 15>    C       -3.00900         6.49700         0.07000
| 16>    C       -5.18100         7.62300         0.13700
| 17>    C        0.13200         4.30700         0.06100
| 18>    C       -0.56900         3.05600         0.04700
| 19>    C        1.64900         2.61800         0.02300
| 20>    C       -4.20400         4.02300         0.06500
| 21>    N       -4.35800         6.39500         0.07900
| 22>    N        0.38800         2.06700         0.02500
| 23>    N       -2.01000         0.39500        -0.07500
| 24>    N       -0.38800        -2.07400        -0.02700
| 25>    N        2.01000        -0.40100         0.06500
| 26>    C       -1.96000         2.86100         0.02400
| 27>    C       -2.62300         1.61500        -0.01800
| 28>    C       -5.57300        -4.32900         1.06600
| 29>    C       -4.07300         1.47100         0.05600
| 30>    C       -4.10600        -2.75600        -0.02600
| 31>    C       -4.99500        -2.75700        -1.11100
| 32>    C       -6.13200        -3.54200        -1.07600
| 33>    C       -7.65100        -5.11300         0.04000
| 34>    C       -4.32400         0.14100         0.03700
| 35>    C       -3.02500        -0.52000        -0.04800
| 36>    C       -4.42200        -3.56600         1.07500
| 37>    N       -6.40700        -4.31300         0.00100
| 38>    C       -2.86700        -1.92200        -0.04000
| 39>    C       -1.65000        -2.62400        -0.02700
| 40>    C        3.56800        -6.14200        -1.04000
| 41>    C       -1.47600        -4.04900        -0.03400
| 42>    C        2.80300        -4.09900        -0.00800
| 43>    C        3.65700        -4.38400         1.06900
| 44>    C        4.42700        -5.53000         1.05900
| 45>    C        5.24500        -7.58800         0.01400
| 46>    C       -0.13400        -4.31500        -0.02200
| 47>    C        0.56800        -3.06400        -0.02700
| 48>    C        2.77500        -5.01200        -1.07400
| 49>    N        4.37600        -6.39100         0.01700
| 50>    C        1.95900        -2.86900        -0.00900
| 51>    C        2.62100        -1.62200         0.00900
| 52>    C        5.54300         4.33900        -1.13000
| 53>    C        4.07000        -1.47900        -0.09400
| 54>    C        4.10400         2.75100        -0.02100
| 55>    C        5.02700         2.72900         1.03600
| 56>    C        6.16600         3.50900         0.97800
| 57>    C        7.61900         5.15300        -0.11500
| 58>    C        4.32100        -0.14800        -0.09200
| 59>    C        3.02500         0.51400         0.01500
| 60>    C        4.38700         3.58200        -1.11500
| 61>    C        2.86600         1.91600         0.01300
| 62>    N        6.41300         4.29600        -0.09500
| 63>    H       -6.03900         5.17500         0.07800
| 64>    H        2.27400         4.76600         0.08100
| 65>    H       -1.13800         5.48700         0.04900
| 66>    H       -2.60200         7.50000         0.08100
| 67>    H       -5.30100         7.92300         1.18000
| 68>    H       -4.67600         8.41000        -0.42400
| 69>    H       -6.15400         7.41500        -0.30700
| 70>    H       -0.33200         5.28200         0.06900
| 71>    H       -4.71700         3.06800         0.05000
| 72>    H        0.18200         1.07200         0.00500
| 73>    H       -0.18300        -1.08000        -0.02100
| 74>    H       -5.86400        -4.96200         1.89500
| 75>    H       -4.79400         2.27200         0.13900
| 76>    H       -4.80000        -2.16000        -1.99400
| 77>    H       -6.84100        -3.58200        -1.89300
| 78>    H       -8.42800        -4.53600         0.54600
| 79>    H       -7.95600        -5.33700        -0.98100
| 80>    H       -7.45600        -6.03700         0.58400
| 81>    H       -5.28700        -0.34400         0.10000
| 82>    H       -3.78000        -3.60100         1.94700
| 83>    H        3.58700        -6.86800        -1.84300
| 84>    H       -2.27600        -4.77400        -0.05000
| 85>    H        3.71400        -3.72400         1.92600
| 86>    H        5.09200        -5.79500         1.87100
| 87>    H        6.20500        -7.32900        -0.43900
| 88>    H        5.39300        -7.91700         1.04200
| 89>    H        4.75900        -8.37300        -0.56400
| 90>    H        0.32900        -5.29000        -0.00800
| 91>    H        2.14600        -4.84200        -1.94000
| 92>    H        5.80800         4.98600        -1.95600
| 93>    H        4.78800        -2.28100        -0.18500
| 94>    H        4.86000         2.11400         1.91200
| 95>    H        6.90100         3.53100         1.77200
| 96>    H        7.38300         6.10900         0.35600
| 97>    H        8.41400         4.65200         0.43500
| 98>    H        7.92100         5.31000        -1.15000
| 99>    H        5.28300         0.33600        -0.17900
|100>    H        3.72000         3.63200        -1.96700
|101> *
|102> 
|103>                          ****END OF INPUT****
================================================================================

                       ****************************
                       * Single Point Calculation *
                       ****************************

---------------------------------
CARTESIAN COORDINATES (ANGSTROEM)
---------------------------------
  C     -4.956000    5.182000    0.077000
  C      1.474000    4.041000    0.057000
  C     -2.802000    4.093000    0.049000
  C     -2.215000    5.368000    0.052000
  C     -3.009000    6.497000    0.070000
  C     -5.181000    7.623000    0.137000
  C      0.132000    4.307000    0.061000
  C     -0.569000    3.056000    0.047000
  C      1.649000    2.618000    0.023000
  C     -4.204000    4.023000    0.065000
  N     -4.358000    6.395000    0.079000
  N      0.388000    2.067000    0.025000
  N     -2.010000    0.395000   -0.075000
  N     -0.388000   -2.074000   -0.027000
  N      2.010000   -0.401000    0.065000
  C     -1.960000    2.861000    0.024000
  C     -2.623000    1.615000   -0.018000
  C     -5.573000   -4.329000    1.066000
  C     -4.073000    1.471000    0.056000
  C     -4.106000   -2.756000   -0.026000
  C     -4.995000   -2.757000   -1.111000
  C     -6.132000   -3.542000   -1.076000
  C     -7.651000   -5.113000    0.040000
  C     -4.324000    0.141000    0.037000
  C     -3.025000   -0.520000   -0.048000
  C     -4.422000   -3.566000    1.075000
  N     -6.407000   -4.313000    0.001000
  C     -2.867000   -1.922000   -0.040000
  C     -1.650000   -2.624000   -0.027000
  C      3.568000   -6.142000   -1.040000
  C     -1.476000   -4.049000   -0.034000
  C      2.803000   -4.099000   -0.008000
  C      3.657000   -4.384000    1.069000
  C      4.427000   -5.530000    1.059000
  C      5.245000   -7.588000    0.014000
  C     -0.134000   -4.315000   -0.022000
  C      0.568000   -3.064000   -0.027000
  C      2.775000   -5.012000   -1.074000
  N      4.376000   -6.391000    0.017000
  C      1.959000   -2.869000   -0.009000
  C      2.621000   -1.622000    0.009000
  C      5.543000    4.339000   -1.130000
  C      4.070000   -1.479000   -0.094000
  C      4.104000    2.751000   -0.021000
  C      5.027000    2.729000    1.036000
  C      6.166000    3.509000    0.978000
  C      7.619000    5.153000   -0.115000
  C      4.321000   -0.148000   -0.092000
  C      3.025000    0.514000    0.015000
  C      4.387000    3.582000   -1.115000
  C      2.866000    1.916000    0.013000
  N      6.413000    4.296000   -0.095000
  H     -6.039000    5.175000    0.078000
  H      2.274000    4.766000    0.081000
  H     -1.138000    5.487000    0.049000
  H     -2.602000    7.500000    0.081000
  H     -5.301000    7.923000    1.180000
  H     -4.676000    8.410000   -0.424000
  H     -6.154000    7.415000   -0.307000
  H     -0.332000    5.282000    0.069000
  H     -4.717000    3.068000    0.050000
  H      0.182000    1.072000    0.005000
  H     -0.183000   -1.080000   -0.021000
  H     -5.864000   -4.962000    1.895000
  H     -4.794000    2.272000    0.139000
  H     -4.800000   -2.160000   -1.994000
  H     -6.841000   -3.582000   -1.893000
  H     -8.428000   -4.536000    0.546000
  H     -7.956000   -5.337000   -0.981000
  H     -7.456000   -6.037000    0.584000
  H     -5.287000   -0.344000    0.100000
  H     -3.780000   -3.601000    1.947000
  H      3.587000   -6.868000   -1.843000
  H     -2.276000   -4.774000   -0.050000
  H      3.714000   -3.724000    1.926000
  H      5.092000   -5.795000    1.871000
  H      6.205000   -7.329000   -0.439000
  H      5.393000   -7.917000    1.042000
  H      4.759000   -8.373000   -0.564000
  H      0.329000   -5.290000   -0.008000
  H      2.146000   -4.842000   -1.940000
  H      5.808000    4.986000   -1.956000
  H      4.788000   -2.281000   -0.185000
  H      4.860000    2.114000    1.912000
  H      6.901000    3.531000    1.772000
  H      7.383000    6.109000    0.356000
  H      8.414000    4.652000    0.435000
  H      7.921000    5.310000   -1.150000
  H      5.283000    0.336000   -0.179000
  H      3.720000    3.632000   -1.967000

----------------------------
CARTESIAN COORDINATES (A.U.)
----------------------------
  NO LB      ZA    FRAG     MASS         X           Y           Z
   0 C     6.0000    0    12.011   -9.365483    9.792561    0.145509
   1 C     6.0000    0    12.011    2.785456    7.636383    0.107714
   2 C     6.0000    0    12.011   -5.295013    7.734649    0.092597
   3 C     6.0000    0    12.011   -4.185743   10.144050    0.098266
   4 C     6.0000    0    12.011   -5.686186   12.277551    0.132281
   5 C     6.0000    0    12.011   -9.790671   14.405382    0.258892
   6 C     6.0000    0    12.011    0.249444    8.139050    0.115273
   7 C     6.0000    0    12.011   -1.075254    5.775003    0.088817
   8 C     6.0000    0    12.011    3.116158    4.947303    0.043464
   9 C     6.0000    0    12.011   -7.944409    7.602368    0.122832
  10 N     7.0000    0    14.007   -8.235426   12.084799    0.149288
  11 N     7.0000    0    14.007    0.733214    3.906064    0.047243
  12 N     7.0000    0    14.007   -3.798350    0.746442   -0.141729
  13 N     7.0000    0    14.007   -0.733214   -3.919292   -0.051023
  14 N     7.0000    0    14.007    3.798350   -0.757780    0.122832
  15 C     6.0000    0    12.011   -3.703863    5.406506    0.045353
  16 C     6.0000    0    12.011   -4.956752    3.051908   -0.034015
  17 C     6.0000    0    12.011  -10.531444   -8.180624    2.014448
  18 C     6.0000    0    12.011   -7.696855    2.779787    0.105825
  19 C     6.0000    0    12.011   -7.759216   -5.208085   -0.049133
  20 C     6.0000    0    12.011   -9.439182   -5.209975   -2.099486
  21 C     6.0000    0    12.011  -11.587801   -6.693410   -2.033345
  22 C     6.0000    0    12.011  -14.458295   -9.662170    0.075589
  23 C     6.0000    0    12.011   -8.171176    0.266451    0.069920
  24 C     6.0000    0    12.011   -5.716422   -0.982658   -0.090707
  25 C     6.0000    0    12.011   -8.356369   -6.738763    2.031456
  26 N     7.0000    0    14.007  -12.107475   -8.150389    0.001890
  27 C     6.0000    0    12.011   -5.417845   -3.632054   -0.075589
  28 C     6.0000    0    12.011   -3.118048   -4.958641   -0.051023
  29 C     6.0000    0    12.011    6.742543  -11.606698   -1.965315
  30 C     6.0000    0    12.011   -2.789236   -7.651501   -0.064251
  31 C     6.0000    0    12.011    5.296902   -7.745987   -0.015118
  32 C     6.0000    0    12.011    6.910728   -8.284559    2.020117
  33 C     6.0000    0    12.011    8.365818  -10.450186    2.001220
  34 C     6.0000    0    12.011    9.911614  -14.339242    0.026456
  35 C     6.0000    0    12.011   -0.253223   -8.154168   -0.041574
  36 C     6.0000    0    12.011    1.073364   -5.790121   -0.051023
  37 C     6.0000    0    12.011    5.243990   -9.471307   -2.029566
  38 N     7.0000    0    14.007    8.269442  -12.077240    0.032125
  39 C     6.0000    0    12.011    3.701973   -5.421624   -0.017008
  40 C     6.0000    0    12.011    4.952972   -3.065136    0.017008
  41 C     6.0000    0    12.011   10.474752    8.199522   -2.135391
  42 C     6.0000    0    12.011    7.691185   -2.794905   -0.177634
  43 C     6.0000    0    12.011    7.755436    5.198637   -0.039684
  44 C     6.0000    0    12.011    9.499653    5.157063    1.957756
  45 C     6.0000    0    12.011   11.652051    6.631049    1.848152
  46 C     6.0000    0    12.011   14.397823    9.737759   -0.217319
  47 C     6.0000    0    12.011    8.165507   -0.279679   -0.173855
  48 C     6.0000    0    12.011    5.716422    0.971319    0.028346
  49 C     6.0000    0    12.011    8.290229    6.768999   -2.107045
  50 C     6.0000    0    12.011    5.415955    3.620715    0.024566
  51 N     7.0000    0    14.007   12.118814    8.118263   -0.179524
  52 H     1.0000    0     1.008  -11.412056    9.779333    0.147399
  53 H     1.0000    0     1.008    4.297237    9.006435    0.153068
  54 H     1.0000    0     1.008   -2.150508   10.368927    0.092597
  55 H     1.0000    0     1.008   -4.917067   14.172946    0.153068
  56 H     1.0000    0     1.008  -10.017438   14.972300    2.229877
  57 H     1.0000    0     1.008   -8.836359   15.892597   -0.801244
  58 H     1.0000    0     1.008  -11.629375   14.012319   -0.580146
  59 H     1.0000    0     1.008   -0.627389    9.981533    0.130391
  60 H     1.0000    0     1.008   -8.913838    5.797680    0.094486
  61 H     1.0000    0     1.008    0.343930    2.025786    0.009449
  62 H     1.0000    0     1.008   -0.345820   -2.040904   -0.039684
  63 H     1.0000    0     1.008  -11.081354   -9.376821    3.581031
  64 H     1.0000    0     1.008   -9.059347    4.293458    0.262672
  65 H     1.0000    0     1.008   -9.070685   -4.081808   -3.768114
  66 H     1.0000    0     1.008  -12.927616   -6.768999   -3.577252
  67 H     1.0000    0     1.008  -15.926612   -8.571798    1.031790
  68 H     1.0000    0     1.008  -15.034661  -10.085468   -1.853821
  69 H     1.0000    0     1.008  -14.089798  -11.408277    1.103600
  70 H     1.0000    0     1.008   -9.990982   -0.650066    0.188973
  71 H     1.0000    0     1.008   -7.143165   -6.804904    3.679297
  72 H     1.0000    0     1.008    6.778448  -12.978639   -3.482765
  73 H     1.0000    0     1.008   -4.301017   -9.021553   -0.094486
  74 H     1.0000    0     1.008    7.018443   -7.037340    3.639613
  75 H     1.0000    0     1.008    9.622485  -10.950963    3.535678
  76 H     1.0000    0     1.008   11.725751  -13.849803   -0.829590
  77 H     1.0000    0     1.008   10.191293  -14.960962    1.969095
  78 H     1.0000    0     1.008    8.993207  -15.822677   -1.065806
  79 H     1.0000    0     1.008    0.621720   -9.996651   -0.015118
  80 H     1.0000    0     1.008    4.055352   -9.150054   -3.666069
  81 H     1.0000    0     1.008   10.975529    9.422175   -3.696304
  82 H     1.0000    0     1.008    9.048009   -4.310465   -0.349599
  83 H     1.0000    0     1.008    9.184069    3.994881    3.613156
  84 H     1.0000    0     1.008   13.041000    6.672623    3.348595
  85 H     1.0000    0     1.008   13.951848   11.544337    0.672743
  86 H     1.0000    0     1.008   15.900156    8.791006    0.822031
  87 H     1.0000    0     1.008   14.968521   10.034446   -2.173185
  88 H     1.0000    0     1.008    9.983423    0.634948   -0.338261
  89 H     1.0000    0     1.008    7.029781    6.863485   -3.717091

--------------------------------
INTERNAL COORDINATES (ANGSTROEM)
--------------------------------
 C      0   0   0     0.000000000000     0.00000000     0.00000000
 C      1   0   0     6.530480916441     0.00000000     0.00000000
 C      1   2   0     2.413798044576    16.76411107     0.00000000
 C      3   1   2     1.403639198655    87.89985796   358.49987104
 C      4   3   1     1.380362633513   120.16012003     0.13238730
 C      5   4   3     2.447437231064   152.51448043     1.67040870
 C      2   1   3     1.368114030335     1.14903390   177.88304958
 C      7   2   4     1.434084376876   108.05010202   177.75615828
 C      2   1   3     1.434123425651   107.07269490   359.64518129
 C      1   2   7     1.381639967575    46.96089532   179.08807671
 N      1   2   7     1.352396761309    73.81977287   359.46595113
 N      9   2   1     1.376127174356   106.58526707   359.27472218
 N     12   9   2     2.925062050624   168.53581413   171.12065651
 N     13  12   9     2.954513327098    91.55032014    11.12112580
 N     14  13  12     2.925371258490    88.43092389   359.84326247
 C      8   7   2     1.404790019896   127.24786865   181.11170171
 C     13  12   9     1.366535034311    81.72106996   188.00453233
 C     14  13  12     5.758810554272    80.56209567   166.76250791
 C     17  13  12     1.459010623676   111.08861209   183.82872609
 C     18  14  13     2.412235892279    27.27532823    36.33507194
 C     20  18  14     1.402692767501    87.95206320   148.94598259
 C     21  20  18     1.382106725257   120.14573887   359.70382047
 C     18  14  13     2.446510985056   144.15733107    82.80075377
 C     19  17  13     1.353610726908   106.29293361   359.75308708
 C     13  12   9     1.366813447402   172.21332906    33.46711076
 C     18  14  13     1.380960173213    15.08449437   309.23336894
 N     22  21  20     1.352773077792   120.73759875     0.27865223
 C     25  13  17     1.410897586645   125.60330303   182.37774668
 C     14  13  12     1.376642291955    80.24689249   177.85461986
 C     14  13  12     5.764089607215   164.51507311   312.20821879
 C     29  14  13     1.435600919476   106.58649366   178.76395472
 C     30  14  13     2.413316804732    27.10625047    82.12560436
 C     32  30  14     1.403734305344    87.90059683   149.76154742
 C     33  32  30     1.380694028378   120.14881443   359.74174632
 C     34  33  32     2.448777858443   152.49203239     2.45173620
 C     31  29  14     1.368160809262   108.16950133     0.70383075
 C     14  13  12     1.376239804685   169.26375223   353.09862627
 C     30  14  13     1.380907310430    14.68948582   353.70041132
 N     34  33  32     1.352658863128   120.85575621     0.19603406
 C     37  14  29     1.404717053360   126.01551127   180.90772073
 C     15  14  13     1.366491126938    81.61824056   183.09049352
 C      2   1   3     4.249062720177   158.66835916   128.80349436
 C     41  15  14     1.459677704153   111.05201287   175.08990246
 C     42   2   1     2.412953791518    41.78584867   204.28453788
 C     44  42   2     1.403446472082    87.95153797   233.97558675
 C     45  44  42     1.381696421071   120.11137308     0.19721020
 C     42   2   1     2.450019795838   135.97209175   114.59938698
 C     43  41  15     1.354461516618   106.26758155     0.30894352
 C     15  14  13     1.367461151185   171.87382904   332.35056460
 C     42   2   1     1.381886391857    32.59078432   253.13981707
 C      9   2   1     1.404988612053   126.98745415   180.27905971
 N     42   2   1     1.352765315936   113.57249190   142.33597617
 H      1   2   7     1.083023083780   169.56661331   178.94426750
 H      2   1   3     1.079907866440   127.73709802   180.02418403
 H      4   3   1     1.083558489423   121.02552147   179.59816948
 H      5   4   3     1.082487413322   122.79967857   179.49627235
 H      6   5   4     1.091901552339   104.48262451   100.12180497
 H      6   5   4     1.090465496932    84.66200611   209.55626992
 H      6   5   4     1.089554496113   133.91083805   322.28808039
 H     55   4   3     0.831902037502   159.36919274   355.42676568
 H     10   1   2     1.084167422495   118.78324796   180.40650061
 H     12   9   2     1.016297692608   125.29023241   180.00180175
 H     14  13  12     1.014936943854    44.97226959   359.42596618
 H     18  14  13     1.082871645210   128.03556573   234.20482432
 H     61  10   1     0.804652720122   156.22525083   197.93846161
 H     21  20  18     1.083569563987   121.05669627   180.67006309
 H     22  21  20     1.082483256222   122.73097286   180.59748951
 H     23  18  14     1.092105306278   103.92715769   234.93429879
 H     23  18  14     1.088871893291   134.19244188    12.25587044
 H     23  18  14     1.089833473518    84.85857450   125.45241208
 H     24  19  17     1.080075460327   127.28078426   178.44613241
 H     26  18  14     1.083408048706   118.76995697   244.94906660
 H     30  14  13     1.082703098730   127.99711412   279.66882698
 H     31  29  14     1.079759695488   125.22293469   180.92530585
 H     33  32  30     1.083188810873   121.01964473   180.74284758
 H     34  33  32     1.082494341787   122.70821597   180.59516895
 H     35  34  33     1.092652735319   105.73575241    97.19771933
 H     35  34  33     1.089462711615    84.05943581   206.43036958
 H     35  34  33     1.089268102902   133.08365142   318.50306270
 H     36  31  29     1.079439669458   126.61599965   178.98859863
 H     38  30  73     1.083742127999   118.77264435   359.90091293
 H     42   2   1     1.082178358682   119.31790784   358.96750663
 H     43  41  15     1.080281907652   126.36969097   182.06329380
 H     45  44  42     1.083277434455   121.10105945   179.58025624
 H     46  45  44     1.082194529648   122.72144639   179.46906377
 H     47  42   2     1.091546151109   106.65128841   315.16475048
 H     47  42   2     1.088818625851   132.46019523    94.52397119
 H     47  42   2     1.089531091801    83.63838232   206.04504406
 H     48  43  41     1.080402239909   127.23657387   181.62955349
 H     50  42   2     1.083186502870   118.77001737    94.71359229

---------------------------
INTERNAL COORDINATES (A.U.)
---------------------------
 C      0   0   0     0.000000000000     0.00000000     0.00000000
 C      1   0   0    12.340820454873     0.00000000     0.00000000
 C      1   2   0     4.561417246844    16.76411107     0.00000000
 C      3   1   2     2.652493676294    87.89985796   358.49987104
 C      4   3   1     2.608507342839   120.16012003     0.13238730
 C      5   4   3     4.624986096674   152.51448043     1.67040870
 C      2   1   3     2.585360837309     1.14903390   177.88304958
 C      7   2   4     2.710026725231   108.05010202   177.75615828
 C      2   1   3     2.710100516721   107.07269490   359.64518129
 C      1   2   7     2.610921154396    46.96089532   179.08807671
 N      1   2   7     2.555659503277    73.81977287   359.46595113
 N      9   2   1     2.600503484979   106.58526707   359.27472218
 N     12   9   2     5.527566200405   168.53581413   171.12065651
 N     13  12   9     5.583221047236    91.55032014    11.12112580
 N     14  13  12     5.528150518591    88.43092389   359.84326247
 C      8   7   2     2.654668413270   127.24786865   181.11170171
 C     13  12   9     2.582376967257    81.72106996   188.00453233
 C     14  13  12    10.882574804710    80.56209567   166.76250791
 C     17  13  12     2.757130505230   111.08861209   183.82872609
 C     18  14  13     4.558465206823    27.27532823    36.33507194
 C     20  18  14     2.650705180609    87.95206320   148.94598259
 C     21  20  18     2.611803198586   120.14573887   359.70382047
 C     18  14  13     4.623235745386   144.15733107    82.80075377
 C     19  17  13     2.557953565794   106.29293361   359.75308708
 C     13  12   9     2.582903091751   172.21332906    33.46711076
 C     18  14  13     2.609636529225    15.08449437   309.23336894
 N     22  21  20     2.556370638369   120.73759875     0.27865223
 C     25  13  17     2.666210041769   125.60330303   182.37774668
 C     14  13  12     2.601476916169    80.24689249   177.85461986
 C     14  13  12    10.892550769017   164.51507311   312.20821879
 C     29  14  13     2.712892575415   106.58649366   178.76395472
 C     30  14  13     4.560507835333    27.10625047    82.12560436
 C     32  30  14     2.652673401891    87.90059683   149.76154742
 C     33  32  30     2.609133588376   120.14881443   359.74174632
 C     34  33  32     4.627519515267   152.49203239     2.45173620
 C     31  29  14     2.585449236669   108.16950133     0.70383075
 C     14  13  12     2.600716325456   169.26375223   353.09862627
 C     30  14  13     2.609536633043    14.68948582   353.70041132
 N     34  33  32     2.556154803934   120.85575621     0.19603406
 C     37  14  29     2.654530526499   126.01551127   180.90772073
 C     15  14  13     2.582293994346    81.61824056   183.09049352
 C      2   1   3     8.029564866989   158.66835916   128.80349436
 C     41  15  14     2.758391104639   111.05201287   175.08990246
 C     42   2   1     4.559821839776    41.78584867   204.28453788
 C     44  42   2     2.652129475853    87.95153797   233.97558675
 C     45  44  42     2.611027836043   120.11137308     0.19721020
 C     42   2   1     4.629866436820   135.97209175   114.59938698
 C     43  41  15     2.559561325344   106.26758155     0.30894352
 C     15  14  13     2.584127074516   171.87382904   332.35056460
 C     42   2   1     2.611386828803    32.59078432   253.13981707
 C      9   2   1     2.655043698059   126.98745415   180.27905971
 N     42   2   1     2.556355970587   113.57249190   142.33597617
 H      1   2   7     2.046617025059   169.56661331   178.94426750
 H      2   1   3     2.040730117440   127.73709802   180.02418403
 H      4   3   1     2.047628795094   121.02552147   179.59816948
 H      5   4   3     2.045604754595   122.79967857   179.49627235
 H      6   5   4     2.063394899124   104.48262451   100.12180497
 H      6   5   4     2.060681147693    84.66200611   209.55626992
 H      6   5   4     2.058959605636   133.91083805   322.28808039
 H     55   4   3     1.572067021130   159.36919274   355.42676568
 H     10   1   2     2.048779511835   118.78324796   180.40650061
 H     12   9   2     1.920524309565   125.29023241   180.00180175
 H     14  13  12     1.917952867083    44.97226959   359.42596618
 H     18  14  13     2.046330847636   128.03556573   234.20482432
 H     61  10   1     1.520573273946   156.22525083   197.93846161
 H     21  20  18     2.047649722989   121.05669627   180.67006309
 H     22  21  20     2.045596898814   122.73097286   180.59748951
 H     23  18  14     2.063779938267   103.92715769   234.93429879
 H     23  18  14     2.057669673245   134.19244188    12.25587044
 H     23  18  14     2.059486796529    84.85857450   125.45241208
 H     24  19  17     2.041046823986   127.28078426   178.44613241
 H     26  18  14     2.047344503340   118.76995697   244.94906660
 H     30  14  13     2.046012340948   127.99711412   279.66882698
 H     31  29  14     2.040450114918   125.22293469   180.92530585
 H     33  32  30     2.046930203877   121.01964473   180.74284758
 H     34  33  32     2.045617847496   122.70821597   180.59516895
 H     35  34  33     2.064814429233   105.73575241    97.19771933
 H     35  34  33     2.058786158072    84.05943581   206.43036958
 H     35  34  33     2.058418400901   133.08365142   318.50306270
 H     36  31  29     2.039845353366   126.61599965   178.98859863
 H     38  30  73     2.047975821711   118.77264435   359.90091293
 H     42   2   1     2.045020725966   119.31790784   358.96750663
 H     43  41  15     2.041436952892   126.36969097   182.06329380
 H     45  44  42     2.047097678177   121.10105945   179.58025624
 H     46  45  44     2.045051284662   122.72144639   179.46906377
 H     47  42   2     2.062723288131   106.65128841   315.16475048
 H     47  42   2     2.057569012371   132.46019523    94.52397119
 H     47  42   2     2.058915377895    83.63838232   206.04504406
 H     48  43  41     2.041664347903   127.23657387   181.62955349
 H     50  42   2     2.046925842384   118.77001737    94.71359229

---------------------
BASIS SET INFORMATION
---------------------
There are 3 groups of distinct atoms

 Group   1 Type C   : 17s4p1d contracted to 3s2p1d pattern {881/31/1}
 Group   2 Type N   : 17s4p1d contracted to 3s2p1d pattern {881/31/1}
 Group   3 Type H   : 4s1p contracted to 2s1p pattern {31/1}

Atom   0C    basis set group =>   1
Atom   1N    basis set group =>   2
Atom   2C    basis set group =>   1
Atom   3N    basis set group =>   2
Atom   4C    basis set group =>   1
Atom   5N    basis set group =>   2
Atom   6C    basis set group =>   1
Atom   7N    basis set group =>   2
Atom   8C    basis set group =>   1
Atom   9N    basis set group =>   2
Atom  10C    basis set group =>   1
Atom  11N    basis set group =>   2
Atom  12C    basis set group =>   1
Atom  13N    basis set group =>   2
Atom  14C    basis set group =>   1
Atom  15N    basis set group =>   2
Atom  16C    basis set group =>   1
Atom  17C    basis set group =>   1
Atom  18C    basis set group =>   1
Atom  19C    basis set group =>   1
Atom  20C    basis set group =>   1
Atom  21C    basis set group =>   1
Atom  22C    basis set group =>   1
Atom  23C    basis set group =>   1
Atom  24C    basis set group =>   1
Atom  25C    basis set group =>   1
Atom  26C    basis set group =>   1
Atom  27C    basis set group =>   1
Atom  28C    basis set group =>   1
Atom  29C    basis set group =>   1
Atom  30C    basis set group =>   1
Atom  31C    basis set group =>   1
Atom  32C    basis set group =>   1
Atom  33C    basis set group =>   1
Atom  34C    basis set group =>   1
Atom  35C    basis set group =>   1
Atom  36C    basis set group =>   1
Atom  37C    basis set group =>   1
Atom  38C    basis set group =>   1
Atom  39C    basis set group =>   1
Atom  40C    basis set group =>   1
Atom  41C    basis set group =>   1
Atom  42C    basis set group =>   1
Atom  43C    basis set group =>   1
Atom  44C    basis set group =>   1
Atom  45C    basis set group =>   1
Atom  46C    basis set group =>   1
Atom  47C    basis set group =>   1
Atom  48C    basis set group =>   1
Atom  49C    basis set group =>   1
Atom  50C    basis set group =>   1
Atom  51C    basis set group =>   1
Atom  52H    basis set group =>   3
Atom  53H    basis set group =>   3
Atom  54H    basis set group =>   3
Atom  55H    basis set group =>   3
Atom  56H    basis set group =>   3
Atom  57H    basis set group =>   3
Atom  58H    basis set group =>   3
Atom  59H    basis set group =>   3
Atom  60H    basis set group =>   3
Atom  61H    basis set group =>   3
Atom  62H    basis set group =>   3
Atom  63H    basis set group =>   3
Atom  64H    basis set group =>   3
Atom  65H    basis set group =>   3
Atom  66H    basis set group =>   3
Atom  67H    basis set group =>   3
Atom  68H    basis set group =>   3
Atom  69H    basis set group =>   3
Atom  70H    basis set group =>   3
Atom  71H    basis set group =>   3
Atom  72H    basis set group =>   3
Atom  73H    basis set group =>   3
Atom  74H    basis set group =>   3
Atom  75H    basis set group =>   3
Atom  76H    basis set group =>   3
Atom  77H    basis set group =>   3
Atom  78H    basis set group =>   3
Atom  79H    basis set group =>   3
Atom  80H    basis set group =>   3
Atom  81H    basis set group =>   3
Atom  82H    basis set group =>   3
Atom  83H    basis set group =>   3
Atom  84H    basis set group =>   3
Atom  85H    basis set group =>   3
Atom  86H    basis set group =>   3
Atom  87H    basis set group =>   3
Atom  88H    basis set group =>   3
Atom  89H    basis set group =>   3


           ************************************************************
           *        Program running with 16 parallel MPI-processes    *
           *              working on a common directory               *
           ************************************************************
------------------------------------------------------------------------------
                           ORCA GTO INTEGRAL CALCULATION
------------------------------------------------------------------------------
------------------------------------------------------------------------------
                   ___                                                        
                  /   \      - P O W E R E D   B Y -                         
                 /     \                                                     
                 |  |  |   _    _      __       _____    __    __             
                 |  |  |  | |  | |    /  \     |  _  \  |  |  /  |          
                  \  \/   | |  | |   /    \    | | | |  |  | /  /          
                 / \  \   | |__| |  /  /\  \   | |_| |  |  |/  /          
                |  |  |   |  __  | /  /__\  \  |    /   |      \           
                |  |  |   | |  | | |   __   |  |    \   |  |\   \          
                \     /   | |  | | |  |  |  |  | |\  \  |  | \   \       
                 \___/    |_|  |_| |__|  |__|  |_| \__\ |__|  \__/        
                                                                              
                      - O R C A' S   B I G   F R I E N D -                    
                                      &                                       
                       - I N T E G R A L  F E E D E R -                       
                                                                              
 v1 FN, 2020, v2 2021                                                         
------------------------------------------------------------------------------


Reading SHARK input file /scratch/allen/tmpyp4_amber_gaff2/conf1/conf1/Conf182.orca.SHARKINP.tmp ... ok
----------------------
SHARK INTEGRAL PACKAGE
----------------------

Number of atoms                             ...     90
Number of basis functions                   ...   1230
Number of shells                            ...    738
Maximum angular momentum                    ...      2
Integral batch strategy                     ... SHARK/LIBINT Hybrid
RI-J (if used) integral strategy            ... SPLIT-RIJ (Revised 2003 algorithm where possible)
Printlevel                                  ...      1
Contraction scheme used                     ... PARTIAL GENERAL contraction
Coulomb Range Separation                    ... NOT USED
Exchange Range Separation                   ... NOT USED
Finite Nucleus Model                        ... NOT USED
Auxiliary Coulomb fitting basis             ... NOT available
Auxiliary J/K fitting basis                 ... NOT available
Auxiliary Correlation fitting basis         ... NOT available
Auxiliary 'external' fitting basis          ... NOT available
Integral threshold                          ...     2.500000e-11
Primitive cut-off                           ...     2.500000e-12
Primitive pair pre-selection threshold      ...     2.500000e-12

Calculating pre-screening integrals         ... done (  0.1 sec) Dimension = 738
Calculating pre-screening integrals (ORCA)  ... done (  0.3 sec) Dimension = 426
Organizing shell pair data                  ... done (  0.7 sec)
Shell pair information
Total number of shell pairs                 ...    272691
Shell pairs after pre-screening             ...     71733
Total number of primitive shell pairs       ...    422091
Primitive shell pairs kept                  ...     92642
          la=0 lb=0:  29441 shell pairs
          la=1 lb=0:  26038 shell pairs
          la=1 lb=1:   4699 shell pairs
          la=2 lb=0:   7896 shell pairs
          la=2 lb=1:   3130 shell pairs
          la=2 lb=2:    529 shell pairs

Calculating one electron integrals          ... done (  0.2 sec)
Calculating Nuclear repulsion               ... done (  0.0 sec) ENN=   6235.872220365481 Eh

SHARK setup successfully completed in   2.5 seconds

Maximum memory used throughout the entire GTOINT-calculation: 99.1 MB


           ************************************************************
           *        Program running with 16 parallel MPI-processes    *
           *              working on a common directory               *
           ************************************************************
-------------------------------------------------------------------------------
                                 ORCA SCF
-------------------------------------------------------------------------------

------------
SCF SETTINGS
------------
Hamiltonian:
 Ab initio Hamiltonian  Method          .... Hartree-Fock(GTOs)


General Settings:
 Integral files         IntName         .... /scratch/allen/tmpyp4_amber_gaff2/conf1/conf1/Conf182.orca
 Hartree-Fock type      HFTyp           .... RHF
 Total Charge           Charge          ....    0
 Multiplicity           Mult            ....    1
 Number of Electrons    NEL             ....  358
 Basis Dimension        Dim             ....  918
 Nuclear Repulsion      ENuc            ....   6235.8722203655 Eh

Convergence Acceleration:
 DIIS                   CNVDIIS         .... on
   Start iteration      DIISMaxIt       ....    12
   Startup error        DIISStart       ....  0.200000
   # of expansion vecs  DIISMaxEq       ....     5
   Bias factor          DIISBfac        ....   1.050
   Max. coefficient     DIISMaxC        ....  10.000
 Trust-Rad. Augm. Hess. CNVTRAH         .... auto
   Auto Start mean grad. ratio tolernc. ....  1.125000
   Auto Start start iteration           ....    20
   Auto Start num. interpolation iter.  ....    10
   Max. Number of Micro iterations      ....    16
   Max. Number of Macro iterations      .... Maxiter - #DIIS iter
   Number of Davidson start vectors     ....     2
   Converg. threshold I  (grad. norm)   ....   1.000e-05
   Converg. threshold II (energy diff.) ....   1.000e-08
   Grad. Scal. Fac. for Micro threshold ....   0.100
   Minimum threshold for Micro iter.    ....   0.010
   NR start threshold (gradient norm)   ....   0.001
   Initial trust radius                 ....   0.400
   Minimum AH scaling param. (alpha)    ....   1.000
   Maximum AH scaling param. (alpha)    .... 1000.000
   Orbital update algorithm             .... Taylor
   White noise on init. David. guess    .... on
   Maximum white noise                  ....   0.010
   Quad. conv. algorithm                .... NR
 SOSCF                  CNVSOSCF        .... on
   Start iteration      SOSCFMaxIt      ....   150
   Startup grad/error   SOSCFStart      ....  0.003300
 Level Shifting         CNVShift        .... on
   Level shift para.    LevelShift      ....    0.2500
   Turn off err/grad.   ShiftErr        ....    0.0010
 Zerner damping         CNVZerner       .... off
 Static damping         CNVDamp         .... on
   Fraction old density DampFac         ....    0.7000
   Max. Damping (<1)    DampMax         ....    0.9800
   Min. Damping (>=0)   DampMin         ....    0.0000
   Turn off err/grad.   DampErr         ....    0.1000
 Fernandez-Rico         CNVRico         .... off

SCF Procedure:
 Maximum # iterations   MaxIter         ....   125
 SCF integral mode      SCFMode         .... Direct
   Integral package                     .... SHARK and LIBINT hybrid scheme
 Reset frequency        DirectResetFreq ....    20
 Integral Threshold     Thresh          ....  2.500e-11 Eh
 Primitive CutOff       TCut            ....  2.500e-12 Eh

Convergence Tolerance:
 Convergence Check Mode ConvCheckMode   .... Total+1el-Energy
 Convergence forced     ConvForced      .... 1
 Energy Change          TolE            ....  1.000e-08 Eh
 1-El. energy change                    ....  1.000e-05 Eh
 Orbital Gradient       TolG            ....  1.000e-05
 Orbital Rotation angle TolX            ....  1.000e-05
 DIIS Error             TolErr          ....  5.000e-07


Diagonalization of the overlap matrix:
Smallest eigenvalue                        ... 1.599e-04
Time for diagonalization                   ...    0.443 sec
Threshold for overlap eigenvalues          ... 1.000e-08
Number of eigenvalues below threshold      ... 0
Time for construction of square roots      ...    0.268 sec
Total time needed                          ...    0.718 sec

Time for model grid setup =    1.295 sec

------------------------------
INITIAL GUESS: MODEL POTENTIAL
------------------------------
Loading Hartree-Fock densities                     ... done
Calculating cut-offs                               ... done
Initializing the effective Hamiltonian             ... done
Setting up the integral package (SHARK)            ... done
Starting the Coulomb interaction                   ... done (   1.4 sec)
Reading the grid                                   ... done
Mapping shells                                     ... done
Starting the XC term evaluation                    ... done (   0.2 sec)
Transforming the Hamiltonian                       ... done (   0.3 sec)
Diagonalizing the Hamiltonian                      ... done (   0.4 sec)
Back transforming the eigenvectors                 ... done (   0.1 sec)
Now organizing SCF variables                       ... done
                      ------------------
                      INITIAL GUESS DONE (   3.8 sec)
                      ------------------
--------------
SCF ITERATIONS
--------------
ITER       Energy         Delta-E        Max-DP      RMS-DP      [F,P]     Damp
               ***  Starting incremental Fock matrix formation  ***
  0  -2121.5494976323   0.000000000000 0.07951075  0.00130561  0.2310186 0.7000
  1  -2122.1868459023  -0.637348269987 0.06048018  0.00104833  0.1434281 0.7000
                               ***Turning on DIIS***
  2  -2122.5854083028  -0.398562400498 0.14200575  0.00239635  0.0803403 0.0000
  3  -2118.0592016651   4.526206637724 0.06692528  0.00066218  0.0433684 0.0000
  4  -2123.2942122441  -5.235010578981 0.02218076  0.00022536  0.0094238 0.0000
  5  -2123.4121042688  -0.117892024731 0.00980534  0.00013114  0.0048027 0.0000
  6  -2123.3960314009   0.016072867942 0.00533504  0.00008227  0.0022826 0.0000
  7  -2123.4876005286  -0.091569127688 0.00315705  0.00006433  0.0016511 0.0000
  8  -2123.4928731515  -0.005272622915 0.00336501  0.00006168  0.0015487 0.0000
  9  -2123.4672887039   0.025584447545 0.00271395  0.00004446  0.0012486 0.0000
 10  -2123.4744551020  -0.007166398051 0.00549538  0.00009400  0.0009820 0.0000
                      *** Initiating the SOSCF procedure ***
                           *** Shutting down DIIS ***
                      *** Re-Reading the Fockian *** 
                      *** Removing any level shift *** 
ITER      Energy       Delta-E        Grad      Rot      Max-DP    RMS-DP
 11  -2123.36919512   0.1052599860  0.000191  0.000191  0.000251  0.000005
               *** Restarting incremental Fock matrix formation ***
 12  -2123.43477524  -0.0655801232  0.000956  0.006398  0.001534  0.000034
 13  -2123.43488738  -0.0001121383  0.001157  0.031683  0.007019  0.000134
 14  -2123.43507067  -0.0001832894  0.000412  0.002199  0.000648  0.000013
 15  -2123.43508587  -0.0000152041  0.000168  0.001915  0.000467  0.000012
 16  -2123.43509191  -0.0000060350  0.000131  0.001988  0.000518  0.000008
 17  -2123.43509435  -0.0000024435  0.000114  0.001672  0.000274  0.000006
 18  -2123.43509536  -0.0000010083  0.000055  0.000790  0.000197  0.000003
 19  -2123.43509595  -0.0000005885  0.000041  0.001310  0.000214  0.000005
 20  -2123.43509632  -0.0000003719  0.000023  0.000744  0.000107  0.000002
 21  -2123.43509647  -0.0000001561  0.000025  0.000956  0.000137  0.000003
 22  -2123.43509663  -0.0000001549  0.000019  0.000960  0.000149  0.000003
 23  -2123.43509673  -0.0000001034  0.000014  0.000396  0.000068  0.000001
 24  -2123.43509677  -0.0000000411  0.000007  0.000301  0.000051  0.000001
 25  -2123.43509680  -0.0000000277  0.000007  0.000117  0.000036  0.000000
 26  -2123.43509682  -0.0000000139  0.000006  0.000073  0.000028  0.000000
                  ***Gradient check signals convergence***
              ***Rediagonalizing the Fockian in SOSCF/NRSCF***

               *****************************************************
               *                     SUCCESS                       *
               *           SCF CONVERGED AFTER  27 CYCLES          *
               *****************************************************


----------------
TOTAL SCF ENERGY
----------------

Total Energy       :        -2123.43509682 Eh          -57781.60654 eV

Components:
Nuclear Repulsion  :         6235.87222037 Eh          169686.70982 eV
Electronic Energy  :        -8359.30731718 Eh         -227468.31637 eV
One Electron Energy:       -15312.14079525 Eh         -416664.53385 eV
Two Electron Energy:         6952.83347807 Eh          189196.21749 eV

Virial components:
Potential Energy   :        -4246.10028294 Eh         -115542.26275 eV
Kinetic Energy     :         2122.66518612 Eh           57760.65621 eV
Virial Ratio       :            2.00036271


---------------
SCF CONVERGENCE
---------------

  Last Energy change         ...   -2.6339e-09  Tolerance :   1.0000e-08
  Last MAX-Density change    ...    1.8356e-05  Tolerance :   1.0000e-07
  Last RMS-Density change    ...    3.0140e-07  Tolerance :   5.0000e-09
  Last Orbital Gradient      ...    2.4873e-06  Tolerance :   1.0000e-05
  Last Orbital Rotation      ...    5.6014e-05  Tolerance :   1.0000e-05

             **** THE GBW FILE WAS UPDATED (/scratch/allen/tmpyp4_amber_gaff2/conf1/conf1/Conf182.orca.gbw) ****
             **** DENSITY /scratch/allen/tmpyp4_amber_gaff2/conf1/conf1/Conf182.orca.scfp WAS UPDATED ****
             **** ENERGY FILE WAS UPDATED (/scratch/allen/tmpyp4_amber_gaff2/conf1/conf1/Conf182.orca.en.tmp) ****
             **** THE GBW FILE WAS UPDATED (/scratch/allen/tmpyp4_amber_gaff2/conf1/conf1/Conf182.orca.gbw) ****
             **** DENSITY /scratch/allen/tmpyp4_amber_gaff2/conf1/conf1/Conf182.orca.scfp WAS UPDATED ****
----------------
ORBITAL ENERGIES
----------------

  NO   OCC          E(Eh)            E(eV) 
   0   2.0000     -15.679612      -426.6639 
   1   2.0000     -15.634005      -425.4229 
   2   2.0000     -15.631525      -425.3554 
   3   2.0000     -15.588163      -424.1755 
   4   2.0000     -15.524987      -422.4564 
   5   2.0000     -15.515366      -422.1946 
   6   2.0000     -15.453552      -420.5125 
   7   2.0000     -15.439475      -420.1295 
   8   2.0000     -11.329276      -308.2853 
   9   2.0000     -11.328168      -308.2551 
  10   2.0000     -11.327801      -308.2451 
  11   2.0000     -11.299361      -307.4712 
  12   2.0000     -11.298202      -307.4397 
  13   2.0000     -11.293049      -307.2995 
  14   2.0000     -11.290975      -307.2430 
  15   2.0000     -11.286555      -307.1228 
  16   2.0000     -11.286243      -307.1143 
  17   2.0000     -11.281863      -306.9951 
  18   2.0000     -11.269478      -306.6581 
  19   2.0000     -11.263160      -306.4862 
  20   2.0000     -11.262167      -306.4591 
  21   2.0000     -11.250189      -306.1332 
  22   2.0000     -11.248558      -306.0888 
  23   2.0000     -11.237771      -305.7953 
  24   2.0000     -11.236312      -305.7556 
  25   2.0000     -11.231169      -305.6156 
  26   2.0000     -11.230500      -305.5974 
  27   2.0000     -11.229529      -305.5710 
  28   2.0000     -11.229349      -305.5661 
  29   2.0000     -11.211049      -305.0681 
  30   2.0000     -11.209448      -305.0246 
  31   2.0000     -11.194200      -304.6097 
  32   2.0000     -11.192433      -304.5616 
  33   2.0000     -11.191033      -304.5235 
  34   2.0000     -11.188103      -304.4438 
  35   2.0000     -11.187870      -304.4374 
  36   2.0000     -11.186574      -304.4021 
  37   2.0000     -11.174509      -304.0739 
  38   2.0000     -11.172474      -304.0185 
  39   2.0000     -11.170653      -303.9689 
  40   2.0000     -11.169853      -303.9471 
  41   2.0000     -11.168439      -303.9087 
  42   2.0000     -11.166445      -303.8544 
  43   2.0000     -11.161502      -303.7199 
  44   2.0000     -11.161353      -303.7158 
  45   2.0000     -11.156582      -303.5860 
  46   2.0000     -11.156343      -303.5795 
  47   2.0000     -11.150606      -303.4234 
  48   2.0000     -11.147080      -303.3275 
  49   2.0000     -11.135929      -303.0240 
  50   2.0000     -11.130024      -302.8633 
  51   2.0000     -11.118235      -302.5425 
  52   2.0000      -1.360212       -37.0132 
  53   2.0000      -1.321250       -35.9530 
  54   2.0000      -1.319360       -35.9016 
  55   2.0000      -1.280178       -34.8354 
  56   2.0000      -1.226088       -33.3636 
  57   2.0000      -1.210354       -32.9354 
  58   2.0000      -1.173175       -31.9237 
  59   2.0000      -1.150885       -31.3172 
  60   2.0000      -1.143452       -31.1149 
  61   2.0000      -1.110313       -30.2132 
  62   2.0000      -1.108730       -30.1701 
  63   2.0000      -1.081894       -29.4398 
  64   2.0000      -1.077484       -29.3198 
  65   2.0000      -1.045439       -28.4478 
  66   2.0000      -1.044029       -28.4095 
  67   2.0000      -1.040933       -28.3252 
  68   2.0000      -1.015454       -27.6319 
  69   2.0000      -1.014766       -27.6132 
  70   2.0000      -1.009124       -27.4597 
  71   2.0000      -0.993480       -27.0340 
  72   2.0000      -0.985648       -26.8209 
  73   2.0000      -0.981786       -26.7158 
  74   2.0000      -0.974403       -26.5149 
  75   2.0000      -0.962090       -26.1798 
  76   2.0000      -0.954671       -25.9779 
  77   2.0000      -0.946981       -25.7687 
  78   2.0000      -0.939577       -25.5672 
  79   2.0000      -0.916683       -24.9442 
  80   2.0000      -0.910494       -24.7758 
  81   2.0000      -0.898772       -24.4568 
  82   2.0000      -0.877432       -23.8761 
  83   2.0000      -0.872310       -23.7368 
  84   2.0000      -0.870791       -23.6954 
  85   2.0000      -0.861904       -23.4536 
  86   2.0000      -0.845629       -23.0107 
  87   2.0000      -0.839347       -22.8398 
  88   2.0000      -0.829552       -22.5732 
  89   2.0000      -0.796295       -21.6683 
  90   2.0000      -0.789425       -21.4814 
  91   2.0000      -0.777072       -21.1452 
  92   2.0000      -0.752921       -20.4880 
  93   2.0000      -0.734465       -19.9858 
  94   2.0000      -0.729445       -19.8492 
  95   2.0000      -0.726877       -19.7793 
  96   2.0000      -0.720648       -19.6098 
  97   2.0000      -0.717822       -19.5329 
  98   2.0000      -0.714030       -19.4297 
  99   2.0000      -0.700154       -19.0522 
 100   2.0000      -0.698298       -19.0017 
 101   2.0000      -0.694628       -18.9018 
 102   2.0000      -0.685334       -18.6489 
 103   2.0000      -0.684174       -18.6173 
 104   2.0000      -0.678980       -18.4760 
 105   2.0000      -0.674372       -18.3506 
 106   2.0000      -0.672747       -18.3064 
 107   2.0000      -0.661083       -17.9890 
 108   2.0000      -0.658204       -17.9106 
 109   2.0000      -0.652925       -17.7670 
 110   2.0000      -0.651922       -17.7397 
 111   2.0000      -0.646104       -17.5814 
 112   2.0000      -0.645661       -17.5693 
 113   2.0000      -0.638266       -17.3681 
 114   2.0000      -0.635383       -17.2897 
 115   2.0000      -0.628743       -17.1090 
 116   2.0000      -0.623119       -16.9559 
 117   2.0000      -0.620706       -16.8903 
 118   2.0000      -0.612913       -16.6782 
 119   2.0000      -0.612308       -16.6617 
 120   2.0000      -0.611687       -16.6448 
 121   2.0000      -0.611173       -16.6309 
 122   2.0000      -0.601484       -16.3672 
 123   2.0000      -0.589523       -16.0417 
 124   2.0000      -0.581699       -15.8288 
 125   2.0000      -0.580658       -15.8005 
 126   2.0000      -0.580334       -15.7917 
 127   2.0000      -0.570926       -15.5357 
 128   2.0000      -0.566444       -15.4137 
 129   2.0000      -0.559824       -15.2336 
 130   2.0000      -0.556131       -15.1331 
 131   2.0000      -0.547646       -14.9022 
 132   2.0000      -0.542679       -14.7670 
 133   2.0000      -0.540254       -14.7011 
 134   2.0000      -0.538838       -14.6625 
 135   2.0000      -0.535970       -14.5845 
 136   2.0000      -0.532012       -14.4768 
 137   2.0000      -0.517994       -14.0953 
 138   2.0000      -0.516786       -14.0625 
 139   2.0000      -0.514028       -13.9874 
 140   2.0000      -0.511660       -13.9230 
 141   2.0000      -0.510063       -13.8795 
 142   2.0000      -0.507345       -13.8056 
 143   2.0000      -0.505784       -13.7631 
 144   2.0000      -0.502111       -13.6631 
 145   2.0000      -0.495639       -13.4870 
 146   2.0000      -0.488422       -13.2906 
 147   2.0000      -0.481297       -13.0968 
 148   2.0000      -0.476190       -12.9578 
 149   2.0000      -0.467644       -12.7252 
 150   2.0000      -0.466079       -12.6827 
 151   2.0000      -0.455990       -12.4081 
 152   2.0000      -0.451186       -12.2774 
 153   2.0000      -0.445285       -12.1168 
 154   2.0000      -0.438074       -11.9206 
 155   2.0000      -0.427874       -11.6430 
 156   2.0000      -0.408970       -11.1286 
 157   2.0000      -0.390827       -10.6349 
 158   2.0000      -0.387613       -10.5475 
 159   2.0000      -0.382647       -10.4123 
 160   2.0000      -0.378208       -10.2916 
 161   2.0000      -0.373125       -10.1532 
 162   2.0000      -0.358412        -9.7529 
 163   2.0000      -0.356677        -9.7057 
 164   2.0000      -0.355645        -9.6776 
 165   2.0000      -0.341566        -9.2945 
 166   2.0000      -0.337493        -9.1836 
 167   2.0000      -0.324806        -8.8384 
 168   2.0000      -0.321644        -8.7524 
 169   2.0000      -0.305308        -8.3079 
 170   2.0000      -0.299189        -8.1414 
 171   2.0000      -0.286148        -7.7865 
 172   2.0000      -0.278127        -7.5682 
 173   2.0000      -0.263258        -7.1636 
 174   2.0000      -0.242353        -6.5948 
 175   2.0000      -0.189987        -5.1698 
 176   2.0000      -0.181449        -4.9375 
 177   2.0000      -0.080271        -2.1843 
 178   2.0000      -0.059615        -1.6222 
 179   0.0000       0.028518         0.7760 
 180   0.0000       0.065476         1.7817 
 181   0.0000       0.090335         2.4582 
 182   0.0000       0.106405         2.8954 
 183   0.0000       0.117202         3.1892 
 184   0.0000       0.136976         3.7273 
 185   0.0000       0.139641         3.7998 
 186   0.0000       0.141067         3.8386 
 187   0.0000       0.164536         4.4772 
 188   0.0000       0.165117         4.4931 
 189   0.0000       0.165814         4.5120 
 190   0.0000       0.175335         4.7711 
 191   0.0000       0.180490         4.9114 
 192   0.0000       0.183918         5.0047 
 193   0.0000       0.189159         5.1473 
 194   0.0000       0.204809         5.5731 
 195   0.0000       0.205711         5.5977 
 196   0.0000       0.208183         5.6650 
 197   0.0000       0.208796         5.6816 
 198   0.0000       0.216670         5.8959 
 199   0.0000       0.228501         6.2178 
 200   0.0000       0.232847         6.3361 
 201   0.0000       0.233926         6.3654 
 202   0.0000       0.238971         6.5027 
 203   0.0000       0.239852         6.5267 
 204   0.0000       0.246292         6.7020 
 205   0.0000       0.255125         6.9423 
 206   0.0000       0.256421         6.9776 
 207   0.0000       0.257385         7.0038 
 208   0.0000       0.259402         7.0587 
 209   0.0000       0.260896         7.0993 
 210   0.0000       0.264435         7.1956 
 211   0.0000       0.266967         7.2646 
 212   0.0000       0.268851         7.3158 
 213   0.0000       0.269632         7.3370 
 214   0.0000       0.272830         7.4241 
 215   0.0000       0.276521         7.5245 
 216   0.0000       0.278973         7.5912 
 217   0.0000       0.282518         7.6877 
 218   0.0000       0.285453         7.7676 
 219   0.0000       0.288074         7.8389 
 220   0.0000       0.288809         7.8589 
 221   0.0000       0.293135         7.9766 
 222   0.0000       0.294945         8.0259 
 223   0.0000       0.296686         8.0732 
 224   0.0000       0.297602         8.0982 
 225   0.0000       0.302015         8.2183 
 226   0.0000       0.305873         8.3232 
 227   0.0000       0.307470         8.3667 
 228   0.0000       0.321720         8.7545 
 229   0.0000       0.324955         8.8425 
 230   0.0000       0.328094         8.9279 
 231   0.0000       0.334699         9.1076 
 232   0.0000       0.343145         9.3375 
 233   0.0000       0.357170         9.7191 
 234   0.0000       0.371762        10.1162 
 235   0.0000       0.374751        10.1975 
 236   0.0000       0.390396        10.6232 
 237   0.0000       0.391908        10.6644 
 238   0.0000       0.398473        10.8430 
 239   0.0000       0.402244        10.9456 
 240   0.0000       0.411084        11.1862 
 241   0.0000       0.412108        11.2140 
 242   0.0000       0.416202        11.3254 
 243   0.0000       0.424140        11.5414 
 244   0.0000       0.429682        11.6922 
 245   0.0000       0.434666        11.8279 
 246   0.0000       0.438919        11.9436 
 247   0.0000       0.440687        11.9917 
 248   0.0000       0.441588        12.0162 
 249   0.0000       0.445168        12.1136 
 250   0.0000       0.447999        12.1907 
 251   0.0000       0.457632        12.4528 
 252   0.0000       0.464900        12.6506 
 253   0.0000       0.469754        12.7827 
 254   0.0000       0.472120        12.8470 
 255   0.0000       0.474753        12.9187 
 256   0.0000       0.476699        12.9716 
 257   0.0000       0.487241        13.2585 
 258   0.0000       0.488974        13.3057 
 259   0.0000       0.494700        13.4615 
 260   0.0000       0.504080        13.7167 
 261   0.0000       0.505162        13.7462 
 262   0.0000       0.505842        13.7647 
 263   0.0000       0.512412        13.9434 
 264   0.0000       0.515537        14.0285 
 265   0.0000       0.520024        14.1506 
 266   0.0000       0.526330        14.3222 
 267   0.0000       0.528630        14.3847 
 268   0.0000       0.535540        14.5728 
 269   0.0000       0.542553        14.7636 
 270   0.0000       0.553660        15.0659 
 271   0.0000       0.556774        15.1506 
 272   0.0000       0.559366        15.2211 
 273   0.0000       0.563895        15.3444 
 274   0.0000       0.567541        15.4436 
 275   0.0000       0.573341        15.6014 
 276   0.0000       0.574240        15.6259 
 277   0.0000       0.581582        15.8256 
 278   0.0000       0.584129        15.8950 
 279   0.0000       0.586760        15.9665 
 280   0.0000       0.592962        16.1353 
 281   0.0000       0.593914        16.1612 
 282   0.0000       0.595201        16.1962 
 283   0.0000       0.597906        16.2698 
 284   0.0000       0.598811        16.2945 
 285   0.0000       0.602677        16.3997 
 286   0.0000       0.604547        16.4506 
 287   0.0000       0.611695        16.6451 
 288   0.0000       0.618205        16.8222 
 289   0.0000       0.623462        16.9653 
 290   0.0000       0.625845        17.0301 
 291   0.0000       0.631349        17.1799 
 292   0.0000       0.636208        17.3121 
 293   0.0000       0.640779        17.4365 
 294   0.0000       0.646960        17.6047 
 295   0.0000       0.652141        17.7457 
 296   0.0000       0.655845        17.8464 
 297   0.0000       0.659735        17.9523 
 298   0.0000       0.664178        18.0732 
 299   0.0000       0.665142        18.0994 
 300   0.0000       0.670953        18.2576 
 301   0.0000       0.675759        18.3883 
 302   0.0000       0.680476        18.5167 
 303   0.0000       0.682119        18.5614 
 304   0.0000       0.684701        18.6317 
 305   0.0000       0.689634        18.7659 
 306   0.0000       0.693395        18.8682 
 307   0.0000       0.694768        18.9056 
 308   0.0000       0.695236        18.9183 
 309   0.0000       0.701706        19.0944 
 310   0.0000       0.703305        19.1379 
 311   0.0000       0.705656        19.2019 
 312   0.0000       0.709752        19.3133 
 313   0.0000       0.710963        19.3463 
 314   0.0000       0.711275        19.3548 
 315   0.0000       0.715244        19.4628 
 316   0.0000       0.718081        19.5400 
 317   0.0000       0.719585        19.5809 
 318   0.0000       0.725145        19.7322 
 319   0.0000       0.727362        19.7925 
 320   0.0000       0.727828        19.8052 
 321   0.0000       0.728578        19.8256 
 322   0.0000       0.731710        19.9108 
 323   0.0000       0.735153        20.0045 
 324   0.0000       0.736055        20.0291 
 325   0.0000       0.739564        20.1246 
 326   0.0000       0.746067        20.3015 
 327   0.0000       0.748079        20.3563 
 328   0.0000       0.749834        20.4040 
 329   0.0000       0.752937        20.4884 
 330   0.0000       0.757428        20.6107 
 331   0.0000       0.758423        20.6377 
 332   0.0000       0.766123        20.8473 
 333   0.0000       0.767662        20.8891 
 334   0.0000       0.768748        20.9187 
 335   0.0000       0.774913        21.0865 
 336   0.0000       0.777079        21.1454 
 337   0.0000       0.781660        21.2701 
 338   0.0000       0.785730        21.3808 
 339   0.0000       0.790436        21.5089 
 340   0.0000       0.792801        21.5732 
 341   0.0000       0.793848        21.6017 
 342   0.0000       0.799788        21.7633 
 343   0.0000       0.802562        21.8388 
 344   0.0000       0.807268        21.9669 
 345   0.0000       0.809577        22.0297 
 346   0.0000       0.810784        22.0626 
 347   0.0000       0.815086        22.1796 
 348   0.0000       0.816208        22.2102 
 349   0.0000       0.817480        22.2448 
 350   0.0000       0.821034        22.3415 
 351   0.0000       0.822657        22.3856 
 352   0.0000       0.823532        22.4094 
 353   0.0000       0.828052        22.5324 
 354   0.0000       0.831571        22.6282 
 355   0.0000       0.832280        22.6475 
 356   0.0000       0.835305        22.7298 
 357   0.0000       0.837104        22.7788 
 358   0.0000       0.838359        22.8129 
 359   0.0000       0.839221        22.8364 
 360   0.0000       0.842746        22.9323 
 361   0.0000       0.843496        22.9527 
 362   0.0000       0.847285        23.0558 
 363   0.0000       0.851581        23.1727 
 364   0.0000       0.852466        23.1968 
 365   0.0000       0.857328        23.3291 
 366   0.0000       0.861602        23.4454 
 367   0.0000       0.864469        23.5234 
 368   0.0000       0.868019        23.6200 
 369   0.0000       0.868927        23.6447 
 370   0.0000       0.871851        23.7243 
 371   0.0000       0.875156        23.8142 
 372   0.0000       0.877431        23.8761 
 373   0.0000       0.877932        23.8897 
 374   0.0000       0.880468        23.9588 
 375   0.0000       0.884944        24.0805 
 376   0.0000       0.890331        24.2271 
 377   0.0000       0.892545        24.2874 
 378   0.0000       0.892946        24.2983 
 379   0.0000       0.895903        24.3788 
 380   0.0000       0.897049        24.4099 
 381   0.0000       0.899217        24.4689 
 382   0.0000       0.901419        24.5289 
 383   0.0000       0.902484        24.5579 
 384   0.0000       0.906580        24.6693 
 385   0.0000       0.908281        24.7156 
 386   0.0000       0.910064        24.7641 
 387   0.0000       0.915505        24.9122 
 388   0.0000       0.916375        24.9358 
 389   0.0000       0.919860        25.0307 
 390   0.0000       0.923929        25.1414 
 391   0.0000       0.927351        25.2345 
 392   0.0000       0.928656        25.2700 
 393   0.0000       0.929436        25.2913 
 394   0.0000       0.930942        25.3322 
 395   0.0000       0.936532        25.4843 
 396   0.0000       0.937966        25.5233 
 397   0.0000       0.941784        25.6272 
 398   0.0000       0.947745        25.7894 
 399   0.0000       0.949622        25.8405 
 400   0.0000       0.950800        25.8726 
 401   0.0000       0.954076        25.9617 
 402   0.0000       0.956138        26.0178 
 403   0.0000       0.958585        26.0844 
 404   0.0000       0.962339        26.1866 
 405   0.0000       0.963914        26.2294 
 406   0.0000       0.971544        26.4371 
 407   0.0000       0.981049        26.6957 
 408   0.0000       0.981558        26.7096 
 409   0.0000       0.986967        26.8567 
 410   0.0000       0.990141        26.9431 
 411   0.0000       0.994716        27.0676 
 412   0.0000       0.999583        27.2000 
 413   0.0000       1.007743        27.4221 
 414   0.0000       1.014475        27.6053 
 415   0.0000       1.016365        27.6567 
 416   0.0000       1.019272        27.7358 
 417   0.0000       1.025996        27.9188 
 418   0.0000       1.031292        28.0629 
 419   0.0000       1.034251        28.1434 
 420   0.0000       1.038382        28.2558 
 421   0.0000       1.044417        28.4200 
 422   0.0000       1.052823        28.6488 
 423   0.0000       1.056391        28.7459 
 424   0.0000       1.059917        28.8418 
 425   0.0000       1.073857        29.2211 
 426   0.0000       1.077461        29.3192 
 427   0.0000       1.080087        29.3907 
 428   0.0000       1.080267        29.3956 
 429   0.0000       1.086378        29.5619 
 430   0.0000       1.089207        29.6388 
 431   0.0000       1.095505        29.8102 
 432   0.0000       1.101482        29.9729 
 433   0.0000       1.104479        30.0544 
 434   0.0000       1.112537        30.2737 
 435   0.0000       1.113541        30.3010 
 436   0.0000       1.114281        30.3211 
 437   0.0000       1.116585        30.3838 
 438   0.0000       1.123071        30.5603 
 439   0.0000       1.124530        30.6000 
 440   0.0000       1.128131        30.6980 
 441   0.0000       1.130018        30.7494 
 442   0.0000       1.134141        30.8615 
 443   0.0000       1.137384        30.9498 
 444   0.0000       1.139655        31.0116 
 445   0.0000       1.145268        31.1643 
 446   0.0000       1.148468        31.2514 
 447   0.0000       1.152263        31.3547 
 448   0.0000       1.155715        31.4486 
 449   0.0000       1.157556        31.4987 
 450   0.0000       1.160161        31.5696 
 451   0.0000       1.166189        31.7336 
 452   0.0000       1.168133        31.7865 
 453   0.0000       1.170905        31.8619 
 454   0.0000       1.173536        31.9335 
 455   0.0000       1.181390        32.1472 
 456   0.0000       1.184556        32.2334 
 457   0.0000       1.195839        32.5404 
 458   0.0000       1.200028        32.6544 
 459   0.0000       1.201837        32.7037 
 460   0.0000       1.202273        32.7155 
 461   0.0000       1.207720        32.8637 
 462   0.0000       1.211239        32.9595 
 463   0.0000       1.214271        33.0420 
 464   0.0000       1.214899        33.0591 
 465   0.0000       1.216823        33.1114 
 466   0.0000       1.222786        33.2737 
 467   0.0000       1.229660        33.4607 
 468   0.0000       1.230126        33.4734 
 469   0.0000       1.234284        33.5866 
 470   0.0000       1.237829        33.6830 
 471   0.0000       1.240935        33.7676 
 472   0.0000       1.244960        33.8771 
 473   0.0000       1.246366        33.9154 
 474   0.0000       1.249346        33.9964 
 475   0.0000       1.250843        34.0372 
 476   0.0000       1.252682        34.0872 
 477   0.0000       1.256654        34.1953 
 478   0.0000       1.260343        34.2957 
 479   0.0000       1.263040        34.3691 
 480   0.0000       1.267938        34.5023 
 481   0.0000       1.270295        34.5665 
 482   0.0000       1.272724        34.6326 
 483   0.0000       1.276857        34.7451 
 484   0.0000       1.282114        34.8881 
 485   0.0000       1.286524        35.0081 
 486   0.0000       1.288871        35.0720 
 487   0.0000       1.291108        35.1328 
 488   0.0000       1.295496        35.2522 
 489   0.0000       1.297653        35.3109 
 490   0.0000       1.301747        35.4223 
 491   0.0000       1.305939        35.5364 
 492   0.0000       1.310347        35.6564 
 493   0.0000       1.311963        35.7003 
 494   0.0000       1.317160        35.8417 
 495   0.0000       1.320546        35.9339 
 496   0.0000       1.323711        36.0200 
 497   0.0000       1.328215        36.1426 
 498   0.0000       1.334398        36.3108 
 499   0.0000       1.336588        36.3704 
 500   0.0000       1.337960        36.4078 
 501   0.0000       1.340301        36.4714 
 502   0.0000       1.342577        36.5334 
 503   0.0000       1.345253        36.6062 
 504   0.0000       1.348771        36.7019 
 505   0.0000       1.350154        36.7395 
 506   0.0000       1.354030        36.8450 
 507   0.0000       1.356840        36.9215 
 508   0.0000       1.360446        37.0196 
 509   0.0000       1.363862        37.1126 
 510   0.0000       1.369936        37.2779 
[...]
      px      :     0.043613
      py      :     0.014047
 77 H s       :     0.884480  s :     0.884480
      pz      :     0.047980  p :     0.079295
      px      :     0.015024
      py      :     0.016291
 78 H s       :     0.884830  s :     0.884830
      pz      :     0.025885  p :     0.079265
      px      :     0.020454
      py      :     0.032926
 79 H s       :     0.910801  s :     0.910801
      pz      :     0.021814  p :     0.086309
      px      :     0.021655
      py      :     0.042841
 80 H s       :     0.864359  s :     0.864359
      pz      :     0.039393  p :     0.084838
      px      :     0.030292
      py      :     0.015153
 81 H s       :     0.886831  s :     0.886831
      pz      :     0.037825  p :     0.084133
      px      :     0.016185
      py      :     0.030123
 82 H s       :     0.916126  s :     0.916126
      pz      :     0.021971  p :     0.086730
      px      :     0.031650
      py      :     0.033109
 83 H s       :     0.873420  s :     0.873420
      pz      :     0.039274  p :     0.084104
      px      :     0.015276
      py      :     0.029554
 84 H s       :     0.886700  s :     0.886700
      pz      :     0.035767  p :     0.083426
      px      :     0.031695
      py      :     0.015964
 85 H s       :     0.892874  s :     0.892874
      pz      :     0.022490  p :     0.079784
      px      :     0.014070
      py      :     0.043224
 86 H s       :     0.891005  s :     0.891005
      pz      :     0.024730  p :     0.078827
      px      :     0.032980
      py      :     0.021118
 87 H s       :     0.889850  s :     0.889850
      pz      :     0.048018  p :     0.078741
      px      :     0.015586
      py      :     0.015137
 88 H s       :     0.910572  s :     0.910572
      pz      :     0.021616  p :     0.087013
      px      :     0.042938
      py      :     0.022459
 89 H s       :     0.871096  s :     0.871096
      pz      :     0.037959  p :     0.083855
      px      :     0.030506
      py      :     0.015390


                      *****************************
                      * MAYER POPULATION ANALYSIS *
                      *****************************

  NA   - Mulliken gross atomic population
  ZA   - Total nuclear charge
  QA   - Mulliken gross atomic charge
  VA   - Mayer's total valence
  BVA  - Mayer's bonded valence
  FA   - Mayer's free valence

  ATOM       NA         ZA         QA         VA         BVA        FA
  0 C      5.7747     6.0000     0.2253     3.8519     3.8519    -0.0000
  1 N      7.4547     7.0000    -0.4547     3.3534     3.3534    -0.0000
  2 C      6.0635     6.0000    -0.0635     3.9235     3.9235    -0.0000
  3 N      7.3408     7.0000    -0.3408     3.4550     3.4550    -0.0000
  4 C      6.1421     6.0000    -0.1421     4.2052     4.2052     0.0000
  5 N      7.5690     7.0000    -0.5690     3.0962     3.0962    -0.0000
  6 C      6.0978     6.0000    -0.0978     3.9375     3.9375    -0.0000
  7 N      7.3411     7.0000    -0.3411     3.4322     3.4322    -0.0000
  8 C      5.7722     6.0000     0.2278     3.8555     3.8555     0.0000
  9 N      7.5625     7.0000    -0.5625     3.0770     3.0770    -0.0000
 10 C      5.8804     6.0000     0.1196     3.9090     3.9090     0.0000
 11 N      7.4384     7.0000    -0.4384     3.3782     3.3782    -0.0000
 12 C      6.0601     6.0000    -0.0601     3.7990     3.7990    -0.0000
 13 N      7.4294     7.0000    -0.4294     3.4284     3.4284     0.0000
 14 C      5.7888     6.0000     0.2112     3.8235     3.8235    -0.0000
 15 N      7.4410     7.0000    -0.4410     3.3722     3.3722    -0.0000
 16 C      5.7647     6.0000     0.2353     3.7791     3.7791     0.0000
 17 C      6.0957     6.0000    -0.0957     3.9248     3.9248    -0.0000
 18 C      6.1770     6.0000    -0.1770     3.7433     3.7433    -0.0000
 19 C      5.7896     6.0000     0.2104     3.8898     3.8898    -0.0000
 20 C      5.7862     6.0000     0.2138     3.8291     3.8291     0.0000
 21 C      6.0582     6.0000    -0.0582     3.7841     3.7841    -0.0000
 22 C      6.0904     6.0000    -0.0904     3.9823     3.9823     0.0000
 23 C      6.0395     6.0000    -0.0395     3.9928     3.9928     0.0000
 24 C      5.8068     6.0000     0.1932     3.8210     3.8210    -0.0000
 25 C      5.8854     6.0000     0.1146     3.8916     3.8916     0.0000
 26 C      6.0820     6.0000    -0.0820     3.9089     3.9089    -0.0000
 27 C      5.7808     6.0000     0.2192     3.8626     3.8626    -0.0000
 28 C      6.0618     6.0000    -0.0618     3.9887     3.9887     0.0000
 29 C      6.1831     6.0000    -0.1831     3.7487     3.7487    -0.0000
 30 C      5.7547     6.0000     0.2453     3.7997     3.7997    -0.0000
 31 C      5.7696     6.0000     0.2304     3.8170     3.8170    -0.0000
 32 C      6.0612     6.0000    -0.0612     3.9235     3.9235    -0.0000
 33 C      6.0600     6.0000    -0.0600     3.9712     3.9712    -0.0000
 34 C      6.0511     6.0000    -0.0511     3.9833     3.9833    -0.0000
 35 C      5.7715     6.0000     0.2285     3.8164     3.8164     0.0000
 36 C      5.8918     6.0000     0.1082     3.8747     3.8747     0.0000
 37 C      6.0647     6.0000    -0.0647     3.9176     3.9176    -0.0000
 38 C      5.7685     6.0000     0.2315     3.8016     3.8016    -0.0000
 39 C      6.0577     6.0000    -0.0577     3.9830     3.9830     0.0000
 40 C      6.1820     6.0000    -0.1820     3.7259     3.7259     0.0000
 41 C      5.7741     6.0000     0.2259     3.8879     3.8879     0.0000
 42 C      5.8030     6.0000     0.1970     3.8256     3.8256     0.0000
 43 C      6.0729     6.0000    -0.0729     3.8998     3.8998     0.0000
 44 C      6.0897     6.0000    -0.0897     3.9849     3.9849    -0.0000
 45 C      6.0616     6.0000    -0.0616     3.9919     3.9919    -0.0000
 46 C      5.7884     6.0000     0.2116     3.8285     3.8285    -0.0000
 47 C      5.8846     6.0000     0.1154     3.8930     3.8930    -0.0000
 48 C      6.0665     6.0000    -0.0665     3.9096     3.9096     0.0000
 49 C      5.7625     6.0000     0.2375     3.8958     3.8958    -0.0000
 50 C      6.0461     6.0000    -0.0461     3.9904     3.9904     0.0000
 51 C      6.1928     6.0000    -0.1928     3.7388     3.7388    -0.0000
 52 H      0.9680     1.0000     0.0320     0.9859     0.9859    -0.0000
 53 H      1.0191     1.0000    -0.0191     0.9995     0.9995     0.0000
 54 H      0.9350     1.0000     0.0650     0.9269     0.9269     0.0000
 55 H      0.9699     1.0000     0.0301     0.9867     0.9867     0.0000
 56 H      0.9506     1.0000     0.0494     0.9695     0.9695     0.0000
 57 H      0.9531     1.0000     0.0469     0.9823     0.9823    -0.0000
 58 H      0.9531     1.0000     0.0469     0.9846     0.9846     0.0000
 59 H      1.0200     1.0000    -0.0200     0.9615     0.9615     0.0000
 60 H      0.9298     1.0000     0.0702     0.9451     0.9451    -0.0000
 61 H      0.8291     1.0000     0.1709     1.0425     1.0425    -0.0000
 62 H      0.8245     1.0000     0.1755     1.0438     1.0438    -0.0000
 63 H      0.9447     1.0000     0.0553     0.9852     0.9852     0.0000
 64 H      1.0438     1.0000    -0.0438     0.9685     0.9685     0.0000
 65 H      0.9532     1.0000     0.0468     1.0101     1.0101     0.0000
 66 H      0.9445     1.0000     0.0555     0.9855     0.9855     0.0000
 67 H      0.9376     1.0000     0.0624     0.9719     0.9719    -0.0000
 68 H      0.9428     1.0000     0.0572     0.9868     0.9868     0.0000
 69 H      0.9436     1.0000     0.0564     0.9828     0.9828    -0.0000
 70 H      1.0310     1.0000    -0.0310     0.9943     0.9943    -0.0000
 71 H      0.9551     1.0000     0.0449     1.0058     1.0058     0.0000
 72 H      0.9286     1.0000     0.0714     0.9835     0.9835     0.0000
 73 H      1.0080     1.0000    -0.0080     1.0009     1.0009     0.0000
 74 H      0.9395     1.0000     0.0605     1.0101     1.0101    -0.0000
 75 H      0.9291     1.0000     0.0709     0.9838     0.9838     0.0000
 76 H      0.9249     1.0000     0.0751     0.9721     0.9721     0.0000
 77 H      0.9319     1.0000     0.0681     0.9855     0.9855     0.0000
 78 H      0.9326     1.0000     0.0674     0.9854     0.9854     0.0000
 79 H      1.0167     1.0000    -0.0167     0.9975     0.9975     0.0000
 80 H      0.9386     1.0000     0.0614     1.0072     1.0072     0.0000
 81 H      0.9457     1.0000     0.0543     0.9856     0.9856     0.0000
 82 H      1.0251     1.0000    -0.0251     0.9934     0.9934    -0.0000
 83 H      0.9581     1.0000     0.0419     1.0083     1.0083     0.0000
 84 H      0.9459     1.0000     0.0541     0.9852     0.9852    -0.0000
 85 H      0.9392     1.0000     0.0608     0.9716     0.9716    -0.0000
 86 H      0.9445     1.0000     0.0555     0.9839     0.9839    -0.0000
 87 H      0.9428     1.0000     0.0572     0.9856     0.9856    -0.0000
 88 H      1.0145     1.0000    -0.0145     0.9968     0.9968     0.0000
 89 H      0.9531     1.0000     0.0469     1.0076     1.0076    -0.0000

  Mayer bond orders larger than 0.100000
B(  0-C ,  1-N ) :   1.0958 B(  0-C , 17-C ) :   1.7366 B(  0-C , 52-H ) :   0.9572 
B(  1-N ,  8-C ) :   1.1008 B(  1-N , 10-C ) :   0.9773 B(  2-C , 12-C ) :   1.4825 
B(  2-C , 16-C ) :   1.3823 B(  2-C , 53-H ) :   0.9697 B(  3-N , 14-C ) :   1.2279 
B(  3-N , 16-C ) :   1.1767 B(  3-N , 61-H ) :   0.8968 B(  4-C ,  6-C ) :   1.2321 
B(  4-C , 17-C ) :   1.2325 B(  4-C , 18-C ) :   1.4915 B(  5-N , 19-C ) :   1.4657 
B(  5-N , 27-C ) :   1.3668 B(  6-C ,  8-C ) :   1.7347 B(  6-C , 54-H ) :   0.8521 
B(  7-N , 30-C ) :   1.1945 B(  7-N , 38-C ) :   1.1901 B(  7-N , 62-H ) :   0.8967 
B(  8-C , 55-H ) :   0.9591 B(  9-N , 41-C ) :   1.3950 B(  9-N , 49-C ) :   1.4243 
B( 10-C , 56-H ) :   0.9777 B( 10-C , 57-H ) :   0.9825 B( 10-C , 58-H ) :   0.9835 
B( 11-N , 20-C ) :   1.1313 B( 11-N , 24-C ) :   1.1066 B( 11-N , 25-C ) :   0.9602 
B( 12-C , 14-C ) :   1.3657 B( 12-C , 59-H ) :   0.8934 B( 13-N , 31-C ) :   1.1618 
B( 13-N , 35-C ) :   1.1605 B( 13-N , 36-C ) :   0.9413 B( 14-C , 18-C ) :   1.1157 
B( 15-N , 42-C ) :   1.1073 B( 15-N , 46-C ) :   1.1245 B( 15-N , 47-C ) :   0.9614 
B( 16-C , 51-C ) :   1.1679 B( 17-C , 60-H ) :   0.8352 B( 18-C , 19-C ) :   1.1148 
B( 19-C , 21-C ) :   1.2545 B( 20-C , 28-C ) :   1.6286 B( 20-C , 63-H ) :   0.9702 
B( 21-C , 26-C ) :   1.5799 B( 21-C , 64-H ) :   0.8835 B( 22-C , 23-C ) :   1.2899 
B( 22-C , 28-C ) :   1.2637 B( 22-C , 29-C ) :   1.2260 B( 23-C , 24-C ) :   1.6198 
B( 23-C , 65-H ) :   0.9703 B( 24-C , 66-H ) :   0.9696 B( 25-C , 67-H ) :   0.9760 
B( 25-C , 68-H ) :   0.9828 B( 25-C , 69-H ) :   0.9823 B( 26-C , 27-C ) :   1.2678 
B( 26-C , 70-H ) :   0.9648 B( 27-C , 29-C ) :   1.2069 B( 28-C , 71-H ) :   0.9720 
B( 29-C , 30-C ) :   1.2472 B( 30-C , 32-C ) :   1.2786 B( 31-C , 39-C ) :   1.5876 
B( 31-C , 72-H ) :   0.9681 B( 32-C , 37-C ) :   1.5804 B( 32-C , 73-H ) :   0.9786 
B( 33-C , 34-C ) :   1.3071 B( 33-C , 39-C ) :   1.3041 B( 33-C , 40-C ) :   1.1762 
B( 34-C , 35-C ) :   1.5852 B( 34-C , 74-H ) :   0.9696 B( 35-C , 75-H ) :   0.9681 
B( 36-C , 76-H ) :   0.9768 B( 36-C , 77-H ) :   0.9816 B( 36-C , 78-H ) :   0.9823 
B( 37-C , 38-C ) :   1.2844 B( 37-C , 79-H ) :   0.9764 B( 38-C , 40-C ) :   1.2343 
B( 39-C , 80-H ) :   0.9705 B( 40-C , 41-C ) :   1.2498 B( 41-C , 43-C ) :   1.1847 
B( 42-C , 50-C ) :   1.6332 B( 42-C , 81-H ) :   0.9697 B( 43-C , 48-C ) :   1.6682 
B( 43-C , 82-H ) :   0.9721 B( 44-C , 45-C ) :   1.2631 B( 44-C , 50-C ) :   1.2724 
B( 44-C , 51-C ) :   1.2610 B( 45-C , 46-C ) :   1.6347 B( 45-C , 83-H ) :   0.9718 
B( 46-C , 84-H ) :   0.9700 B( 47-C , 85-H ) :   0.9762 B( 47-C , 86-H ) :   0.9829 
B( 47-C , 87-H ) :   0.9824 B( 48-C , 49-C ) :   1.1881 B( 48-C , 88-H ) :   0.9749 
B( 49-C , 51-C ) :   1.2460 B( 50-C , 89-H ) :   0.9708 B( 54-H , 59-H ) :   0.1209 
B( 60-H , 64-H ) :   0.1381 

-------
TIMINGS
-------

Total SCF time: 0 days 0 hours 27 min 45 sec 

Total time                  ....    1665.579 sec
Sum of individual times     ....    1660.935 sec  ( 99.7%)

Fock matrix formation       ....    1633.586 sec  ( 98.1%)
Diagonalization             ....       8.864 sec  (  0.5%)
Density matrix formation    ....       0.506 sec  (  0.0%)
Population analysis         ....       0.605 sec  (  0.0%)
Initial guess               ....       2.526 sec  (  0.2%)
Orbital Transformation      ....       0.000 sec  (  0.0%)
Orbital Orthonormalization  ....       0.000 sec  (  0.0%)
DIIS solution               ....       3.973 sec  (  0.2%)
SOSCF solution              ....       9.580 sec  (  0.6%)

Maximum memory used throughout the entire SCF-calculation: 302.7 MB


           ************************************************************
           *        Program running with 16 parallel MPI-processes    *
           *              working on a common directory               *
           ************************************************************

------------------------------------------------------------------------------
                                ORCA  MP2 
------------------------------------------------------------------------------

Freezing NCore=104 chemical core electrons

----------
MP2 ENERGY (disk based algorithm)
----------

Dimension of the basis                    ...  918
Memory devoted to MP2                     ... 2000 MB   
Data format for buffers                   ... DOUBLE
Compression type for matrix containers    ... UNCOMPRESSED

-------------------------------
PARTIAL EXCHANGE TRANSFORMATION
-------------------------------

Transformation type                        ... one-operator
Generation of integrals (i,mue|j,nue)      ... ON
Generation of integrals (mue,kappa|nue,tau)... OFF
Generation of integrals (i,mue|a,nue)      ... OFF
Dimension of the basis                     ...  918
Number of internal MOs                     ...  127 (  52- 178)
Pair cutoff                                ... 2.500e-12 Eh
Number of AO pairs in the trafo            ... 421821
Total Number of distinct AO pairs          ... 421821
Memory devoted for trafo                   ... 2000.0 MB 
Max. Number of MO pairs treated together   ...  311      
Number Format for Storage                  ... Double (8 Byte)
Integral package used                      ... LIBINT

Starting integral evaluation:
    ... done with AO integral generation
Closing buffer AOK     (38.09 GB; CompressionRatio= 1.33)
Collecting buffer AOK 
Number of MO pairs included in the trafo   ... 8128
------------------------
SORTING OF (i,mue|j,nue)
------------------------

IBATCH = 1 of  2
IBATCH = 2 of  2
Closing buffer KAO     (51.03 GB; CompressionRatio= 1.00)
Collecting buffer KAO 
N(AO-Batches) Done                         ...  86258788 
N(AO-Batches) Skipped                      ...  82248041 
N(IJ)-pairs Skipped                        ...         0 
TOTAL TIME for half transformation         ...  2758.296 sec
AO-integral generation                     ...   211.140 sec
Half transformation                        ...   424.963 sec
K-integral sorting                         ...  1899.401 sec
Process 10:   Internal MO 132
Process 13:   Internal MO 156
Process  1:   Internal MO  60

Finished integral transformation - now doing MP2 part

OPERATOR COMBINATION   0   0: ij=( 52..178, 52..178)
Process  4:   Internal MO  84
Process  7:   Internal MO 108
Process  0:   Internal MO  54
Process  2:   Internal MO  69
Process  0:   Internal MO  57
Process  1:   Internal MO  63
Process  3:   Internal MO  78
Process  8:   Internal MO 117
Process  1:   Internal MO  66
Process  2:   Internal MO  72
Process  6:   Internal MO 102
Process 14:   Internal MO 165
Process  4:   Internal MO  87
Process  5:   Internal MO  93
Process 11:   Internal MO 141
Process  9:   Internal MO 126
Process  2:   Internal MO  75
Process  3:   Internal MO  81
Process 12:   Internal MO 150
Process  7:   Internal MO 111
Process  4:   Internal MO  90
Process 10:   Internal MO 135
Process 15:   Internal MO 174
Process  6:   Internal MO 105
Process  5:   Internal MO  96
Process  8:   Internal MO 120
Process  9:   Internal MO 129
Process  5:   Internal MO  99
Process  7:   Internal MO 114
Process 13:   Internal MO 159
Process 11:   Internal MO 144
Process 14:   Internal MO 168
Process 12:   Internal MO 153
Process 10:   Internal MO 138
Process  8:   Internal MO 123
Process 15:   Internal MO 177
Process 11:   Internal MO 147
Process 13:   Internal MO 162
Process 14:   Internal MO 171
-----------------------------------------------
 MP2 CORRELATION ENERGY   :     -7.293977781 Eh
-----------------------------------------------


-------
TIMINGS
-------
Total time                : 3090.384 sec
Integral trafo            : 2760.562 sec ( 89.3%)
K(i,j)                    :    5.944 sec (  0.2%)
T(i,j)                    :    0.061 sec (  0.0%)

---------------------------------------
MP2 TOTAL ENERGY:    -2130.729074599 Eh
---------------------------------------

Maximum memory used throughout the entire MP2-calculation: 2275.3 MB

-------------------------   --------------------
FINAL SINGLE POINT ENERGY     -2130.729074598775
-------------------------   --------------------


                            ***************************************
                            *     ORCA property calculations      *
                            ***************************************


  WARNING: The energy has been calculated at the MP2 level but the densities
           used in the property calculations are still SCF densities
           MP2 response densities have not been calculated 
           use %mp2 Density relaxed end
           or  %mp2 Density unrelaxed end

                                    ---------------------
                                    Active property flags
                                    ---------------------
   (+) Dipole Moment


------------------------------------------------------------------------------
                       ORCA ELECTRIC PROPERTIES CALCULATION
------------------------------------------------------------------------------

Dipole Moment Calculation                       ... on
Quadrupole Moment Calculation                   ... off
Polarizability Calculation                      ... off
GBWName                                         ... /scratch/allen/tmpyp4_amber_gaff2/conf1/conf1/Conf182.orca.gbw
Electron density                                ... /scratch/allen/tmpyp4_amber_gaff2/conf1/conf1/Conf182.orca.scfp
The origin for moment calculation is the CENTER OF MASS  = ( 0.003287, -0.001801  0.000286)

-------------
DIPOLE MOMENT
-------------
                                X             Y             Z
Electronic contribution:      2.72154      -4.33915      -0.19582
Nuclear contribution   :      0.06469       0.22902       0.19813
                        -----------------------------------------
Total Dipole Moment    :      2.78623      -4.11013       0.00231
                        -----------------------------------------
Magnitude (a.u.)       :      4.96551
Magnitude (Debye)      :     12.62132



--------------------
Rotational spectrum 
--------------------
 
Rotational constants in cm-1:     0.001502     0.001480     0.000760 
Rotational constants in MHz :    45.014369    44.359786    22.780018 

 Dipole components along the rotational axes: 
x,y,z [a.u.] :     3.439644     3.581216     0.004003 
x,y,z [Debye]:     8.742881     9.102727     0.010176 

 

Timings for individual modules:

Sum of individual times         ...     4779.845 sec (=  79.664 min)
GTO integral calculation        ...        3.720 sec (=   0.062 min)   0.1 %
SCF iterations                  ...     1666.808 sec (=  27.780 min)  34.9 %
MP2 module                      ...     3109.317 sec (=  51.822 min)  65.1 %
                             ****ORCA TERMINATED NORMALLY****
TOTAL RUN TIME: 0 days 1 hours 19 minutes 43 seconds 121 msec
# of primitive gaussian functions

