
                                 *****************
                                 * O   R   C   A *
                                 *****************

                                            #,                                       
                                            ###                                      
                                            ####                                     
                                            #####                                    
                                            ######                                   
                                           ########,                                 
                                     ,,################,,,,,                         
                               ,,#################################,,                 
                          ,,##########################################,,             
                       ,#########################################, ''#####,          
                    ,#############################################,,   '####,        
                  ,##################################################,,,,####,       
                ,###########''''           ''''###############################       
              ,#####''   ,,,,##########,,,,          '''####'''          '####       
            ,##' ,,,,###########################,,,                        '##       
           ' ,,###''''                  '''############,,,                           
         ,,##''                                '''############,,,,        ,,,,,,###''
      ,#''                                            '''#######################'''  
     '                                                          ''''####''''         
             ,#######,   #######,   ,#######,      ##                                
            ,#'     '#,  ##    ##  ,#'     '#,    #''#        ######   ,####,        
            ##       ##  ##   ,#'  ##            #'  '#       #        #'  '#        
            ##       ##  #######   ##           ,######,      #####,   #    #        
            '#,     ,#'  ##    ##  '#,     ,#' ,#      #,         ##   #,  ,#        
             '#######'   ##     ##  '#######'  #'      '#     #####' # '####'        



                  #######################################################
                  #                        -***-                        #
                  #          Department of theory and spectroscopy      #
                  #    Directorship and core code : Frank Neese         #
                  #        Max Planck Institute fuer Kohlenforschung    #
                  #                Kaiser Wilhelm Platz 1               #
                  #                 D-45470 Muelheim/Ruhr               #
                  #                      Germany                        #
                  #                                                     #
                  #                  All rights reserved                #
                  #                        -***-                        #
                  #######################################################


                         Program Version 5.0.4 -  RELEASE  -


 With contributions from (in alphabetic order):
   Daniel Aravena         : Magnetic Suceptibility
   Michael Atanasov       : Ab Initio Ligand Field Theory (pilot matlab implementation)
   Alexander A. Auer      : GIAO ZORA, VPT2 properties, NMR spectrum
   Ute Becker             : Parallelization
   Giovanni Bistoni       : ED, misc. LED, open-shell LED, HFLD
   Martin Brehm           : Molecular dynamics
   Dmytro Bykov           : SCF Hessian
   Vijay G. Chilkuri      : MRCI spin determinant printing, contributions to CSF-ICE
   Dipayan Datta          : RHF DLPNO-CCSD density
   Achintya Kumar Dutta   : EOM-CC, STEOM-CC
   Dmitry Ganyushin       : Spin-Orbit,Spin-Spin,Magnetic field MRCI
   Miquel Garcia          : C-PCM and meta-GGA Hessian, CC/C-PCM, Gaussian charge scheme
   Yang Guo               : DLPNO-NEVPT2, F12-NEVPT2, CIM, IAO-localization
   Andreas Hansen         : Spin unrestricted coupled pair/coupled cluster methods
   Benjamin Helmich-Paris : MC-RPA, TRAH-SCF, COSX integrals
   Lee Huntington         : MR-EOM, pCC
   Robert Izsak           : Overlap fitted RIJCOSX, COSX-SCS-MP3, EOM
   Marcus Kettner         : VPT2
   Christian Kollmar      : KDIIS, OOCD, Brueckner-CCSD(T), CCSD density, CASPT2, CASPT2-K
   Simone Kossmann        : Meta GGA functionals, TD-DFT gradient, OOMP2, MP2 Hessian
   Martin Krupicka        : Initial AUTO-CI
   Lucas Lang             : DCDCAS
   Marvin Lechner         : AUTO-CI (C++ implementation), FIC-MRCC
   Dagmar Lenk            : GEPOL surface, SMD
   Dimitrios Liakos       : Extrapolation schemes; Compound Job, initial MDCI parallelization
   Dimitrios Manganas     : Further ROCIS development; embedding schemes
   Dimitrios Pantazis     : SARC Basis sets
   Anastasios Papadopoulos: AUTO-CI, single reference methods and gradients
   Taras Petrenko         : DFT Hessian,TD-DFT gradient, ASA, ECA, R-Raman, ABS, FL, XAS/XES, NRVS
   Peter Pinski           : DLPNO-MP2, DLPNO-MP2 Gradient
   Christoph Reimann      : Effective Core Potentials
   Marius Retegan         : Local ZFS, SOC
   Christoph Riplinger    : Optimizer, TS searches, QM/MM, DLPNO-CCSD(T), (RO)-DLPNO pert. Triples
   Tobias Risthaus        : Range-separated hybrids, TD-DFT gradient, RPA, STAB
   Michael Roemelt        : Original ROCIS implementation
   Masaaki Saitow         : Open-shell DLPNO-CCSD energy and density
   Barbara Sandhoefer     : DKH picture change effects
   Avijit Sen             : IP-ROCIS
   Kantharuban Sivalingam : CASSCF convergence, NEVPT2, FIC-MRCI
   Bernardo de Souza      : ESD, SOC TD-DFT
   Georgi Stoychev        : AutoAux, RI-MP2 NMR, DLPNO-MP2 response
   Willem Van den Heuvel  : Paramagnetic NMR
   Boris Wezisla          : Elementary symmetry handling
   Frank Wennmohs         : Technical directorship


 We gratefully acknowledge several colleagues who have allowed us to
 interface, adapt or use parts of their codes:
   Stefan Grimme, W. Hujo, H. Kruse, P. Pracht,  : VdW corrections, initial TS optimization,
                  C. Bannwarth, S. Ehlert          DFT functionals, gCP, sTDA/sTD-DF
   Ed Valeev, F. Pavosevic, A. Kumar             : LibInt (2-el integral package), F12 methods
   Garnet Chan, S. Sharma, J. Yang, R. Olivares  : DMRG
   Ulf Ekstrom                                   : XCFun DFT Library
   Mihaly Kallay                                 : mrcc  (arbitrary order and MRCC methods)
   Jiri Pittner, Ondrej Demel                    : Mk-CCSD
   Frank Weinhold                                : gennbo (NPA and NBO analysis)
   Christopher J. Cramer and Donald G. Truhlar   : smd solvation model
   Lars Goerigk                                  : TD-DFT with DH, B97 family of functionals
   V. Asgeirsson, H. Jonsson                     : NEB implementation
   FAccTs GmbH                                   : IRC, NEB, NEB-TS, DLPNO-Multilevel, CI-OPT
                                                   MM, QMMM, 2- and 3-layer-ONIOM, Crystal-QMMM,
                                                   LR-CPCM, SF, NACMEs, symmetry and pop. for TD-DFT,
                                                   nearIR, NL-DFT gradient (VV10), updates on ESD,
                                                   ML-optimized integration grids
   S Lehtola, MJT Oliveira, MAL Marques          : LibXC Library
   Liviu Ungur et al                             : ANISO software


 Your calculation uses the libint2 library for the computation of 2-el integrals
 For citations please refer to: http://libint.valeyev.net

 Your ORCA version has been built with support for libXC version: 5.1.0
 For citations please refer to: https://tddft.org/programs/libxc/

 This ORCA versions uses:
   CBLAS   interface :  Fast vector & matrix operations
   LAPACKE interface :  Fast linear algebra routines
   SCALAPACK package :  Parallel linear algebra routines
   Shared memory     :  Shared parallel matrices
   BLAS/LAPACK       :  OpenBLAS 0.3.15  USE64BITINT DYNAMIC_ARCH NO_AFFINITY Sandybridge SINGLE_THREADED
        Core in use  :  Sandybridge
   Copyright (c) 2011-2014, The OpenBLAS Project


================================================================================

----- Orbital basis set information -----
Your calculation utilizes the basis: cc-pVDZ 
       H, B-Ne : Obtained from the ccRepo (grant-hill.group.shef.ac.uk/ccrepo) Feb. 2017
                 T. H. Dunning, Jr., J. Chem. Phys. 90, 1007 (1989)
            He : Obtained from the ccRepo (grant-hill.group.shef.ac.uk/ccrepo) Feb. 2017
                 D. E. Woon, T. H. Dunning, Jr., J. Chem. Phys. 100, 2975 (1994)
  Li-Be, Na-Mg : Obtained from the ccRepo (grant-hill.group.shef.ac.uk/ccrepo) Feb. 2017
                 B. P. Prascher, D. E. Woon, K. A. Peterson, T. H. Dunning, Jr., A. K. Wilson, Theor. Chem. Acc. 128, 69 (2011)
         Al-Ar : Obtained from the ccRepo (grant-hill.group.shef.ac.uk/ccrepo) Feb. 2017
                 D. E. Woon, T. H. Dunning, Jr., J. Chem. Phys. 98, 1358 (1993)
            Ca : Obtained from the Peterson Research Group Website (tyr0.chem.wsu.edu/~kipeters) Feb. 2017
                 J. Koput, K. A. Peterson, J. Phys. Chem. 106, 9595 (2002)
         Sc-Zn : Obtained from the ccRepo (grant-hill.group.shef.ac.uk/ccrepo) Feb. 2017
                 N. B. Balabanov, K. A. Peterson, J. Chem. Phys. 123, 064107 (2005)
                 N. B. Balabanov, K. A. Peterson, J. Chem. Phys. 125, 074110 (2006)
         Ga-Kr : Obtained from the ccRepo (grant-hill.group.shef.ac.uk/ccrepo) Feb. 2017
                 A. K. Wilson, D. E. Woon, K. A. Peterson, T. H. Dunning, Jr., J. Chem. Phys. 110, 7667 (1999)

================================================================================
                                        WARNINGS
                       Please study these warnings very carefully!
================================================================================


WARNING: No MP2 level density has been requested!
         To caclulate MP2 level properties use
         %mp2 Density relaxed end
         or
         %mp2 Density unrelaxed end

WARNING: Post HF methods need fully converged wavefunctions
  ===> : Setting SCFConvForced true
         You can overwrite this default with %scf ConvForced false 


INFO   : the flag for use of the SHARK integral package has been found!

================================================================================
                                       INPUT FILE
================================================================================
NAME = /scratch/allen/tmpyp4_amber_gaff2/2.Mdgx/conf11/conf11/Conf165.orca
|  1> ! PAL2
|  2> ! mp2 cc-pvdz TightSCF  NoKeepInts
|  3> 
|  4> %scf
|  5>   MaxCore 2000
|  6> end
|  7> %mp2
|  8>   MaxCore 2000
|  9> end
| 10> * xyz 0 1
| 11>    C       -4.91200         5.21800        -0.27400
| 12>    C        1.47400         4.04100         0.05700
| 13>    C       -2.80200         4.09300         0.04900
| 14>    C       -2.25600         5.33300         0.41600
| 15>    C       -3.04800         6.46300         0.42900
| 16>    C       -5.18600         7.62000         0.14400
| 17>    C        0.13200         4.30700         0.06100
| 18>    C       -0.56900         3.05600         0.04700
| 19>    C        1.64900         2.61800         0.02300
| 20>    C       -4.16200         4.05900        -0.29700
| 21>    N       -4.35500         6.39700         0.08400
| 22>    N        0.38800         2.06700         0.02500
| 23>    N       -2.01000         0.39500        -0.07500
| 24>    N       -0.38800        -2.07400        -0.02700
| 25>    N        2.01000        -0.40100         0.06500
| 26>    C       -1.96000         2.86100         0.02400
| 27>    C       -2.62300         1.61500        -0.01800
| 28>    C       -5.57300        -4.32900         1.06600
| 29>    C       -4.07300         1.47100         0.05600
| 30>    C       -4.10600        -2.75600        -0.02600
| 31>    C       -4.99500        -2.75700        -1.11100
| 32>    C       -6.13200        -3.54200        -1.07600
| 33>    C       -7.65100        -5.11300         0.04000
| 34>    C       -4.32400         0.14100         0.03700
| 35>    C       -3.02500        -0.52000        -0.04800
| 36>    C       -4.42200        -3.56600         1.07500
| 37>    N       -6.40700        -4.31300         0.00100
| 38>    C       -2.86700        -1.92200        -0.04000
| 39>    C       -1.65000        -2.62400        -0.02700
| 40>    C        3.56800        -6.14200        -1.04000
| 41>    C       -1.47600        -4.04900        -0.03400
| 42>    C        2.80300        -4.09900        -0.00800
| 43>    C        3.65700        -4.38400         1.06900
| 44>    C        4.42700        -5.53000         1.05900
| 45>    C        5.24500        -7.58800         0.01400
| 46>    C       -0.13400        -4.31500        -0.02200
| 47>    C        0.56800        -3.06400        -0.02700
| 48>    C        2.77500        -5.01200        -1.07400
| 49>    N        4.37600        -6.39100         0.01700
| 50>    C        1.95900        -2.86900        -0.00900
| 51>    C        2.62100        -1.62200         0.00900
| 52>    C        5.54300         4.33900        -1.13000
| 53>    C        4.07000        -1.47900        -0.09400
| 54>    C        4.10400         2.75100        -0.02100
| 55>    C        5.02700         2.72900         1.03600
| 56>    C        6.16600         3.50900         0.97800
| 57>    C        7.61900         5.15300        -0.11500
| 58>    C        4.32100        -0.14800        -0.09200
| 59>    C        3.02500         0.51400         0.01500
| 60>    C        4.38700         3.58200        -1.11500
| 61>    C        2.86600         1.91600         0.01300
| 62>    N        6.41300         4.29600        -0.09500
| 63>    H       -5.96100         5.24100        -0.54500
| 64>    H        2.27400         4.76600         0.08100
| 65>    H       -1.21500         5.42200         0.70200
| 66>    H       -2.67400         7.43800         0.71300
| 67>    H       -5.56800         7.74000         1.16100
| 68>    H       -4.57000         8.47700        -0.12900
| 69>    H       -6.01400         7.51600        -0.55700
| 70>    H       -0.33200         5.28200         0.06900
| 71>    H       -4.63900         3.13500        -0.60300
| 72>    H        0.18200         1.07200         0.00500
| 73>    H       -0.18300        -1.08000        -0.02100
| 74>    H       -5.86400        -4.96200         1.89500
| 75>    H       -4.79400         2.27200         0.13900
| 76>    H       -4.80000        -2.16000        -1.99400
| 77>    H       -6.84100        -3.58200        -1.89300
| 78>    H       -8.42800        -4.53600         0.54600
| 79>    H       -7.95600        -5.33700        -0.98100
| 80>    H       -7.45600        -6.03700         0.58400
| 81>    H       -5.28700        -0.34400         0.10000
| 82>    H       -3.78000        -3.60100         1.94700
| 83>    H        3.58700        -6.86800        -1.84300
| 84>    H       -2.27600        -4.77400        -0.05000
| 85>    H        3.71400        -3.72400         1.92600
| 86>    H        5.09200        -5.79500         1.87100
| 87>    H        6.20500        -7.32900        -0.43900
| 88>    H        5.39300        -7.91700         1.04200
| 89>    H        4.75900        -8.37300        -0.56400
| 90>    H        0.32900        -5.29000        -0.00800
| 91>    H        2.14600        -4.84200        -1.94000
| 92>    H        5.80800         4.98600        -1.95600
| 93>    H        4.78800        -2.28100        -0.18500
| 94>    H        4.86000         2.11400         1.91200
| 95>    H        6.90100         3.53100         1.77200
| 96>    H        7.38300         6.10900         0.35600
| 97>    H        8.41400         4.65200         0.43500
| 98>    H        7.92100         5.31000        -1.15000
| 99>    H        5.28300         0.33600        -0.17900
|100>    H        3.72000         3.63200        -1.96700
|101> *
|102> 
|103>                          ****END OF INPUT****
================================================================================

                       ****************************
                       * Single Point Calculation *
                       ****************************

---------------------------------
CARTESIAN COORDINATES (ANGSTROEM)
---------------------------------
  C     -4.912000    5.218000   -0.274000
  C      1.474000    4.041000    0.057000
  C     -2.802000    4.093000    0.049000
  C     -2.256000    5.333000    0.416000
  C     -3.048000    6.463000    0.429000
  C     -5.186000    7.620000    0.144000
  C      0.132000    4.307000    0.061000
  C     -0.569000    3.056000    0.047000
  C      1.649000    2.618000    0.023000
  C     -4.162000    4.059000   -0.297000
  N     -4.355000    6.397000    0.084000
  N      0.388000    2.067000    0.025000
  N     -2.010000    0.395000   -0.075000
  N     -0.388000   -2.074000   -0.027000
  N      2.010000   -0.401000    0.065000
  C     -1.960000    2.861000    0.024000
  C     -2.623000    1.615000   -0.018000
  C     -5.573000   -4.329000    1.066000
  C     -4.073000    1.471000    0.056000
  C     -4.106000   -2.756000   -0.026000
  C     -4.995000   -2.757000   -1.111000
  C     -6.132000   -3.542000   -1.076000
  C     -7.651000   -5.113000    0.040000
  C     -4.324000    0.141000    0.037000
  C     -3.025000   -0.520000   -0.048000
  C     -4.422000   -3.566000    1.075000
  N     -6.407000   -4.313000    0.001000
  C     -2.867000   -1.922000   -0.040000
  C     -1.650000   -2.624000   -0.027000
  C      3.568000   -6.142000   -1.040000
  C     -1.476000   -4.049000   -0.034000
  C      2.803000   -4.099000   -0.008000
  C      3.657000   -4.384000    1.069000
  C      4.427000   -5.530000    1.059000
  C      5.245000   -7.588000    0.014000
  C     -0.134000   -4.315000   -0.022000
  C      0.568000   -3.064000   -0.027000
  C      2.775000   -5.012000   -1.074000
  N      4.376000   -6.391000    0.017000
  C      1.959000   -2.869000   -0.009000
  C      2.621000   -1.622000    0.009000
  C      5.543000    4.339000   -1.130000
  C      4.070000   -1.479000   -0.094000
  C      4.104000    2.751000   -0.021000
  C      5.027000    2.729000    1.036000
  C      6.166000    3.509000    0.978000
  C      7.619000    5.153000   -0.115000
  C      4.321000   -0.148000   -0.092000
  C      3.025000    0.514000    0.015000
  C      4.387000    3.582000   -1.115000
  C      2.866000    1.916000    0.013000
  N      6.413000    4.296000   -0.095000
  H     -5.961000    5.241000   -0.545000
  H      2.274000    4.766000    0.081000
  H     -1.215000    5.422000    0.702000
  H     -2.674000    7.438000    0.713000
  H     -5.568000    7.740000    1.161000
  H     -4.570000    8.477000   -0.129000
  H     -6.014000    7.516000   -0.557000
  H     -0.332000    5.282000    0.069000
  H     -4.639000    3.135000   -0.603000
  H      0.182000    1.072000    0.005000
  H     -0.183000   -1.080000   -0.021000
  H     -5.864000   -4.962000    1.895000
  H     -4.794000    2.272000    0.139000
  H     -4.800000   -2.160000   -1.994000
  H     -6.841000   -3.582000   -1.893000
  H     -8.428000   -4.536000    0.546000
  H     -7.956000   -5.337000   -0.981000
  H     -7.456000   -6.037000    0.584000
  H     -5.287000   -0.344000    0.100000
  H     -3.780000   -3.601000    1.947000
  H      3.587000   -6.868000   -1.843000
  H     -2.276000   -4.774000   -0.050000
  H      3.714000   -3.724000    1.926000
  H      5.092000   -5.795000    1.871000
  H      6.205000   -7.329000   -0.439000
  H      5.393000   -7.917000    1.042000
  H      4.759000   -8.373000   -0.564000
  H      0.329000   -5.290000   -0.008000
  H      2.146000   -4.842000   -1.940000
  H      5.808000    4.986000   -1.956000
  H      4.788000   -2.281000   -0.185000
  H      4.860000    2.114000    1.912000
  H      6.901000    3.531000    1.772000
  H      7.383000    6.109000    0.356000
  H      8.414000    4.652000    0.435000
  H      7.921000    5.310000   -1.150000
  H      5.283000    0.336000   -0.179000
  H      3.720000    3.632000   -1.967000

----------------------------
CARTESIAN COORDINATES (A.U.)
----------------------------
  NO LB      ZA    FRAG     MASS         X           Y           Z
   0 C     6.0000    0    12.011   -9.282335    9.860591   -0.517785
   1 C     6.0000    0    12.011    2.785456    7.636383    0.107714
   2 C     6.0000    0    12.011   -5.295013    7.734649    0.092597
   3 C     6.0000    0    12.011   -4.263222   10.077909    0.786126
   4 C     6.0000    0    12.011   -5.759885   12.213300    0.810693
   5 C     6.0000    0    12.011   -9.800120   14.399713    0.272121
   6 C     6.0000    0    12.011    0.249444    8.139050    0.115273
   7 C     6.0000    0    12.011   -1.075254    5.775003    0.088817
   8 C     6.0000    0    12.011    3.116158    4.947303    0.043464
   9 C     6.0000    0    12.011   -7.865040    7.670398   -0.561249
  10 N     7.0000    0    14.007   -8.229757   12.088578    0.158737
  11 N     7.0000    0    14.007    0.733214    3.906064    0.047243
  12 N     7.0000    0    14.007   -3.798350    0.746442   -0.141729
  13 N     7.0000    0    14.007   -0.733214   -3.919292   -0.051023
  14 N     7.0000    0    14.007    3.798350   -0.757780    0.122832
  15 C     6.0000    0    12.011   -3.703863    5.406506    0.045353
  16 C     6.0000    0    12.011   -4.956752    3.051908   -0.034015
  17 C     6.0000    0    12.011  -10.531444   -8.180624    2.014448
  18 C     6.0000    0    12.011   -7.696855    2.779787    0.105825
  19 C     6.0000    0    12.011   -7.759216   -5.208085   -0.049133
  20 C     6.0000    0    12.011   -9.439182   -5.209975   -2.099486
  21 C     6.0000    0    12.011  -11.587801   -6.693410   -2.033345
  22 C     6.0000    0    12.011  -14.458295   -9.662170    0.075589
  23 C     6.0000    0    12.011   -8.171176    0.266451    0.069920
  24 C     6.0000    0    12.011   -5.716422   -0.982658   -0.090707
  25 C     6.0000    0    12.011   -8.356369   -6.738763    2.031456
  26 N     7.0000    0    14.007  -12.107475   -8.150389    0.001890
  27 C     6.0000    0    12.011   -5.417845   -3.632054   -0.075589
  28 C     6.0000    0    12.011   -3.118048   -4.958641   -0.051023
  29 C     6.0000    0    12.011    6.742543  -11.606698   -1.965315
  30 C     6.0000    0    12.011   -2.789236   -7.651501   -0.064251
  31 C     6.0000    0    12.011    5.296902   -7.745987   -0.015118
  32 C     6.0000    0    12.011    6.910728   -8.284559    2.020117
  33 C     6.0000    0    12.011    8.365818  -10.450186    2.001220
  34 C     6.0000    0    12.011    9.911614  -14.339242    0.026456
  35 C     6.0000    0    12.011   -0.253223   -8.154168   -0.041574
  36 C     6.0000    0    12.011    1.073364   -5.790121   -0.051023
  37 C     6.0000    0    12.011    5.243990   -9.471307   -2.029566
  38 N     7.0000    0    14.007    8.269442  -12.077240    0.032125
  39 C     6.0000    0    12.011    3.701973   -5.421624   -0.017008
  40 C     6.0000    0    12.011    4.952972   -3.065136    0.017008
  41 C     6.0000    0    12.011   10.474752    8.199522   -2.135391
  42 C     6.0000    0    12.011    7.691185   -2.794905   -0.177634
  43 C     6.0000    0    12.011    7.755436    5.198637   -0.039684
  44 C     6.0000    0    12.011    9.499653    5.157063    1.957756
  45 C     6.0000    0    12.011   11.652051    6.631049    1.848152
  46 C     6.0000    0    12.011   14.397823    9.737759   -0.217319
  47 C     6.0000    0    12.011    8.165507   -0.279679   -0.173855
  48 C     6.0000    0    12.011    5.716422    0.971319    0.028346
  49 C     6.0000    0    12.011    8.290229    6.768999   -2.107045
  50 C     6.0000    0    12.011    5.415955    3.620715    0.024566
  51 N     7.0000    0    14.007   12.118814    8.118263   -0.179524
  52 H     1.0000    0     1.008  -11.264657    9.904055   -1.029901
  53 H     1.0000    0     1.008    4.297237    9.006435    0.153068
  54 H     1.0000    0     1.008   -2.296017   10.246095    1.326588
  55 H     1.0000    0     1.008   -5.053128   14.055783    1.347375
  56 H     1.0000    0     1.008  -10.521995   14.626480    2.193972
  57 H     1.0000    0     1.008   -8.636048   16.019208   -0.243775
  58 H     1.0000    0     1.008  -11.364813   14.203182   -1.052577
  59 H     1.0000    0     1.008   -0.627389    9.981533    0.130391
  60 H     1.0000    0     1.008   -8.766440    5.924291   -1.139505
  61 H     1.0000    0     1.008    0.343930    2.025786    0.009449
  62 H     1.0000    0     1.008   -0.345820   -2.040904   -0.039684
  63 H     1.0000    0     1.008  -11.081354   -9.376821    3.581031
  64 H     1.0000    0     1.008   -9.059347    4.293458    0.262672
  65 H     1.0000    0     1.008   -9.070685   -4.081808   -3.768114
  66 H     1.0000    0     1.008  -12.927616   -6.768999   -3.577252
  67 H     1.0000    0     1.008  -15.926612   -8.571798    1.031790
  68 H     1.0000    0     1.008  -15.034661  -10.085468   -1.853821
  69 H     1.0000    0     1.008  -14.089798  -11.408277    1.103600
  70 H     1.0000    0     1.008   -9.990982   -0.650066    0.188973
  71 H     1.0000    0     1.008   -7.143165   -6.804904    3.679297
  72 H     1.0000    0     1.008    6.778448  -12.978639   -3.482765
  73 H     1.0000    0     1.008   -4.301017   -9.021553   -0.094486
  74 H     1.0000    0     1.008    7.018443   -7.037340    3.639613
  75 H     1.0000    0     1.008    9.622485  -10.950963    3.535678
  76 H     1.0000    0     1.008   11.725751  -13.849803   -0.829590
  77 H     1.0000    0     1.008   10.191293  -14.960962    1.969095
  78 H     1.0000    0     1.008    8.993207  -15.822677   -1.065806
  79 H     1.0000    0     1.008    0.621720   -9.996651   -0.015118
  80 H     1.0000    0     1.008    4.055352   -9.150054   -3.666069
  81 H     1.0000    0     1.008   10.975529    9.422175   -3.696304
  82 H     1.0000    0     1.008    9.048009   -4.310465   -0.349599
  83 H     1.0000    0     1.008    9.184069    3.994881    3.613156
  84 H     1.0000    0     1.008   13.041000    6.672623    3.348595
  85 H     1.0000    0     1.008   13.951848   11.544337    0.672743
  86 H     1.0000    0     1.008   15.900156    8.791006    0.822031
  87 H     1.0000    0     1.008   14.968521   10.034446   -2.173185
  88 H     1.0000    0     1.008    9.983423    0.634948   -0.338261
  89 H     1.0000    0     1.008    7.029781    6.863485   -3.717091

--------------------------------
INTERNAL COORDINATES (ANGSTROEM)
--------------------------------
 C      0   0   0     0.000000000000     0.00000000     0.00000000
 C      1   0   0     6.501990925863     0.00000000     0.00000000
 C      1   2   0     2.412893284006    18.17944754     0.00000000
 C      3   1   2     1.403711152624    87.89514906    29.88484912
 C      4   3   1     1.379975724424   120.17075858     0.14832673
 C      5   4   3     2.447635185235   152.53546410     1.57447660
 C      2   1   3     1.368114030335     3.17972986   271.93435825
 C      7   2   4     1.434084376876   108.05010202   212.02185904
 C      2   1   3     1.434123425651   107.35309021    18.26406267
 C      1   2   7     1.380691855556    46.79402607   251.95084474
 N      1   2   7     1.352203387069    74.91715964    60.88996543
 N      9   2   1     1.376127174356   106.58526707   356.02494546
 N     12   9   2     2.925062050624   168.53581413   171.12065651
 N     13  12   9     2.954513327098    91.55032014    11.12112580
 N     14  13  12     2.925371258490    88.43092389   359.84326247
 C      8   7   2     1.404790019896   127.24786865   181.11170171
 C     13  12   9     1.366535034311    81.72106996   188.00453233
 C     14  13  12     5.758810554272    80.56209567   166.76250791
 C     17  13  12     1.459010623676   111.08861209   183.82872609
 C     18  14  13     2.412235892279    27.27532823    36.33507194
 C     20  18  14     1.402692767501    87.95206320   148.94598259
 C     21  20  18     1.382106725257   120.14573887   359.70382047
 C     18  14  13     2.446510985056   144.15733107    82.80075377
 C     19  17  13     1.353610726908   106.29293361   359.75308708
 C     13  12   9     1.366813447402   172.21332906    33.46711076
 C     18  14  13     1.380960173213    15.08449437   309.23336894
 N     22  21  20     1.352773077792   120.73759875     0.27865223
 C     25  13  17     1.410897586645   125.60330303   182.37774668
 C     14  13  12     1.376642291955    80.24689249   177.85461986
 C     14  13  12     5.764089607215   164.51507311   312.20821879
 C     29  14  13     1.435600919476   106.58649366   178.76395472
 C     30  14  13     2.413316804732    27.10625047    82.12560436
 C     32  30  14     1.403734305344    87.90059683   149.76154742
 C     33  32  30     1.380694028378   120.14881443   359.74174632
 C     34  33  32     2.448777858443   152.49203239     2.45173620
 C     31  29  14     1.368160809262   108.16950133     0.70383075
 C     14  13  12     1.376239804685   169.26375223   353.09862627
 C     30  14  13     1.380907310430    14.68948582   353.70041132
 N     34  33  32     1.352658863128   120.85575621     0.19603406
 C     37  14  29     1.404717053360   126.01551127   180.90772073
 C     15  14  13     1.366491126938    81.61824056   183.09049352
 C      2   1   3     4.249062720177   156.01088903   142.55105552
 C     41  15  14     1.459677704153   111.05201287   175.08990246
 C     42   2   1     2.412953791518    41.78584867   208.51954415
 C     44  42   2     1.403446472082    87.95153797   233.97558675
 C     45  44  42     1.381696421071   120.11137308     0.19721020
 C     42   2   1     2.450019795838   135.97209175   118.83439325
 C     43  41  15     1.354461516618   106.26758155     0.30894352
 C     15  14  13     1.367461151185   171.87382904   332.35056460
 C     42   2   1     1.381886391857    32.59078432   257.37482334
 C      9   2   1     1.404988612053   126.98745415   177.02928299
 N     42   2   1     1.352765315936   113.57249190   146.57098245
 H      1   2   7     1.083683994530   165.30696498   203.55881329
 H      2   1   3     1.079907866440   127.38663232   195.29859810
 H      4   3   1     1.083234969893   121.02494461   179.56236093
 H      5   4   3     1.082200073923   122.81102948   179.44544744
 H      6   5   4     1.092983531440   104.40905741   100.11609702
 H      6   5   4     1.090153200243    84.67451380   209.56481665
 H      6   5   4     1.089862835406   133.90034454   322.43927254
 H      7   2  54     1.079807853278   126.66122480     1.30600390
 H     10   1   2     1.083946954422   118.76562437   193.33181340
 H     12   9   2     1.016297692608   125.29023241   180.00180175
 H     14  13  12     1.014936943854    44.97226959   359.42596618
 H     18  14  13     1.082871645210   128.03556573   234.20482432
 H     19  17  13     1.080893611786   126.41830519   178.11313280
 H     21  20  18     1.083569563987   121.05669627   180.67006309
 H     22  21  20     1.082483256222   122.73097286   180.59748951
 H     23  18  14     1.092105306278   103.92715769   234.93429879
 H     23  18  14     1.088871893291   134.19244188    12.25587044
 H     23  18  14     1.089833473518    84.85857450   125.45241208
 H     24  19  17     1.080075460327   127.28078426   178.44613241
 H     26  18  14     1.083408048706   118.76995697   244.94906660
 H     30  14  13     1.082703098730   127.99711412   279.66882698
 H     31  29  14     1.079759695488   125.22293469   180.92530585
 H     33  32  30     1.083188810873   121.01964473   180.74284758
 H     34  33  32     1.082494341787   122.70821597   180.59516895
 H     35  34  33     1.092652735319   105.73575241    97.19771933
 H     35  34  33     1.089462711615    84.05943581   206.43036958
 H     35  34  33     1.089268102902   133.08365142   318.50306270
 H     36  31  29     1.079439669458   126.61599965   178.98859863
 H     38  30  73     1.083742127999   118.77264435   359.90091293
 H     42   2   1     1.082178358682   119.31790784     3.20251290
 H     43  41  15     1.080281907652   126.36969097   182.06329380
 H     45  44  42     1.083277434455   121.10105945   179.58025624
 H     46  45  44     1.082194529648   122.72144639   179.46906377
 H     47  42   2     1.091546151109   106.65128841   315.16475048
 H     47  42   2     1.088818625851   132.46019523    94.52397119
 H     47  42   2     1.089531091801    83.63838232   206.04504406
 H     48  43  41     1.080402239909   127.23657387   181.62955349
 H     50  42   2     1.083186502870   118.77001737    94.71359229

---------------------------
INTERNAL COORDINATES (A.U.)
---------------------------
 C      0   0   0     0.000000000000     0.00000000     0.00000000
 C      1   0   0    12.286982175121     0.00000000     0.00000000
 C      1   2   0     4.559707497149    18.17944754     0.00000000
 C      3   1   2     2.652629649590    87.89514906    29.88484912
 C      4   3   1     2.607776190621   120.17075858     0.14832673
 C      5   4   3     4.625360175844   152.53546410     1.57447660
 C      2   1   3     2.585360837309     3.17972986   271.93435825
 C      7   2   4     2.710026725231   108.05010202   212.02185904
 C      2   1   3     2.710100516721   107.35309021    18.26406267
 C      1   2   7     2.609129482337    46.79402607   251.95084474
 N      1   2   7     2.555294078921    74.91715964    60.88996543
 N      9   2   1     2.600503484979   106.58526707   356.02494546
 N     12   9   2     5.527566200405   168.53581413   171.12065651
 N     13  12   9     5.583221047236    91.55032014    11.12112580
 N     14  13  12     5.528150518591    88.43092389   359.84326247
 C      8   7   2     2.654668413270   127.24786865   181.11170171
 C     13  12   9     2.582376967257    81.72106996   188.00453233
 C     14  13  12    10.882574804710    80.56209567   166.76250791
 C     17  13  12     2.757130505230   111.08861209   183.82872609
 C     18  14  13     4.558465206823    27.27532823    36.33507194
 C     20  18  14     2.650705180609    87.95206320   148.94598259
 C     21  20  18     2.611803198586   120.14573887   359.70382047
 C     18  14  13     4.623235745386   144.15733107    82.80075377
 C     19  17  13     2.557953565794   106.29293361   359.75308708
 C     13  12   9     2.582903091751   172.21332906    33.46711076
 C     18  14  13     2.609636529225    15.08449437   309.23336894
 N     22  21  20     2.556370638369   120.73759875     0.27865223
 C     25  13  17     2.666210041769   125.60330303   182.37774668
 C     14  13  12     2.601476916169    80.24689249   177.85461986
 C     14  13  12    10.892550769017   164.51507311   312.20821879
 C     29  14  13     2.712892575415   106.58649366   178.76395472
 C     30  14  13     4.560507835333    27.10625047    82.12560436
 C     32  30  14     2.652673401891    87.90059683   149.76154742
 C     33  32  30     2.609133588376   120.14881443   359.74174632
 C     34  33  32     4.627519515267   152.49203239     2.45173620
 C     31  29  14     2.585449236669   108.16950133     0.70383075
 C     14  13  12     2.600716325456   169.26375223   353.09862627
 C     30  14  13     2.609536633043    14.68948582   353.70041132
 N     34  33  32     2.556154803934   120.85575621     0.19603406
 C     37  14  29     2.654530526499   126.01551127   180.90772073
 C     15  14  13     2.582293994346    81.61824056   183.09049352
 C      2   1   3     8.029564866989   156.01088903   142.55105552
 C     41  15  14     2.758391104639   111.05201287   175.08990246
 C     42   2   1     4.559821839776    41.78584867   208.51954415
 C     44  42   2     2.652129475853    87.95153797   233.97558675
 C     45  44  42     2.611027836043   120.11137308     0.19721020
 C     42   2   1     4.629866436820   135.97209175   118.83439325
 C     43  41  15     2.559561325344   106.26758155     0.30894352
 C     15  14  13     2.584127074516   171.87382904   332.35056460
 C     42   2   1     2.611386828803    32.59078432   257.37482334
 C      9   2   1     2.655043698059   126.98745415   177.02928299
 N     42   2   1     2.556355970587   113.57249190   146.57098245
 H      1   2   7     2.047865965375   165.30696498   203.55881329
 H      2   1   3     2.040730117440   127.38663232   195.29859810
 H      4   3   1     2.047017431785   121.02494461   179.56236093
 H      5   4   3     2.045061761825   122.81102948   179.44544744
 H      6   5   4     2.065439543309   104.40905741   100.11609702
 H      6   5   4     2.060090992477    84.67451380   209.56481665
 H      6   5   4     2.059542282457   133.90034454   322.43927254
 H      7   2  54     2.040541119952   126.66122480     1.30600390
 H     10   1   2     2.048362887555   118.76562437   193.33181340
 H     12   9   2     1.920524309565   125.29023241   180.00180175
 H     14  13  12     1.917952867083    44.97226959   359.42596618
 H     18  14  13     2.046330847636   128.03556573   234.20482432
 H     19  17  13     2.042592906181   126.41830519   178.11313280
 H     21  20  18     2.047649722989   121.05669627   180.67006309
 H     22  21  20     2.045596898814   122.73097286   180.59748951
 H     23  18  14     2.063779938267   103.92715769   234.93429879
 H     23  18  14     2.057669673245   134.19244188    12.25587044
 H     23  18  14     2.059486796529    84.85857450   125.45241208
 H     24  19  17     2.041046823986   127.28078426   178.44613241
 H     26  18  14     2.047344503340   118.76995697   244.94906660
 H     30  14  13     2.046012340948   127.99711412   279.66882698
 H     31  29  14     2.040450114918   125.22293469   180.92530585
 H     33  32  30     2.046930203877   121.01964473   180.74284758
 H     34  33  32     2.045617847496   122.70821597   180.59516895
 H     35  34  33     2.064814429233   105.73575241    97.19771933
 H     35  34  33     2.058786158072    84.05943581   206.43036958
 H     35  34  33     2.058418400901   133.08365142   318.50306270
 H     36  31  29     2.039845353366   126.61599965   178.98859863
 H     38  30  73     2.047975821711   118.77264435   359.90091293
 H     42   2   1     2.045020725966   119.31790784     3.20251290
 H     43  41  15     2.041436952892   126.36969097   182.06329380
 H     45  44  42     2.047097678177   121.10105945   179.58025624
 H     46  45  44     2.045051284662   122.72144639   179.46906377
 H     47  42   2     2.062723288131   106.65128841   315.16475048
 H     47  42   2     2.057569012371   132.46019523    94.52397119
 H     47  42   2     2.058915377895    83.63838232   206.04504406
 H     48  43  41     2.041664347903   127.23657387   181.62955349
 H     50  42   2     2.046925842384   118.77001737    94.71359229

---------------------
BASIS SET INFORMATION
---------------------
There are 3 groups of distinct atoms

 Group   1 Type C   : 17s4p1d contracted to 3s2p1d pattern {881/31/1}
 Group   2 Type N   : 17s4p1d contracted to 3s2p1d pattern {881/31/1}
 Group   3 Type H   : 4s1p contracted to 2s1p pattern {31/1}

Atom   0C    basis set group =>   1
Atom   1N    basis set group =>   2
Atom   2C    basis set group =>   1
Atom   3N    basis set group =>   2
Atom   4C    basis set group =>   1
Atom   5N    basis set group =>   2
Atom   6C    basis set group =>   1
Atom   7N    basis set group =>   2
Atom   8C    basis set group =>   1
Atom   9N    basis set group =>   2
Atom  10C    basis set group =>   1
Atom  11N    basis set group =>   2
Atom  12C    basis set group =>   1
Atom  13N    basis set group =>   2
Atom  14C    basis set group =>   1
Atom  15N    basis set group =>   2
Atom  16C    basis set group =>   1
Atom  17C    basis set group =>   1
Atom  18C    basis set group =>   1
Atom  19C    basis set group =>   1
Atom  20C    basis set group =>   1
Atom  21C    basis set group =>   1
Atom  22C    basis set group =>   1
Atom  23C    basis set group =>   1
Atom  24C    basis set group =>   1
Atom  25C    basis set group =>   1
Atom  26C    basis set group =>   1
Atom  27C    basis set group =>   1
Atom  28C    basis set group =>   1
Atom  29C    basis set group =>   1
Atom  30C    basis set group =>   1
Atom  31C    basis set group =>   1
Atom  32C    basis set group =>   1
Atom  33C    basis set group =>   1
Atom  34C    basis set group =>   1
Atom  35C    basis set group =>   1
Atom  36C    basis set group =>   1
Atom  37C    basis set group =>   1
Atom  38C    basis set group =>   1
Atom  39C    basis set group =>   1
Atom  40C    basis set group =>   1
Atom  41C    basis set group =>   1
Atom  42C    basis set group =>   1
Atom  43C    basis set group =>   1
Atom  44C    basis set group =>   1
Atom  45C    basis set group =>   1
Atom  46C    basis set group =>   1
Atom  47C    basis set group =>   1
Atom  48C    basis set group =>   1
Atom  49C    basis set group =>   1
Atom  50C    basis set group =>   1
Atom  51C    basis set group =>   1
Atom  52H    basis set group =>   3
Atom  53H    basis set group =>   3
Atom  54H    basis set group =>   3
Atom  55H    basis set group =>   3
Atom  56H    basis set group =>   3
Atom  57H    basis set group =>   3
Atom  58H    basis set group =>   3
Atom  59H    basis set group =>   3
Atom  60H    basis set group =>   3
Atom  61H    basis set group =>   3
Atom  62H    basis set group =>   3
Atom  63H    basis set group =>   3
Atom  64H    basis set group =>   3
Atom  65H    basis set group =>   3
Atom  66H    basis set group =>   3
Atom  67H    basis set group =>   3
Atom  68H    basis set group =>   3
Atom  69H    basis set group =>   3
Atom  70H    basis set group =>   3
Atom  71H    basis set group =>   3
Atom  72H    basis set group =>   3
Atom  73H    basis set group =>   3
Atom  74H    basis set group =>   3
Atom  75H    basis set group =>   3
Atom  76H    basis set group =>   3
Atom  77H    basis set group =>   3
Atom  78H    basis set group =>   3
Atom  79H    basis set group =>   3
Atom  80H    basis set group =>   3
Atom  81H    basis set group =>   3
Atom  82H    basis set group =>   3
Atom  83H    basis set group =>   3
Atom  84H    basis set group =>   3
Atom  85H    basis set group =>   3
Atom  86H    basis set group =>   3
Atom  87H    basis set group =>   3
Atom  88H    basis set group =>   3
Atom  89H    basis set group =>   3


           ************************************************************
           *        Program running with 16 parallel MPI-processes    *
           *              working on a common directory               *
           ************************************************************
------------------------------------------------------------------------------
                           ORCA GTO INTEGRAL CALCULATION
------------------------------------------------------------------------------
------------------------------------------------------------------------------
                   ___                                                        
                  /   \      - P O W E R E D   B Y -                         
                 /     \                                                     
                 |  |  |   _    _      __       _____    __    __             
                 |  |  |  | |  | |    /  \     |  _  \  |  |  /  |          
                  \  \/   | |  | |   /    \    | | | |  |  | /  /          
                 / \  \   | |__| |  /  /\  \   | |_| |  |  |/  /          
                |  |  |   |  __  | /  /__\  \  |    /   |      \           
                |  |  |   | |  | | |   __   |  |    \   |  |\   \          
                \     /   | |  | | |  |  |  |  | |\  \  |  | \   \       
                 \___/    |_|  |_| |__|  |__|  |_| \__\ |__|  \__/        
                                                                              
                      - O R C A' S   B I G   F R I E N D -                    
                                      &                                       
                       - I N T E G R A L  F E E D E R -                       
                                                                              
 v1 FN, 2020, v2 2021                                                         
------------------------------------------------------------------------------


Reading SHARK input file /scratch/allen/tmpyp4_amber_gaff2/conf1/conf1/Conf165.orca.SHARKINP.tmp ... ok
----------------------
SHARK INTEGRAL PACKAGE
----------------------

Number of atoms                             ...     90
Number of basis functions                   ...   1230
Number of shells                            ...    738
Maximum angular momentum                    ...      2
Integral batch strategy                     ... SHARK/LIBINT Hybrid
RI-J (if used) integral strategy            ... SPLIT-RIJ (Revised 2003 algorithm where possible)
Printlevel                                  ...      1
Contraction scheme used                     ... PARTIAL GENERAL contraction
Coulomb Range Separation                    ... NOT USED
Exchange Range Separation                   ... NOT USED
Finite Nucleus Model                        ... NOT USED
Auxiliary Coulomb fitting basis             ... NOT available
Auxiliary J/K fitting basis                 ... NOT available
Auxiliary Correlation fitting basis         ... NOT available
Auxiliary 'external' fitting basis          ... NOT available
Integral threshold                          ...     2.500000e-11
Primitive cut-off                           ...     2.500000e-12
Primitive pair pre-selection threshold      ...     2.500000e-12

Calculating pre-screening integrals         ... done (  0.1 sec) Dimension = 738
Calculating pre-screening integrals (ORCA)  ... done (  0.3 sec) Dimension = 426
Organizing shell pair data                  ... done (  0.7 sec)
Shell pair information
Total number of shell pairs                 ...    272691
Shell pairs after pre-screening             ...     71713
Total number of primitive shell pairs       ...    422091
Primitive shell pairs kept                  ...     92623
          la=0 lb=0:  29434 shell pairs
          la=1 lb=0:  26032 shell pairs
          la=1 lb=1:   4702 shell pairs
          la=2 lb=0:   7892 shell pairs
          la=2 lb=1:   3124 shell pairs
          la=2 lb=2:    529 shell pairs

Calculating one electron integrals          ... done (  0.2 sec)
Calculating Nuclear repulsion               ... done (  0.0 sec) ENN=   6234.112288962558 Eh

SHARK setup successfully completed in   2.2 seconds

Maximum memory used throughout the entire GTOINT-calculation: 99.1 MB


           ************************************************************
           *        Program running with 16 parallel MPI-processes    *
           *              working on a common directory               *
           ************************************************************
-------------------------------------------------------------------------------
                                 ORCA SCF
-------------------------------------------------------------------------------

------------
SCF SETTINGS
------------
Hamiltonian:
 Ab initio Hamiltonian  Method          .... Hartree-Fock(GTOs)


General Settings:
 Integral files         IntName         .... /scratch/allen/tmpyp4_amber_gaff2/conf1/conf1/Conf165.orca
 Hartree-Fock type      HFTyp           .... RHF
 Total Charge           Charge          ....    0
 Multiplicity           Mult            ....    1
 Number of Electrons    NEL             ....  358
 Basis Dimension        Dim             ....  918
 Nuclear Repulsion      ENuc            ....   6234.1122889626 Eh

Convergence Acceleration:
 DIIS                   CNVDIIS         .... on
   Start iteration      DIISMaxIt       ....    12
   Startup error        DIISStart       ....  0.200000
   # of expansion vecs  DIISMaxEq       ....     5
   Bias factor          DIISBfac        ....   1.050
   Max. coefficient     DIISMaxC        ....  10.000
 Trust-Rad. Augm. Hess. CNVTRAH         .... auto
   Auto Start mean grad. ratio tolernc. ....  1.125000
   Auto Start start iteration           ....    20
   Auto Start num. interpolation iter.  ....    10
   Max. Number of Micro iterations      ....    16
   Max. Number of Macro iterations      .... Maxiter - #DIIS iter
   Number of Davidson start vectors     ....     2
   Converg. threshold I  (grad. norm)   ....   1.000e-05
   Converg. threshold II (energy diff.) ....   1.000e-08
   Grad. Scal. Fac. for Micro threshold ....   0.100
   Minimum threshold for Micro iter.    ....   0.010
   NR start threshold (gradient norm)   ....   0.001
   Initial trust radius                 ....   0.400
   Minimum AH scaling param. (alpha)    ....   1.000
   Maximum AH scaling param. (alpha)    .... 1000.000
   Orbital update algorithm             .... Taylor
   White noise on init. David. guess    .... on
   Maximum white noise                  ....   0.010
   Quad. conv. algorithm                .... NR
 SOSCF                  CNVSOSCF        .... on
   Start iteration      SOSCFMaxIt      ....   150
   Startup grad/error   SOSCFStart      ....  0.003300
 Level Shifting         CNVShift        .... on
   Level shift para.    LevelShift      ....    0.2500
   Turn off err/grad.   ShiftErr        ....    0.0010
 Zerner damping         CNVZerner       .... off
 Static damping         CNVDamp         .... on
   Fraction old density DampFac         ....    0.7000
   Max. Damping (<1)    DampMax         ....    0.9800
   Min. Damping (>=0)   DampMin         ....    0.0000
   Turn off err/grad.   DampErr         ....    0.1000
 Fernandez-Rico         CNVRico         .... off

SCF Procedure:
 Maximum # iterations   MaxIter         ....   125
 SCF integral mode      SCFMode         .... Direct
   Integral package                     .... SHARK and LIBINT hybrid scheme
 Reset frequency        DirectResetFreq ....    20
 Integral Threshold     Thresh          ....  2.500e-11 Eh
 Primitive CutOff       TCut            ....  2.500e-12 Eh

Convergence Tolerance:
 Convergence Check Mode ConvCheckMode   .... Total+1el-Energy
 Convergence forced     ConvForced      .... 1
 Energy Change          TolE            ....  1.000e-08 Eh
 1-El. energy change                    ....  1.000e-05 Eh
 Orbital Gradient       TolG            ....  1.000e-05
 Orbital Rotation angle TolX            ....  1.000e-05
 DIIS Error             TolErr          ....  5.000e-07


Diagonalization of the overlap matrix:
Smallest eigenvalue                        ... 1.865e-04
Time for diagonalization                   ...    0.463 sec
Threshold for overlap eigenvalues          ... 1.000e-08
Number of eigenvalues below threshold      ... 0
Time for construction of square roots      ...    0.270 sec
Total time needed                          ...    0.740 sec

Time for model grid setup =    1.297 sec

------------------------------
INITIAL GUESS: MODEL POTENTIAL
------------------------------
Loading Hartree-Fock densities                     ... done
Calculating cut-offs                               ... done
Initializing the effective Hamiltonian             ... done
Setting up the integral package (SHARK)            ... done
Starting the Coulomb interaction                   ... done (   1.4 sec)
Reading the grid                                   ... done
Mapping shells                                     ... done
Starting the XC term evaluation                    ... done (   0.2 sec)
Transforming the Hamiltonian                       ... done (   0.3 sec)
Diagonalizing the Hamiltonian                      ... done (   0.4 sec)
Back transforming the eigenvectors                 ... done (   0.1 sec)
Now organizing SCF variables                       ... done
                      ------------------
                      INITIAL GUESS DONE (   3.8 sec)
                      ------------------
--------------
SCF ITERATIONS
--------------
ITER       Energy         Delta-E        Max-DP      RMS-DP      [F,P]     Damp
               ***  Starting incremental Fock matrix formation  ***
  0  -2121.6459557371   0.000000000000 0.08268833  0.00125163  0.2313456 0.7000
  1  -2122.2913902222  -0.645434485028 0.06249777  0.00101904  0.1435283 0.7000
                               ***Turning on DIIS***
  2  -2122.6937530846  -0.402362862398 0.14530030  0.00231564  0.0802964 0.0000
  3  -2118.0355528162   4.658200268397 0.04851206  0.00068482  0.0435050 0.0000
  4  -2123.3850067145  -5.349453898376 0.01477977  0.00022878  0.0090889 0.0000
  5  -2123.5234583702  -0.138451655688 0.00704747  0.00013281  0.0048759 0.0000
  6  -2123.5078685554   0.015589814868 0.00419686  0.00008506  0.0021936 0.0000
  7  -2123.6010765246  -0.093207969221 0.00317751  0.00006708  0.0016230 0.0000
  8  -2123.6084941895  -0.007417664880 0.00335140  0.00006407  0.0015175 0.0000
  9  -2123.5809946417   0.027499547768 0.00268251  0.00004557  0.0012203 0.0000
 10  -2123.5890321747  -0.008037532974 0.00541164  0.00009589  0.0009534 0.0000
                      *** Initiating the SOSCF procedure ***
                           *** Shutting down DIIS ***
                      *** Re-Reading the Fockian *** 
                      *** Removing any level shift *** 
ITER      Energy       Delta-E        Grad      Rot      Max-DP    RMS-DP
 11  -2123.48302780   0.1060043791  0.000178  0.000178  0.000240  0.000005
               *** Restarting incremental Fock matrix formation ***
 12  -2123.54856544  -0.0655376444  0.000889  0.006446  0.001491  0.000035
 13  -2123.54867726  -0.0001118204  0.001102  0.031588  0.006828  0.000139
 14  -2123.54886347  -0.0001862068  0.000384  0.001844  0.000595  0.000012
 15  -2123.54887846  -0.0000149954  0.000151  0.001814  0.000521  0.000013
 16  -2123.54888512  -0.0000066595  0.000143  0.002220  0.000480  0.000008
 17  -2123.54888747  -0.0000023448  0.000107  0.001669  0.000274  0.000006
 18  -2123.54888846  -0.0000009939  0.000055  0.000494  0.000213  0.000003
 19  -2123.54888896  -0.0000004962  0.000039  0.000746  0.000183  0.000003
 20  -2123.54888920  -0.0000002415  0.000019  0.000452  0.000090  0.000002
 21  -2123.54888930  -0.0000001002  0.000021  0.000608  0.000105  0.000002
 22  -2123.54888939  -0.0000000913  0.000016  0.000646  0.000108  0.000002
 23  -2123.54888945  -0.0000000632  0.000011  0.000380  0.000067  0.000001
 24  -2123.54888949  -0.0000000343  0.000006  0.000337  0.000050  0.000001
 25  -2123.54888951  -0.0000000263  0.000007  0.000146  0.000028  0.000001
 26  -2123.54888953  -0.0000000157  0.000005  0.000103  0.000027  0.000000
 27  -2123.54888954  -0.0000000094  0.000003  0.000088  0.000019  0.000000
                 **** Energy Check signals convergence ****
              ***Rediagonalizing the Fockian in SOSCF/NRSCF***

               *****************************************************
               *                     SUCCESS                       *
               *           SCF CONVERGED AFTER  28 CYCLES          *
               *****************************************************


----------------
TOTAL SCF ENERGY
----------------

Total Energy       :        -2123.54888954 Eh          -57784.70300 eV

Components:
Nuclear Repulsion  :         6234.11228896 Eh          169638.81965 eV
Electronic Energy  :        -8357.66117851 Eh         -227423.52266 eV
One Electron Energy:       -15308.83491363 Eh         -416574.57624 eV
Two Electron Energy:         6951.17373512 Eh          189151.05359 eV

Virial components:
Potential Energy   :        -4245.95609385 Eh         -115538.33917 eV
Kinetic Energy     :         2122.40720431 Eh           57753.63617 eV
Virial Ratio       :            2.00053792


---------------
SCF CONVERGENCE
---------------

  Last Energy change         ...   -4.9204e-09  Tolerance :   1.0000e-08
  Last MAX-Density change    ...    1.0598e-05  Tolerance :   1.0000e-07
  Last RMS-Density change    ...    2.1288e-07  Tolerance :   5.0000e-09
  Last Orbital Gradient      ...    1.8395e-06  Tolerance :   1.0000e-05
  Last Orbital Rotation      ...    5.8281e-05  Tolerance :   1.0000e-05

             **** THE GBW FILE WAS UPDATED (/scratch/allen/tmpyp4_amber_gaff2/conf1/conf1/Conf165.orca.gbw) ****
             **** DENSITY /scratch/allen/tmpyp4_amber_gaff2/conf1/conf1/Conf165.orca.scfp WAS UPDATED ****
             **** ENERGY FILE WAS UPDATED (/scratch/allen/tmpyp4_amber_gaff2/conf1/conf1/Conf165.orca.en.tmp) ****
             **** THE GBW FILE WAS UPDATED (/scratch/allen/tmpyp4_amber_gaff2/conf1/conf1/Conf165.orca.gbw) ****
             **** DENSITY /scratch/allen/tmpyp4_amber_gaff2/conf1/conf1/Conf165.orca.scfp WAS UPDATED ****
----------------
ORBITAL ENERGIES
----------------

  NO   OCC          E(Eh)            E(eV) 
   0   2.0000     -15.679373      -426.6574 
   1   2.0000     -15.635897      -425.4744 
   2   2.0000     -15.630063      -425.3156 
   3   2.0000     -15.587244      -424.1505 
   4   2.0000     -15.525671      -422.4750 
   5   2.0000     -15.515480      -422.1977 
   6   2.0000     -15.453310      -420.5059 
   7   2.0000     -15.440822      -420.1661 
   8   2.0000     -11.329320      -308.2865 
   9   2.0000     -11.327736      -308.2434 
  10   2.0000     -11.327666      -308.2415 
  11   2.0000     -11.300516      -307.5027 
  12   2.0000     -11.297259      -307.4140 
  13   2.0000     -11.294576      -307.3410 
  14   2.0000     -11.289677      -307.2077 
  15   2.0000     -11.288314      -307.1707 
  16   2.0000     -11.285071      -307.0824 
  17   2.0000     -11.281673      -306.9899 
  18   2.0000     -11.270033      -306.6732 
  19   2.0000     -11.263096      -306.4844 
  20   2.0000     -11.262119      -306.4578 
  21   2.0000     -11.251319      -306.1640 
  22   2.0000     -11.249701      -306.1199 
  23   2.0000     -11.239612      -305.8454 
  24   2.0000     -11.234916      -305.7176 
  25   2.0000     -11.232608      -305.6548 
  26   2.0000     -11.231971      -305.6375 
  27   2.0000     -11.228436      -305.5413 
  28   2.0000     -11.228120      -305.5327 
  29   2.0000     -11.211857      -305.0901 
  30   2.0000     -11.210352      -305.0492 
  31   2.0000     -11.194281      -304.6119 
  32   2.0000     -11.191426      -304.5342 
  33   2.0000     -11.190331      -304.5044 
  34   2.0000     -11.188017      -304.4414 
  35   2.0000     -11.187451      -304.4260 
  36   2.0000     -11.186133      -304.3902 
  37   2.0000     -11.178899      -304.1933 
  38   2.0000     -11.178188      -304.1740 
  39   2.0000     -11.175261      -304.0943 
  40   2.0000     -11.173669      -304.0510 
  41   2.0000     -11.169451      -303.9362 
  42   2.0000     -11.169415      -303.9352 
  43   2.0000     -11.161061      -303.7079 
  44   2.0000     -11.160386      -303.6895 
  45   2.0000     -11.157624      -303.6144 
  46   2.0000     -11.155535      -303.5576 
  47   2.0000     -11.154044      -303.5170 
  48   2.0000     -11.145931      -303.2962 
  49   2.0000     -11.135052      -303.0002 
  50   2.0000     -11.130620      -302.8796 
  51   2.0000     -11.118537      -302.5508 
  52   2.0000      -1.360019       -37.0080 
  53   2.0000      -1.322881       -35.9974 
  54   2.0000      -1.318100       -35.8673 
  55   2.0000      -1.280619       -34.8474 
  56   2.0000      -1.226824       -33.3836 
  57   2.0000      -1.209928       -32.9238 
  58   2.0000      -1.172789       -31.9132 
  59   2.0000      -1.151348       -31.3298 
  60   2.0000      -1.143336       -31.1118 
  61   2.0000      -1.111540       -30.2465 
  62   2.0000      -1.107789       -30.1445 
  63   2.0000      -1.081745       -29.4358 
  64   2.0000      -1.077177       -29.3115 
  65   2.0000      -1.046999       -28.4903 
  66   2.0000      -1.042827       -28.3768 
  67   2.0000      -1.041011       -28.3273 
  68   2.0000      -1.015320       -27.6283 
  69   2.0000      -1.012245       -27.5446 
  70   2.0000      -1.008687       -27.4478 
  71   2.0000      -0.994197       -27.0535 
  72   2.0000      -0.985542       -26.8180 
  73   2.0000      -0.981828       -26.7169 
  74   2.0000      -0.972406       -26.4605 
  75   2.0000      -0.961396       -26.1609 
  76   2.0000      -0.954090       -25.9621 
  77   2.0000      -0.945572       -25.7303 
  78   2.0000      -0.935706       -25.4618 
  79   2.0000      -0.917295       -24.9609 
  80   2.0000      -0.910215       -24.7682 
  81   2.0000      -0.896187       -24.3865 
  82   2.0000      -0.876404       -23.8482 
  83   2.0000      -0.873584       -23.7714 
  84   2.0000      -0.869243       -23.6533 
  85   2.0000      -0.858493       -23.3608 
  86   2.0000      -0.839873       -22.8541 
  87   2.0000      -0.836762       -22.7695 
  88   2.0000      -0.826154       -22.4808 
  89   2.0000      -0.796854       -21.6835 
  90   2.0000      -0.789251       -21.4766 
  91   2.0000      -0.756308       -20.5802 
  92   2.0000      -0.751802       -20.4576 
  93   2.0000      -0.734026       -19.9739 
  94   2.0000      -0.726225       -19.7616 
  95   2.0000      -0.723589       -19.6899 
  96   2.0000      -0.717890       -19.5348 
  97   2.0000      -0.715676       -19.4745 
  98   2.0000      -0.710051       -19.3215 
  99   2.0000      -0.698411       -19.0047 
 100   2.0000      -0.696551       -18.9541 
 101   2.0000      -0.686905       -18.6916 
 102   2.0000      -0.684354       -18.6222 
 103   2.0000      -0.683902       -18.6099 
 104   2.0000      -0.679413       -18.4878 
 105   2.0000      -0.673666       -18.3314 
 106   2.0000      -0.671697       -18.2778 
 107   2.0000      -0.660483       -17.9727 
 108   2.0000      -0.656699       -17.8697 
 109   2.0000      -0.654111       -17.7993 
 110   2.0000      -0.650579       -17.7032 
 111   2.0000      -0.645839       -17.5742 
 112   2.0000      -0.644871       -17.5478 
 113   2.0000      -0.637880       -17.3576 
 114   2.0000      -0.636491       -17.3198 
 115   2.0000      -0.627258       -17.0686 
 116   2.0000      -0.621589       -16.9143 
 117   2.0000      -0.620443       -16.8831 
 118   2.0000      -0.613992       -16.7076 
 119   2.0000      -0.613227       -16.6868 
 120   2.0000      -0.611192       -16.6314 
 121   2.0000      -0.610090       -16.6014 
 122   2.0000      -0.599918       -16.3246 
 123   2.0000      -0.587444       -15.9852 
 124   2.0000      -0.582763       -15.8578 
 125   2.0000      -0.580630       -15.7997 
 126   2.0000      -0.579317       -15.7640 
 127   2.0000      -0.571835       -15.5604 
 128   2.0000      -0.569186       -15.4883 
 129   2.0000      -0.559470       -15.2240 
 130   2.0000      -0.553026       -15.0486 
 131   2.0000      -0.547985       -14.9114 
 132   2.0000      -0.543024       -14.7764 
 133   2.0000      -0.542164       -14.7530 
 134   2.0000      -0.539504       -14.6806 
 135   2.0000      -0.534999       -14.5581 
 136   2.0000      -0.530111       -14.4251 
 137   2.0000      -0.518804       -14.1174 
 138   2.0000      -0.518387       -14.1060 
 139   2.0000      -0.514266       -13.9939 
 140   2.0000      -0.511768       -13.9259 
 141   2.0000      -0.510743       -13.8980 
 142   2.0000      -0.509721       -13.8702 
 143   2.0000      -0.504467       -13.7273 
 144   2.0000      -0.500874       -13.6295 
 145   2.0000      -0.495578       -13.4854 
 146   2.0000      -0.490988       -13.3605 
 147   2.0000      -0.481778       -13.1098 
 148   2.0000      -0.477232       -12.9861 
 149   2.0000      -0.467556       -12.7229 
 150   2.0000      -0.466060       -12.6821 
 151   2.0000      -0.456726       -12.4282 
 152   2.0000      -0.450932       -12.2705 
 153   2.0000      -0.445483       -12.1222 
 154   2.0000      -0.439537       -11.9604 
 155   2.0000      -0.427568       -11.6347 
 156   2.0000      -0.409285       -11.1372 
 157   2.0000      -0.406986       -11.0747 
 158   2.0000      -0.399792       -10.8789 
 159   2.0000      -0.387370       -10.5409 
 160   2.0000      -0.386406       -10.5146 
 161   2.0000      -0.377789       -10.2802 
 162   2.0000      -0.371256       -10.1024 
 163   2.0000      -0.357977        -9.7410 
 164   2.0000      -0.354661        -9.6508 
 165   2.0000      -0.341303        -9.2873 
 166   2.0000      -0.337886        -9.1943 
 167   2.0000      -0.325671        -8.8619 
 168   2.0000      -0.320766        -8.7285 
 169   2.0000      -0.306061        -8.3283 
 170   2.0000      -0.299245        -8.1429 
 171   2.0000      -0.285018        -7.7557 
 172   2.0000      -0.279147        -7.5960 
 173   2.0000      -0.263052        -7.1580 
 174   2.0000      -0.241792        -6.5795 
 175   2.0000      -0.190138        -5.1739 
 176   2.0000      -0.180928        -4.9233 
 177   2.0000      -0.079332        -2.1587 
 178   2.0000      -0.059453        -1.6178 
 179   0.0000       0.028174         0.7667 
 180   0.0000       0.065205         1.7743 
 181   0.0000       0.090468         2.4618 
 182   0.0000       0.106484         2.8976 
 183   0.0000       0.114311         3.1106 
 184   0.0000       0.135876         3.6974 
 185   0.0000       0.140394         3.8203 
 186   0.0000       0.141174         3.8415 
 187   0.0000       0.163938         4.4610 
 188   0.0000       0.164680         4.4812 
 189   0.0000       0.166595         4.5333 
 190   0.0000       0.173520         4.7217 
 191   0.0000       0.180573         4.9136 
 192   0.0000       0.184000         5.0069 
 193   0.0000       0.189312         5.1514 
 194   0.0000       0.203794         5.5455 
 195   0.0000       0.206518         5.6196 
 196   0.0000       0.207151         5.6369 
 197   0.0000       0.209685         5.7058 
 198   0.0000       0.216728         5.8975 
 199   0.0000       0.229072         6.2334 
 200   0.0000       0.233700         6.3593 
 201   0.0000       0.234058         6.3690 
 202   0.0000       0.238277         6.4839 
 203   0.0000       0.240439         6.5427 
 204   0.0000       0.246118         6.6972 
 205   0.0000       0.254907         6.9364 
 206   0.0000       0.255970         6.9653 
 207   0.0000       0.257684         7.0119 
 208   0.0000       0.259583         7.0636 
 209   0.0000       0.260142         7.0788 
 210   0.0000       0.263983         7.1833 
 211   0.0000       0.266547         7.2531 
 212   0.0000       0.269062         7.3215 
 213   0.0000       0.270906         7.3717 
 214   0.0000       0.272665         7.4196 
 215   0.0000       0.276694         7.5292 
 216   0.0000       0.278704         7.5839 
 217   0.0000       0.280686         7.6379 
 218   0.0000       0.285236         7.7617 
 219   0.0000       0.288102         7.8397 
 220   0.0000       0.289114         7.8672 
 221   0.0000       0.292275         7.9532 
 222   0.0000       0.294317         8.0088 
 223   0.0000       0.295635         8.0446 
 224   0.0000       0.298470         8.1218 
 225   0.0000       0.300706         8.1826 
 226   0.0000       0.304245         8.2789 
 227   0.0000       0.309007         8.4085 
 228   0.0000       0.311758         8.4834 
 229   0.0000       0.324345         8.8259 
 230   0.0000       0.327865         8.9217 
 231   0.0000       0.333997         9.0885 
 232   0.0000       0.343431         9.3452 
 233   0.0000       0.353776         9.6267 
 234   0.0000       0.354940         9.6584 
 235   0.0000       0.361213         9.8291 
 236   0.0000       0.375445        10.2164 
 237   0.0000       0.390978        10.6390 
 238   0.0000       0.395384        10.7590 
 239   0.0000       0.397253        10.8098 
 240   0.0000       0.404457        11.0058 
 241   0.0000       0.408752        11.1227 
 242   0.0000       0.411543        11.1987 
 243   0.0000       0.419280        11.4092 
 244   0.0000       0.427962        11.6454 
 245   0.0000       0.434456        11.8222 
 246   0.0000       0.436891        11.8884 
 247   0.0000       0.439982        11.9725 
 248   0.0000       0.442272        12.0348 
 249   0.0000       0.448043        12.1919 
 250   0.0000       0.458769        12.4837 
 251   0.0000       0.466031        12.6814 
 252   0.0000       0.469270        12.7695 
 253   0.0000       0.470597        12.8056 
 254   0.0000       0.472128        12.8473 
 255   0.0000       0.474662        12.9162 
 256   0.0000       0.478533        13.0216 
 257   0.0000       0.479369        13.0443 
 258   0.0000       0.488821        13.3015 
 259   0.0000       0.495504        13.4833 
 260   0.0000       0.504271        13.7219 
 261   0.0000       0.504422        13.7260 
 262   0.0000       0.507063        13.7979 
 263   0.0000       0.511107        13.9079 
 264   0.0000       0.516351        14.0506 
 265   0.0000       0.519514        14.1367 
 266   0.0000       0.525494        14.2994 
 267   0.0000       0.527099        14.3431 
 268   0.0000       0.532827        14.4990 
 269   0.0000       0.536675        14.6037 
 270   0.0000       0.542604        14.7650 
 271   0.0000       0.545261        14.8373 
 272   0.0000       0.558064        15.1857 
 273   0.0000       0.559169        15.2158 
 274   0.0000       0.560675        15.2567 
 275   0.0000       0.566263        15.4088 
 276   0.0000       0.570893        15.5348 
 277   0.0000       0.573159        15.5965 
 278   0.0000       0.578922        15.7533 
 279   0.0000       0.586176        15.9507 
 280   0.0000       0.590662        16.0727 
 281   0.0000       0.593001        16.1364 
 282   0.0000       0.594919        16.1886 
 283   0.0000       0.595666        16.2089 
 284   0.0000       0.597311        16.2537 
 285   0.0000       0.598664        16.2905 
 286   0.0000       0.606217        16.4960 
 287   0.0000       0.610792        16.6205 
 288   0.0000       0.618527        16.8310 
 289   0.0000       0.624634        16.9971 
 290   0.0000       0.625419        17.0185 
 291   0.0000       0.630512        17.1571 
 292   0.0000       0.634179        17.2569 
 293   0.0000       0.637658        17.3516 
 294   0.0000       0.644128        17.5276 
 295   0.0000       0.648803        17.6548 
 296   0.0000       0.652939        17.7674 
 297   0.0000       0.655410        17.8346 
 298   0.0000       0.661693        18.0056 
 299   0.0000       0.665135        18.0992 
 300   0.0000       0.671127        18.2623 
 301   0.0000       0.674982        18.3672 
 302   0.0000       0.677250        18.4289 
 303   0.0000       0.678447        18.4615 
 304   0.0000       0.680904        18.5283 
 305   0.0000       0.684404        18.6236 
 306   0.0000       0.689128        18.7521 
 307   0.0000       0.692079        18.8324 
 308   0.0000       0.695874        18.9357 
 309   0.0000       0.699621        19.0376 
 310   0.0000       0.701707        19.0944 
 311   0.0000       0.704596        19.1730 
 312   0.0000       0.707235        19.2448 
 313   0.0000       0.710522        19.3343 
 314   0.0000       0.711302        19.3555 
 315   0.0000       0.714454        19.4413 
 316   0.0000       0.716519        19.4975 
 317   0.0000       0.719125        19.5684 
 318   0.0000       0.722905        19.6712 
 319   0.0000       0.726386        19.7660 
 320   0.0000       0.729212        19.8429 
 321   0.0000       0.729682        19.8557 
 322   0.0000       0.731550        19.9065 
 323   0.0000       0.733421        19.9574 
 324   0.0000       0.735301        20.0086 
 325   0.0000       0.740980        20.1631 
 326   0.0000       0.744849        20.2684 
 327   0.0000       0.748146        20.3581 
 328   0.0000       0.750358        20.4183 
 329   0.0000       0.753172        20.4948 
 330   0.0000       0.759593        20.6696 
 331   0.0000       0.760456        20.6930 
 332   0.0000       0.765485        20.8299 
 333   0.0000       0.766892        20.8682 
 334   0.0000       0.768997        20.9255 
 335   0.0000       0.773623        21.0514 
 336   0.0000       0.776878        21.1399 
 337   0.0000       0.782261        21.2864 
 338   0.0000       0.786216        21.3940 
 339   0.0000       0.789493        21.4832 
 340   0.0000       0.793297        21.5867 
 341   0.0000       0.795677        21.6515 
 342   0.0000       0.797868        21.7111 
 343   0.0000       0.803514        21.8647 
 344   0.0000       0.805961        21.9313 
 345   0.0000       0.806441        21.9444 
 346   0.0000       0.808205        21.9924 
 347   0.0000       0.811970        22.0948 
 348   0.0000       0.816247        22.2112 
 349   0.0000       0.816799        22.2262 
 350   0.0000       0.818542        22.2737 
 351   0.0000       0.821147        22.3445 
 352   0.0000       0.822669        22.3860 
 353   0.0000       0.825893        22.4737 
 354   0.0000       0.829148        22.5623 
 355   0.0000       0.832344        22.6492 
 356   0.0000       0.835961        22.7477 
 357   0.0000       0.836311        22.7572 
 358   0.0000       0.838073        22.8051 
 359   0.0000       0.839767        22.8512 
 360   0.0000       0.842653        22.9298 
 361   0.0000       0.844329        22.9753 
 362   0.0000       0.845494        23.0071 
 363   0.0000       0.847709        23.0673 
 364   0.0000       0.849470        23.1153 
 365   0.0000       0.853209        23.2170 
 366   0.0000       0.858633        23.3646 
 367   0.0000       0.864059        23.5123 
 368   0.0000       0.864517        23.5247 
 369   0.0000       0.866230        23.5713 
 370   0.0000       0.869946        23.6724 
 371   0.0000       0.871650        23.7188 
 372   0.0000       0.875987        23.8368 
 373   0.0000       0.878449        23.9038 
 374   0.0000       0.878851        23.9148 
 375   0.0000       0.883176        24.0325 
 376   0.0000       0.887015        24.1369 
 377   0.0000       0.890288        24.2260 
 378   0.0000       0.892145        24.2765 
 379   0.0000       0.894183        24.3319 
 380   0.0000       0.895688        24.3729 
 381   0.0000       0.898902        24.4604 
 382   0.0000       0.899111        24.4660 
 383   0.0000       0.901374        24.5276 
 384   0.0000       0.905646        24.6439 
 385   0.0000       0.906153        24.6577 
 386   0.0000       0.909682        24.7537 
 387   0.0000       0.909900        24.7596 
 388   0.0000       0.913954        24.8699 
 389   0.0000       0.916035        24.9266 
 390   0.0000       0.920526        25.0488 
 391   0.0000       0.926228        25.2040 
 392   0.0000       0.926954        25.2237 
 393   0.0000       0.927915        25.2499 
 394   0.0000       0.929191        25.2846 
 395   0.0000       0.932968        25.3874 
 396   0.0000       0.934363        25.4253 
 397   0.0000       0.938066        25.5261 
 398   0.0000       0.942384        25.6436 
 399   0.0000       0.945404        25.7258 
 400   0.0000       0.947651        25.7869 
 401   0.0000       0.952206        25.9108 
 402   0.0000       0.954274        25.9671 
 403   0.0000       0.956039        26.0152 
 404   0.0000       0.960471        26.1357 
 405   0.0000       0.965165        26.2635 
 406   0.0000       0.968161        26.3450 
 407   0.0000       0.978997        26.6399 
 408   0.0000       0.980115        26.6703 
 409   0.0000       0.982865        26.7451 
 410   0.0000       0.986226        26.8366 
 411   0.0000       0.987714        26.8771 
 412   0.0000       0.995135        27.0790 
 413   0.0000       1.002409        27.2769 
 414   0.0000       1.006932        27.4000 
 415   0.0000       1.011193        27.5160 
 416   0.0000       1.014409        27.6035 
 417   0.0000       1.019035        27.7293 
 418   0.0000       1.021002        27.7829 
 419   0.0000       1.028184        27.9783 
 420   0.0000       1.033826        28.1318 
 421   0.0000       1.036645        28.2086 
 422   0.0000       1.048796        28.5392 
 423   0.0000       1.049702        28.5638 
 424   0.0000       1.052926        28.6516 
 425   0.0000       1.071115        29.1465 
 426   0.0000       1.073264        29.2050 
 427   0.0000       1.075900        29.2767 
 428   0.0000       1.080790        29.4098 
 429   0.0000       1.081484        29.4287 
 430   0.0000       1.085081        29.5266 
 431   0.0000       1.087284        29.5865 
 432   0.0000       1.094002        29.7693 
 433   0.0000       1.099624        29.9223 
 434   0.0000       1.105623        30.0855 
 435   0.0000       1.106751        30.1162 
 436   0.0000       1.108766        30.1710 
 437   0.0000       1.112322        30.2678 
 438   0.0000       1.119354        30.4592 
 439   0.0000       1.120800        30.4985 
 440   0.0000       1.122170        30.5358 
 441   0.0000       1.126586        30.6560 
 442   0.0000       1.127184        30.6722 
 443   0.0000       1.132031        30.8041 
 444   0.0000       1.134529        30.8721 
 445   0.0000       1.136282        30.9198 
 446   0.0000       1.142457        31.0878 
 447   0.0000       1.150063        31.2948 
 448   0.0000       1.150576        31.3088 
 449   0.0000       1.154563        31.4173 
 450   0.0000       1.158615        31.5275 
 451   0.0000       1.161027        31.5932 
 452   0.0000       1.163458        31.6593 
 453   0.0000       1.166969        31.7548 
 454   0.0000       1.169268        31.8174 
 455   0.0000       1.173316        31.9276 
 456   0.0000       1.177998        32.0550 
 457   0.0000       1.184763        32.2390 
 458   0.0000       1.189780        32.3756 
 459   0.0000       1.196672        32.5631 
 460   0.0000       1.200476        32.6666 
 461   0.0000       1.201377        32.6911 
 462   0.0000       1.203332        32.7443 
 463   0.0000       1.205375        32.7999 
 464   0.0000       1.208521        32.8855 
 465   0.0000       1.214572        33.0502 
 466   0.0000       1.216677        33.1075 
 467   0.0000       1.219584        33.1866 
 468   0.0000       1.224955        33.3327 
 469   0.0000       1.229416        33.4541 
 470   0.0000       1.235463        33.6187 
 471   0.0000       1.236966        33.6596 
 472   0.0000       1.237765        33.6813 
 473   0.0000       1.238854        33.7109 
 474   0.0000       1.241675        33.7877 
 475   0.0000       1.243976        33.8503 
 476   0.0000       1.247857        33.9559 
 477   0.0000       1.253119        34.0991 
 478   0.0000       1.255007        34.1505 
 479   0.0000       1.255368        34.1603 
 480   0.0000       1.261573        34.3292 
 481   0.0000       1.267699        34.4958 
 482   0.0000       1.270740        34.5786 
 483   0.0000       1.273176        34.6449 
 484   0.0000       1.274396        34.6781 
 485   0.0000       1.280791        34.8521 
 486   0.0000       1.284514        34.9534 
 487   0.0000       1.285924        34.9918 
 488   0.0000       1.290711        35.1220 
 489   0.0000       1.296937        35.2915 
 490   0.0000       1.297878        35.3171 
 491   0.0000       1.301062        35.4037 
 492   0.0000       1.303397        35.4672 
 493   0.0000       1.308266        35.5997 
 494   0.0000       1.312958        35.7274 
 495   0.0000       1.317682        35.8559 
 496   0.0000       1.319110        35.8948 
 497   0.0000       1.320359        35.9288 
 498   0.0000       1.326744        36.1025 
 499   0.0000       1.327148        36.1135 
 500   0.0000       1.329724        36.1836 
 501   0.0000       1.336816        36.3766 
 502   0.0000       1.340617        36.4800 
 503   0.0000       1.343524        36.5592 
 504   0.0000       1.348504        36.6947 
 505   0.0000       1.350409        36.7465 
 506   0.0000       1.353564        36.8324 
 507   0.0000       1.355376        36.8817 
 508   0.0000       1.357151        36.9300 
 509   0.0000       1.363149        37.0932 
[...]
      pz      :     0.022118  p :     0.079786
      px      :     0.043619
      py      :     0.014049
 77 H s       :     0.884512  s :     0.884512
      pz      :     0.047983  p :     0.079295
      px      :     0.015024
      py      :     0.016288
 78 H s       :     0.884899  s :     0.884899
      pz      :     0.025883  p :     0.079258
      px      :     0.020454
      py      :     0.032921
 79 H s       :     0.910566  s :     0.910566
      pz      :     0.021795  p :     0.086323
      px      :     0.021661
      py      :     0.042867
 80 H s       :     0.864477  s :     0.864477
      pz      :     0.039392  p :     0.084844
      px      :     0.030297
      py      :     0.015155
 81 H s       :     0.886970  s :     0.886970
      pz      :     0.037814  p :     0.084115
      px      :     0.016190
      py      :     0.030111
 82 H s       :     0.916216  s :     0.916216
      pz      :     0.021966  p :     0.086717
      px      :     0.031647
      py      :     0.033104
 83 H s       :     0.873723  s :     0.873723
      pz      :     0.039246  p :     0.084066
      px      :     0.015282
      py      :     0.029538
 84 H s       :     0.886969  s :     0.886969
      pz      :     0.035750  p :     0.083433
      px      :     0.031685
      py      :     0.015998
 85 H s       :     0.893078  s :     0.893078
      pz      :     0.022484  p :     0.079773
      px      :     0.014079
      py      :     0.043211
 86 H s       :     0.891185  s :     0.891185
      pz      :     0.024723  p :     0.078812
      px      :     0.032967
      py      :     0.021121
 87 H s       :     0.889989  s :     0.889989
      pz      :     0.048005  p :     0.078727
      px      :     0.015585
      py      :     0.015137
 88 H s       :     0.910559  s :     0.910559
      pz      :     0.021655  p :     0.087040
      px      :     0.042926
      py      :     0.022459
 89 H s       :     0.871151  s :     0.871151
      pz      :     0.037952  p :     0.083840
      px      :     0.030489
      py      :     0.015400


                      *****************************
                      * MAYER POPULATION ANALYSIS *
                      *****************************

  NA   - Mulliken gross atomic population
  ZA   - Total nuclear charge
  QA   - Mulliken gross atomic charge
  VA   - Mayer's total valence
  BVA  - Mayer's bonded valence
  FA   - Mayer's free valence

  ATOM       NA         ZA         QA         VA         BVA        FA
  0 C      5.7867     6.0000     0.2133     3.8440     3.8440    -0.0000
  1 N      7.4568     7.0000    -0.4568     3.3371     3.3371     0.0000
  2 C      6.0764     6.0000    -0.0764     3.9241     3.9241    -0.0000
  3 N      7.3403     7.0000    -0.3403     3.4579     3.4579    -0.0000
  4 C      6.0626     6.0000    -0.0626     4.0943     4.0943     0.0000
  5 N      7.5661     7.0000    -0.5661     3.0963     3.0963    -0.0000
  6 C      6.1228     6.0000    -0.1228     3.9585     3.9585    -0.0000
  7 N      7.3409     7.0000    -0.3409     3.4324     3.4324    -0.0000
  8 C      5.7838     6.0000     0.2162     3.8486     3.8486    -0.0000
  9 N      7.5626     7.0000    -0.5626     3.0773     3.0773     0.0000
 10 C      5.8812     6.0000     0.1188     3.9097     3.9097    -0.0000
 11 N      7.4381     7.0000    -0.4381     3.3802     3.3802     0.0000
 12 C      6.0614     6.0000    -0.0614     3.8583     3.8583    -0.0000
 13 N      7.4294     7.0000    -0.4294     3.4280     3.4280    -0.0000
 14 C      5.7879     6.0000     0.2121     3.7909     3.7909    -0.0000
 15 N      7.4413     7.0000    -0.4413     3.3706     3.3706     0.0000
 16 C      5.7672     6.0000     0.2328     3.7766     3.7766    -0.0000
 17 C      6.1199     6.0000    -0.1199     3.9586     3.9586    -0.0000
 18 C      6.1551     6.0000    -0.1551     3.7499     3.7499    -0.0000
 19 C      5.7974     6.0000     0.2026     3.8672     3.8672    -0.0000
 20 C      5.7854     6.0000     0.2146     3.8287     3.8287     0.0000
 21 C      6.0771     6.0000    -0.0771     3.8606     3.8606    -0.0000
 22 C      6.0892     6.0000    -0.0892     3.9820     3.9820     0.0000
 23 C      6.0397     6.0000    -0.0397     3.9924     3.9924    -0.0000
 24 C      5.8055     6.0000     0.1945     3.8211     3.8211     0.0000
 25 C      5.8857     6.0000     0.1143     3.8908     3.8908     0.0000
 26 C      6.0885     6.0000    -0.0885     3.9094     3.9094    -0.0000
 27 C      5.7862     6.0000     0.2138     3.8609     3.8609     0.0000
 28 C      6.0615     6.0000    -0.0615     3.9888     3.9888     0.0000
 29 C      6.1825     6.0000    -0.1825     3.7468     3.7468     0.0000
 30 C      5.7540     6.0000     0.2460     3.7991     3.7991    -0.0000
 31 C      5.7691     6.0000     0.2309     3.8173     3.8173    -0.0000
 32 C      6.0613     6.0000    -0.0613     3.9236     3.9236     0.0000
 33 C      6.0605     6.0000    -0.0605     3.9712     3.9712     0.0000
 34 C      6.0504     6.0000    -0.0504     3.9837     3.9837     0.0000
 35 C      5.7725     6.0000     0.2275     3.8163     3.8163     0.0000
 36 C      5.8917     6.0000     0.1083     3.8748     3.8748     0.0000
 37 C      6.0643     6.0000    -0.0643     3.9177     3.9177     0.0000
 38 C      5.7682     6.0000     0.2318     3.8019     3.8019    -0.0000
 39 C      6.0584     6.0000    -0.0584     3.9830     3.9830     0.0000
 40 C      6.1809     6.0000    -0.1809     3.7266     3.7266     0.0000
 41 C      5.7750     6.0000     0.2250     3.8870     3.8870     0.0000
 42 C      5.8031     6.0000     0.1969     3.8259     3.8259    -0.0000
 43 C      6.0727     6.0000    -0.0727     3.8999     3.8999    -0.0000
 44 C      6.0906     6.0000    -0.0906     3.9859     3.9859    -0.0000
 45 C      6.0616     6.0000    -0.0616     3.9920     3.9920    -0.0000
 46 C      5.7893     6.0000     0.2107     3.8288     3.8288    -0.0000
 47 C      5.8844     6.0000     0.1156     3.8935     3.8935     0.0000
 48 C      6.0671     6.0000    -0.0671     3.9092     3.9092    -0.0000
 49 C      5.7617     6.0000     0.2383     3.8958     3.8958    -0.0000
 50 C      6.0463     6.0000    -0.0463     3.9904     3.9904     0.0000
 51 C      6.1953     6.0000    -0.1953     3.7371     3.7371    -0.0000
 52 H      0.9633     1.0000     0.0367     0.9859     0.9859     0.0000
 53 H      1.0179     1.0000    -0.0179     0.9991     0.9991    -0.0000
 54 H      0.9529     1.0000     0.0471     1.0186     1.0186     0.0000
 55 H      0.9651     1.0000     0.0349     0.9865     0.9865     0.0000
 56 H      0.9507     1.0000     0.0493     0.9695     0.9695    -0.0000
 57 H      0.9524     1.0000     0.0476     0.9823     0.9823    -0.0000
 58 H      0.9534     1.0000     0.0466     0.9849     0.9849    -0.0000
 59 H      1.0054     1.0000    -0.0054     1.0007     1.0007     0.0000
 60 H      0.9491     1.0000     0.0509     1.0244     1.0244     0.0000
 61 H      0.8290     1.0000     0.1710     1.0421     1.0421     0.0000
 62 H      0.8243     1.0000     0.1757     1.0436     1.0436    -0.0000
 63 H      0.9440     1.0000     0.0560     0.9852     0.9852     0.0000
 64 H      1.0100     1.0000    -0.0100     0.9945     0.9945    -0.0000
 65 H      0.9528     1.0000     0.0472     1.0100     1.0100     0.0000
 66 H      0.9439     1.0000     0.0561     0.9854     0.9854    -0.0000
 67 H      0.9369     1.0000     0.0631     0.9720     0.9720     0.0000
 68 H      0.9425     1.0000     0.0575     0.9868     0.9868    -0.0000
 69 H      0.9432     1.0000     0.0568     0.9828     0.9828     0.0000
 70 H      1.0298     1.0000    -0.0298     0.9937     0.9937    -0.0000
 71 H      0.9545     1.0000     0.0455     1.0058     1.0058     0.0000
 72 H      0.9286     1.0000     0.0714     0.9835     0.9835    -0.0000
 73 H      1.0079     1.0000    -0.0079     1.0009     1.0009     0.0000
 74 H      0.9395     1.0000     0.0605     1.0101     1.0101     0.0000
 75 H      0.9293     1.0000     0.0707     0.9839     0.9839    -0.0000
 76 H      0.9250     1.0000     0.0750     0.9721     0.9721     0.0000
 77 H      0.9320     1.0000     0.0680     0.9855     0.9855     0.0000
 78 H      0.9328     1.0000     0.0672     0.9854     0.9854    -0.0000
 79 H      1.0163     1.0000    -0.0163     0.9976     0.9976    -0.0000
 80 H      0.9388     1.0000     0.0612     1.0072     1.0072    -0.0000
 81 H      0.9460     1.0000     0.0540     0.9857     0.9857    -0.0000
 82 H      1.0253     1.0000    -0.0253     0.9933     0.9933    -0.0000
 83 H      0.9588     1.0000     0.0412     1.0083     1.0083    -0.0000
 84 H      0.9464     1.0000     0.0536     0.9852     0.9852     0.0000
 85 H      0.9396     1.0000     0.0604     0.9716     0.9716    -0.0000
 86 H      0.9448     1.0000     0.0552     0.9839     0.9839    -0.0000
 87 H      0.9430     1.0000     0.0570     0.9856     0.9856    -0.0000
 88 H      1.0145     1.0000    -0.0145     0.9968     0.9968    -0.0000
 89 H      0.9531     1.0000     0.0469     1.0073     1.0073    -0.0000

  Mayer bond orders larger than 0.100000
B(  0-C ,  1-N ) :   1.0898 B(  0-C , 17-C ) :   1.7185 B(  0-C , 52-H ) :   0.9635 
B(  1-N ,  8-C ) :   1.0942 B(  1-N , 10-C ) :   0.9782 B(  2-C , 12-C ) :   1.4902 
B(  2-C , 16-C ) :   1.3697 B(  2-C , 53-H ) :   0.9740 B(  3-N , 14-C ) :   1.2204 
B(  3-N , 16-C ) :   1.1848 B(  3-N , 61-H ) :   0.8991 B(  4-C ,  6-C ) :   1.2136 
B(  4-C , 17-C ) :   1.2138 B(  4-C , 18-C ) :   1.4677 B(  5-N , 19-C ) :   1.4567 
B(  5-N , 27-C ) :   1.3734 B(  6-C ,  8-C ) :   1.7162 B(  6-C , 54-H ) :   0.9170 
B(  7-N , 30-C ) :   1.1945 B(  7-N , 38-C ) :   1.1904 B(  7-N , 62-H ) :   0.8966 
B(  8-C , 55-H ) :   0.9644 B(  9-N , 41-C ) :   1.3923 B(  9-N , 49-C ) :   1.4276 
B( 10-C , 56-H ) :   0.9774 B( 10-C , 57-H ) :   0.9832 B( 10-C , 58-H ) :   0.9834 
B( 11-N , 20-C ) :   1.1325 B( 11-N , 24-C ) :   1.1085 B( 11-N , 25-C ) :   0.9594 
B( 12-C , 14-C ) :   1.3592 B( 12-C , 59-H ) :   0.9509 B( 13-N , 31-C ) :   1.1623 
B( 13-N , 35-C ) :   1.1591 B( 13-N , 36-C ) :   0.9414 B( 14-C , 18-C ) :   1.1179 
B( 15-N , 42-C ) :   1.1067 B( 15-N , 46-C ) :   1.1230 B( 15-N , 47-C ) :   0.9619 
B( 16-C , 51-C ) :   1.1670 B( 17-C , 60-H ) :   0.9210 B( 18-C , 19-C ) :   1.1185 
B( 19-C , 21-C ) :   1.2507 B( 20-C , 28-C ) :   1.6269 B( 20-C , 63-H ) :   0.9702 
B( 21-C , 26-C ) :   1.5922 B( 21-C , 64-H ) :   0.9533 B( 22-C , 23-C ) :   1.2910 
B( 22-C , 28-C ) :   1.2655 B( 22-C , 29-C ) :   1.2228 B( 23-C , 24-C ) :   1.6183 
B( 23-C , 65-H ) :   0.9703 B( 24-C , 66-H ) :   0.9695 B( 25-C , 67-H ) :   0.9760 
B( 25-C , 68-H ) :   0.9828 B( 25-C , 69-H ) :   0.9823 B( 26-C , 27-C ) :   1.2530 
B( 26-C , 70-H ) :   0.9681 B( 27-C , 29-C ) :   1.2080 B( 28-C , 71-H ) :   0.9720 
B( 29-C , 30-C ) :   1.2476 B( 30-C , 32-C ) :   1.2776 B( 31-C , 39-C ) :   1.5880 
B( 31-C , 72-H ) :   0.9681 B( 32-C , 37-C ) :   1.5816 B( 32-C , 73-H ) :   0.9786 
B( 33-C , 34-C ) :   1.3080 B( 33-C , 39-C ) :   1.3033 B( 33-C , 40-C ) :   1.1752 
B( 34-C , 35-C ) :   1.5850 B( 34-C , 74-H ) :   0.9696 B( 35-C , 75-H ) :   0.9681 
B( 36-C , 76-H ) :   0.9767 B( 36-C , 77-H ) :   0.9815 B( 36-C , 78-H ) :   0.9823 
B( 37-C , 38-C ) :   1.2831 B( 37-C , 79-H ) :   0.9765 B( 38-C , 40-C ) :   1.2353 
B( 39-C , 80-H ) :   0.9705 B( 40-C , 41-C ) :   1.2504 B( 41-C , 43-C ) :   1.1859 
B( 42-C , 50-C ) :   1.6350 B( 42-C , 81-H ) :   0.9697 B( 43-C , 48-C ) :   1.6666 
B( 43-C , 82-H ) :   0.9720 B( 44-C , 45-C ) :   1.2622 B( 44-C , 50-C ) :   1.2706 
B( 44-C , 51-C ) :   1.2644 B( 45-C , 46-C ) :   1.6362 B( 45-C , 83-H ) :   0.9719 
B( 46-C , 84-H ) :   0.9701 B( 47-C , 85-H ) :   0.9762 B( 47-C , 86-H ) :   0.9829 
B( 47-C , 87-H ) :   0.9825 B( 48-C , 49-C ) :   1.1895 B( 48-C , 88-H ) :   0.9749 
B( 49-C , 51-C ) :   1.2424 B( 50-C , 89-H ) :   0.9708 

-------
TIMINGS
-------

Total SCF time: 0 days 0 hours 28 min 22 sec 

Total time                  ....    1702.583 sec
Sum of individual times     ....    1697.773 sec  ( 99.7%)

Fock matrix formation       ....    1669.946 sec  ( 98.1%)
Diagonalization             ....       8.826 sec  (  0.5%)
Density matrix formation    ....       0.523 sec  (  0.0%)
Population analysis         ....       0.595 sec  (  0.0%)
Initial guess               ....       2.512 sec  (  0.1%)
Orbital Transformation      ....       0.000 sec  (  0.0%)
Orbital Orthonormalization  ....       0.000 sec  (  0.0%)
DIIS solution               ....       3.970 sec  (  0.2%)
SOSCF solution              ....      10.104 sec  (  0.6%)

Maximum memory used throughout the entire SCF-calculation: 302.7 MB


           ************************************************************
           *        Program running with 16 parallel MPI-processes    *
           *              working on a common directory               *
           ************************************************************

------------------------------------------------------------------------------
                                ORCA  MP2 
------------------------------------------------------------------------------

Freezing NCore=104 chemical core electrons

----------
MP2 ENERGY (disk based algorithm)
----------

Dimension of the basis                    ...  918
Memory devoted to MP2                     ... 2000 MB   
Data format for buffers                   ... DOUBLE
Compression type for matrix containers    ... UNCOMPRESSED

-------------------------------
PARTIAL EXCHANGE TRANSFORMATION
-------------------------------

Transformation type                        ... one-operator
Generation of integrals (i,mue|j,nue)      ... ON
Generation of integrals (mue,kappa|nue,tau)... OFF
Generation of integrals (i,mue|a,nue)      ... OFF
Dimension of the basis                     ...  918
Number of internal MOs                     ...  127 (  52- 178)
Pair cutoff                                ... 2.500e-12 Eh
Number of AO pairs in the trafo            ... 421821
Total Number of distinct AO pairs          ... 421821
Memory devoted for trafo                   ... 2000.0 MB 
Max. Number of MO pairs treated together   ...  311      
Number Format for Storage                  ... Double (8 Byte)
Integral package used                      ... LIBINT

Starting integral evaluation:
    ... done with AO integral generation
Closing buffer AOK     (38.29 GB; CompressionRatio= 1.32)
Collecting buffer AOK 
Number of MO pairs included in the trafo   ... 8128
------------------------
SORTING OF (i,mue|j,nue)
------------------------

IBATCH = 1 of  2
IBATCH = 2 of  2
Closing buffer KAO     (51.03 GB; CompressionRatio= 1.00)
Collecting buffer KAO 
N(AO-Batches) Done                         ...  86152826 
N(AO-Batches) Skipped                      ...  82224143 
N(IJ)-pairs Skipped                        ...         0 
TOTAL TIME for half transformation         ...  2327.000 sec
AO-integral generation                     ...   212.000 sec
Half transformation                        ...   423.160 sec
K-integral sorting                         ...  1467.079 sec
Process 10:   Internal MO 132
Process 13:   Internal MO 156

Finished integral transformation - now doing MP2 part

OPERATOR COMBINATION   0   0: ij=( 52..178, 52..178)
Process  7:   Internal MO 108
Process  1:   Internal MO  60
Process  4:   Internal MO  84
Process  0:   Internal MO  54
Process  2:   Internal MO  69
Process  0:   Internal MO  57
Process  1:   Internal MO  63
Process  5:   Internal MO  93
Process  3:   Internal MO  78
Process  8:   Internal MO 117
Process  2:   Internal MO  72
Process  1:   Internal MO  66
Process  6:   Internal MO 102
Process 14:   Internal MO 165
Process 11:   Internal MO 141
Process  4:   Internal MO  87
Process  3:   Internal MO  81
Process  9:   Internal MO 126
Process  2:   Internal MO  75
Process  5:   Internal MO  96
Process  7:   Internal MO 111
Process  4:   Internal MO  90
Process 12:   Internal MO 150
Process 10:   Internal MO 135
Process 15:   Internal MO 174
Process  6:   Internal MO 105
Process  8:   Internal MO 120
Process  5:   Internal MO  99
Process  9:   Internal MO 129
Process  7:   Internal MO 114
Process 13:   Internal MO 159
Process 11:   Internal MO 144
Process 14:   Internal MO 168
Process  8:   Internal MO 123
Process 10:   Internal MO 138
Process 12:   Internal MO 153
Process 15:   Internal MO 177
Process 11:   Internal MO 147
Process 13:   Internal MO 162
Process 14:   Internal MO 171
-----------------------------------------------
 MP2 CORRELATION ENERGY   :     -7.285389271 Eh
-----------------------------------------------


-------
TIMINGS
-------
Total time                : 2614.001 sec
Integral trafo            : 2329.141 sec ( 89.1%)
K(i,j)                    :    7.655 sec (  0.3%)
T(i,j)                    :    0.440 sec (  0.0%)

---------------------------------------
MP2 TOTAL ENERGY:    -2130.834278814 Eh
---------------------------------------

Maximum memory used throughout the entire MP2-calculation: 2275.3 MB

-------------------------   --------------------
FINAL SINGLE POINT ENERGY     -2130.834278814497
-------------------------   --------------------


                            ***************************************
                            *     ORCA property calculations      *
                            ***************************************


  WARNING: The energy has been calculated at the MP2 level but the densities
           used in the property calculations are still SCF densities
           MP2 response densities have not been calculated 
           use %mp2 Density relaxed end
           or  %mp2 Density unrelaxed end

                                    ---------------------
                                    Active property flags
                                    ---------------------
   (+) Dipole Moment


------------------------------------------------------------------------------
                       ORCA ELECTRIC PROPERTIES CALCULATION
------------------------------------------------------------------------------

Dipole Moment Calculation                       ... on
Quadrupole Moment Calculation                   ... off
Polarizability Calculation                      ... off
GBWName                                         ... /scratch/allen/tmpyp4_amber_gaff2/conf1/conf1/Conf165.orca.gbw
Electron density                                ... /scratch/allen/tmpyp4_amber_gaff2/conf1/conf1/Conf165.orca.scfp
The origin for moment calculation is the CENTER OF MASS  = ( 0.003398, -0.001748  0.001147)

-------------
DIPOLE MOMENT
-------------
                                X             Y             Z
Electronic contribution:      2.59505      -4.44847      -0.21861
Nuclear contribution   :      0.04948       0.21959       0.21472
                        -----------------------------------------
Total Dipole Moment    :      2.64453      -4.22888      -0.00389
                        -----------------------------------------
Magnitude (a.u.)       :      4.98768
Magnitude (Debye)      :     12.67768



--------------------
Rotational spectrum 
--------------------
 
Rotational constants in cm-1:     0.001501     0.001479     0.000760 
Rotational constants in MHz :    44.999877    44.344070    22.787985 

 Dipole components along the rotational axes: 
x,y,z [a.u.] :     3.404241    -3.645289    -0.000729 
x,y,z [Debye]:     8.652894    -9.265588    -0.001853 

 

Timings for individual modules:

Sum of individual times         ...     4341.330 sec (=  72.355 min)
GTO integral calculation        ...        3.428 sec (=   0.057 min)   0.1 %
SCF iterations                  ...     1703.751 sec (=  28.396 min)  39.2 %
MP2 module                      ...     2634.151 sec (=  43.903 min)  60.7 %
                             ****ORCA TERMINATED NORMALLY****
TOTAL RUN TIME: 0 days 1 hours 12 minutes 24 seconds 682 msec
# of primitive gaussian functions

