
                                 *****************
                                 * O   R   C   A *
                                 *****************

                                            #,                                       
                                            ###                                      
                                            ####                                     
                                            #####                                    
                                            ######                                   
                                           ########,                                 
                                     ,,################,,,,,                         
                               ,,#################################,,                 
                          ,,##########################################,,             
                       ,#########################################, ''#####,          
                    ,#############################################,,   '####,        
                  ,##################################################,,,,####,       
                ,###########''''           ''''###############################       
              ,#####''   ,,,,##########,,,,          '''####'''          '####       
            ,##' ,,,,###########################,,,                        '##       
           ' ,,###''''                  '''############,,,                           
         ,,##''                                '''############,,,,        ,,,,,,###''
      ,#''                                            '''#######################'''  
     '                                                          ''''####''''         
             ,#######,   #######,   ,#######,      ##                                
            ,#'     '#,  ##    ##  ,#'     '#,    #''#        ######   ,####,        
            ##       ##  ##   ,#'  ##            #'  '#       #        #'  '#        
            ##       ##  #######   ##           ,######,      #####,   #    #        
            '#,     ,#'  ##    ##  '#,     ,#' ,#      #,         ##   #,  ,#        
             '#######'   ##     ##  '#######'  #'      '#     #####' # '####'        



                  #######################################################
                  #                        -***-                        #
                  #          Department of theory and spectroscopy      #
                  #    Directorship and core code : Frank Neese         #
                  #        Max Planck Institute fuer Kohlenforschung    #
                  #                Kaiser Wilhelm Platz 1               #
                  #                 D-45470 Muelheim/Ruhr               #
                  #                      Germany                        #
                  #                                                     #
                  #                  All rights reserved                #
                  #                        -***-                        #
                  #######################################################


                         Program Version 5.0.4 -  RELEASE  -


 With contributions from (in alphabetic order):
   Daniel Aravena         : Magnetic Suceptibility
   Michael Atanasov       : Ab Initio Ligand Field Theory (pilot matlab implementation)
   Alexander A. Auer      : GIAO ZORA, VPT2 properties, NMR spectrum
   Ute Becker             : Parallelization
   Giovanni Bistoni       : ED, misc. LED, open-shell LED, HFLD
   Martin Brehm           : Molecular dynamics
   Dmytro Bykov           : SCF Hessian
   Vijay G. Chilkuri      : MRCI spin determinant printing, contributions to CSF-ICE
   Dipayan Datta          : RHF DLPNO-CCSD density
   Achintya Kumar Dutta   : EOM-CC, STEOM-CC
   Dmitry Ganyushin       : Spin-Orbit,Spin-Spin,Magnetic field MRCI
   Miquel Garcia          : C-PCM and meta-GGA Hessian, CC/C-PCM, Gaussian charge scheme
   Yang Guo               : DLPNO-NEVPT2, F12-NEVPT2, CIM, IAO-localization
   Andreas Hansen         : Spin unrestricted coupled pair/coupled cluster methods
   Benjamin Helmich-Paris : MC-RPA, TRAH-SCF, COSX integrals
   Lee Huntington         : MR-EOM, pCC
   Robert Izsak           : Overlap fitted RIJCOSX, COSX-SCS-MP3, EOM
   Marcus Kettner         : VPT2
   Christian Kollmar      : KDIIS, OOCD, Brueckner-CCSD(T), CCSD density, CASPT2, CASPT2-K
   Simone Kossmann        : Meta GGA functionals, TD-DFT gradient, OOMP2, MP2 Hessian
   Martin Krupicka        : Initial AUTO-CI
   Lucas Lang             : DCDCAS
   Marvin Lechner         : AUTO-CI (C++ implementation), FIC-MRCC
   Dagmar Lenk            : GEPOL surface, SMD
   Dimitrios Liakos       : Extrapolation schemes; Compound Job, initial MDCI parallelization
   Dimitrios Manganas     : Further ROCIS development; embedding schemes
   Dimitrios Pantazis     : SARC Basis sets
   Anastasios Papadopoulos: AUTO-CI, single reference methods and gradients
   Taras Petrenko         : DFT Hessian,TD-DFT gradient, ASA, ECA, R-Raman, ABS, FL, XAS/XES, NRVS
   Peter Pinski           : DLPNO-MP2, DLPNO-MP2 Gradient
   Christoph Reimann      : Effective Core Potentials
   Marius Retegan         : Local ZFS, SOC
   Christoph Riplinger    : Optimizer, TS searches, QM/MM, DLPNO-CCSD(T), (RO)-DLPNO pert. Triples
   Tobias Risthaus        : Range-separated hybrids, TD-DFT gradient, RPA, STAB
   Michael Roemelt        : Original ROCIS implementation
   Masaaki Saitow         : Open-shell DLPNO-CCSD energy and density
   Barbara Sandhoefer     : DKH picture change effects
   Avijit Sen             : IP-ROCIS
   Kantharuban Sivalingam : CASSCF convergence, NEVPT2, FIC-MRCI
   Bernardo de Souza      : ESD, SOC TD-DFT
   Georgi Stoychev        : AutoAux, RI-MP2 NMR, DLPNO-MP2 response
   Willem Van den Heuvel  : Paramagnetic NMR
   Boris Wezisla          : Elementary symmetry handling
   Frank Wennmohs         : Technical directorship


 We gratefully acknowledge several colleagues who have allowed us to
 interface, adapt or use parts of their codes:
   Stefan Grimme, W. Hujo, H. Kruse, P. Pracht,  : VdW corrections, initial TS optimization,
                  C. Bannwarth, S. Ehlert          DFT functionals, gCP, sTDA/sTD-DF
   Ed Valeev, F. Pavosevic, A. Kumar             : LibInt (2-el integral package), F12 methods
   Garnet Chan, S. Sharma, J. Yang, R. Olivares  : DMRG
   Ulf Ekstrom                                   : XCFun DFT Library
   Mihaly Kallay                                 : mrcc  (arbitrary order and MRCC methods)
   Jiri Pittner, Ondrej Demel                    : Mk-CCSD
   Frank Weinhold                                : gennbo (NPA and NBO analysis)
   Christopher J. Cramer and Donald G. Truhlar   : smd solvation model
   Lars Goerigk                                  : TD-DFT with DH, B97 family of functionals
   V. Asgeirsson, H. Jonsson                     : NEB implementation
   FAccTs GmbH                                   : IRC, NEB, NEB-TS, DLPNO-Multilevel, CI-OPT
                                                   MM, QMMM, 2- and 3-layer-ONIOM, Crystal-QMMM,
                                                   LR-CPCM, SF, NACMEs, symmetry and pop. for TD-DFT,
                                                   nearIR, NL-DFT gradient (VV10), updates on ESD,
                                                   ML-optimized integration grids
   S Lehtola, MJT Oliveira, MAL Marques          : LibXC Library
   Liviu Ungur et al                             : ANISO software


 Your calculation uses the libint2 library for the computation of 2-el integrals
 For citations please refer to: http://libint.valeyev.net

 Your ORCA version has been built with support for libXC version: 5.1.0
 For citations please refer to: https://tddft.org/programs/libxc/

 This ORCA versions uses:
   CBLAS   interface :  Fast vector & matrix operations
   LAPACKE interface :  Fast linear algebra routines
   SCALAPACK package :  Parallel linear algebra routines
   Shared memory     :  Shared parallel matrices
   BLAS/LAPACK       :  OpenBLAS 0.3.15  USE64BITINT DYNAMIC_ARCH NO_AFFINITY Sandybridge SINGLE_THREADED
        Core in use  :  Sandybridge
   Copyright (c) 2011-2014, The OpenBLAS Project


================================================================================

----- Orbital basis set information -----
Your calculation utilizes the basis: cc-pVDZ 
       H, B-Ne : Obtained from the ccRepo (grant-hill.group.shef.ac.uk/ccrepo) Feb. 2017
                 T. H. Dunning, Jr., J. Chem. Phys. 90, 1007 (1989)
            He : Obtained from the ccRepo (grant-hill.group.shef.ac.uk/ccrepo) Feb. 2017
                 D. E. Woon, T. H. Dunning, Jr., J. Chem. Phys. 100, 2975 (1994)
  Li-Be, Na-Mg : Obtained from the ccRepo (grant-hill.group.shef.ac.uk/ccrepo) Feb. 2017
                 B. P. Prascher, D. E. Woon, K. A. Peterson, T. H. Dunning, Jr., A. K. Wilson, Theor. Chem. Acc. 128, 69 (2011)
         Al-Ar : Obtained from the ccRepo (grant-hill.group.shef.ac.uk/ccrepo) Feb. 2017
                 D. E. Woon, T. H. Dunning, Jr., J. Chem. Phys. 98, 1358 (1993)
            Ca : Obtained from the Peterson Research Group Website (tyr0.chem.wsu.edu/~kipeters) Feb. 2017
                 J. Koput, K. A. Peterson, J. Phys. Chem. 106, 9595 (2002)
         Sc-Zn : Obtained from the ccRepo (grant-hill.group.shef.ac.uk/ccrepo) Feb. 2017
                 N. B. Balabanov, K. A. Peterson, J. Chem. Phys. 123, 064107 (2005)
                 N. B. Balabanov, K. A. Peterson, J. Chem. Phys. 125, 074110 (2006)
         Ga-Kr : Obtained from the ccRepo (grant-hill.group.shef.ac.uk/ccrepo) Feb. 2017
                 A. K. Wilson, D. E. Woon, K. A. Peterson, T. H. Dunning, Jr., J. Chem. Phys. 110, 7667 (1999)

================================================================================
                                        WARNINGS
                       Please study these warnings very carefully!
================================================================================


WARNING: No MP2 level density has been requested!
         To caclulate MP2 level properties use
         %mp2 Density relaxed end
         or
         %mp2 Density unrelaxed end

WARNING: Post HF methods need fully converged wavefunctions
  ===> : Setting SCFConvForced true
         You can overwrite this default with %scf ConvForced false 


INFO   : the flag for use of the SHARK integral package has been found!

================================================================================
                                       INPUT FILE
================================================================================
NAME = /scratch/allen/tmpyp4_amber_gaff2/2.Mdgx/conf11/conf11/Conf17.orca
|  1> ! PAL2
|  2> ! mp2 cc-pvdz TightSCF  NoKeepInts
|  3> 
|  4> %scf
|  5>   MaxCore 2000
|  6> end
|  7> %mp2
|  8>   MaxCore 2000
|  9> end
| 10> * xyz 0 1
| 11>    C       -3.06500         6.48000        -0.19600
| 12>    C        1.47400         4.04100         0.05700
| 13>    C       -2.80200         4.09300         0.04900
| 14>    C       -4.16700         4.02700         0.36800
| 15>    C       -4.93000         5.17700         0.39100
| 16>    C       -5.23000         7.59000         0.11200
| 17>    C        0.13200         4.30700         0.06100
| 18>    C       -0.56900         3.05600         0.04700
| 19>    C        1.64900         2.61800         0.02300
| 20>    C       -2.26200         5.35600        -0.23800
| 21>    N       -4.37700         6.38100         0.11500
| 22>    N        0.38800         2.06700         0.02500
| 23>    N       -2.01000         0.39500        -0.07500
| 24>    N       -0.38800        -2.07400        -0.02700
| 25>    N        2.01000        -0.40100         0.06500
| 26>    C       -1.96000         2.86100         0.02400
| 27>    C       -2.62300         1.61500        -0.01800
| 28>    C       -5.57300        -4.32900         1.06600
| 29>    C       -4.07300         1.47100         0.05600
| 30>    C       -4.10600        -2.75600        -0.02600
| 31>    C       -4.99500        -2.75700        -1.11100
| 32>    C       -6.13200        -3.54200        -1.07600
| 33>    C       -7.65100        -5.11300         0.04000
| 34>    C       -4.32400         0.14100         0.03700
| 35>    C       -3.02500        -0.52000        -0.04800
| 36>    C       -4.42200        -3.56600         1.07500
| 37>    N       -6.40700        -4.31300         0.00100
| 38>    C       -2.86700        -1.92200        -0.04000
| 39>    C       -1.65000        -2.62400        -0.02700
| 40>    C        3.56800        -6.14200        -1.04000
| 41>    C       -1.47600        -4.04900        -0.03400
| 42>    C        2.80300        -4.09900        -0.00800
| 43>    C        3.65700        -4.38400         1.06900
| 44>    C        4.42700        -5.53000         1.05900
| 45>    C        5.24500        -7.58800         0.01400
| 46>    C       -0.13400        -4.31500        -0.02200
| 47>    C        0.56800        -3.06400        -0.02700
| 48>    C        2.77500        -5.01200        -1.07400
| 49>    N        4.37600        -6.39100         0.01700
| 50>    C        1.95900        -2.86900        -0.00900
| 51>    C        2.62100        -1.62200         0.00900
| 52>    C        5.54300         4.33900        -1.13000
| 53>    C        4.07000        -1.47900        -0.09400
| 54>    C        4.10400         2.75100        -0.02100
| 55>    C        5.02700         2.72900         1.03600
| 56>    C        6.16600         3.50900         0.97800
| 57>    C        7.61900         5.15300        -0.11500
| 58>    C        4.32100        -0.14800        -0.09200
| 59>    C        3.02500         0.51400         0.01500
| 60>    C        4.38700         3.58200        -1.11500
| 61>    C        2.86600         1.91600         0.01300
| 62>    N        6.41300         4.29600        -0.09500
| 63>    H       -2.68800         7.47500        -0.39800
| 64>    H        2.27400         4.76600         0.08100
| 65>    H       -4.64400         3.08000         0.58900
| 66>    H       -5.98800         5.17500         0.62200
| 67>    H       -5.69400         7.69500        -0.87200
| 68>    H       -5.99700         7.48100         0.87900
| 69>    H       -4.60800         8.45900         0.32600
| 70>    H       -0.33200         5.28200         0.06900
| 71>    H       -1.21100         5.47500        -0.47700
| 72>    H        0.18200         1.07200         0.00500
| 73>    H       -0.18300        -1.08000        -0.02100
| 74>    H       -5.86400        -4.96200         1.89500
| 75>    H       -4.79400         2.27200         0.13900
| 76>    H       -4.80000        -2.16000        -1.99400
| 77>    H       -6.84100        -3.58200        -1.89300
| 78>    H       -8.42800        -4.53600         0.54600
| 79>    H       -7.95600        -5.33700        -0.98100
| 80>    H       -7.45600        -6.03700         0.58400
| 81>    H       -5.28700        -0.34400         0.10000
| 82>    H       -3.78000        -3.60100         1.94700
| 83>    H        3.58700        -6.86800        -1.84300
| 84>    H       -2.27600        -4.77400        -0.05000
| 85>    H        3.71400        -3.72400         1.92600
| 86>    H        5.09200        -5.79500         1.87100
| 87>    H        6.20500        -7.32900        -0.43900
| 88>    H        5.39300        -7.91700         1.04200
| 89>    H        4.75900        -8.37300        -0.56400
| 90>    H        0.32900        -5.29000        -0.00800
| 91>    H        2.14600        -4.84200        -1.94000
| 92>    H        5.80800         4.98600        -1.95600
| 93>    H        4.78800        -2.28100        -0.18500
| 94>    H        4.86000         2.11400         1.91200
| 95>    H        6.90100         3.53100         1.77200
| 96>    H        7.38300         6.10900         0.35600
| 97>    H        8.41400         4.65200         0.43500
| 98>    H        7.92100         5.31000        -1.15000
| 99>    H        5.28300         0.33600        -0.17900
|100>    H        3.72000         3.63200        -1.96700
|101> *
|102> 
|103>                          ****END OF INPUT****
================================================================================

                       ****************************
                       * Single Point Calculation *
                       ****************************

---------------------------------
CARTESIAN COORDINATES (ANGSTROEM)
---------------------------------
  C     -3.065000    6.480000   -0.196000
  C      1.474000    4.041000    0.057000
  C     -2.802000    4.093000    0.049000
  C     -4.167000    4.027000    0.368000
  C     -4.930000    5.177000    0.391000
  C     -5.230000    7.590000    0.112000
  C      0.132000    4.307000    0.061000
  C     -0.569000    3.056000    0.047000
  C      1.649000    2.618000    0.023000
  C     -2.262000    5.356000   -0.238000
  N     -4.377000    6.381000    0.115000
  N      0.388000    2.067000    0.025000
  N     -2.010000    0.395000   -0.075000
  N     -0.388000   -2.074000   -0.027000
  N      2.010000   -0.401000    0.065000
  C     -1.960000    2.861000    0.024000
  C     -2.623000    1.615000   -0.018000
  C     -5.573000   -4.329000    1.066000
  C     -4.073000    1.471000    0.056000
  C     -4.106000   -2.756000   -0.026000
  C     -4.995000   -2.757000   -1.111000
  C     -6.132000   -3.542000   -1.076000
  C     -7.651000   -5.113000    0.040000
  C     -4.324000    0.141000    0.037000
  C     -3.025000   -0.520000   -0.048000
  C     -4.422000   -3.566000    1.075000
  N     -6.407000   -4.313000    0.001000
  C     -2.867000   -1.922000   -0.040000
  C     -1.650000   -2.624000   -0.027000
  C      3.568000   -6.142000   -1.040000
  C     -1.476000   -4.049000   -0.034000
  C      2.803000   -4.099000   -0.008000
  C      3.657000   -4.384000    1.069000
  C      4.427000   -5.530000    1.059000
  C      5.245000   -7.588000    0.014000
  C     -0.134000   -4.315000   -0.022000
  C      0.568000   -3.064000   -0.027000
  C      2.775000   -5.012000   -1.074000
  N      4.376000   -6.391000    0.017000
  C      1.959000   -2.869000   -0.009000
  C      2.621000   -1.622000    0.009000
  C      5.543000    4.339000   -1.130000
  C      4.070000   -1.479000   -0.094000
  C      4.104000    2.751000   -0.021000
  C      5.027000    2.729000    1.036000
  C      6.166000    3.509000    0.978000
  C      7.619000    5.153000   -0.115000
  C      4.321000   -0.148000   -0.092000
  C      3.025000    0.514000    0.015000
  C      4.387000    3.582000   -1.115000
  C      2.866000    1.916000    0.013000
  N      6.413000    4.296000   -0.095000
  H     -2.688000    7.475000   -0.398000
  H      2.274000    4.766000    0.081000
  H     -4.644000    3.080000    0.589000
  H     -5.988000    5.175000    0.622000
  H     -5.694000    7.695000   -0.872000
  H     -5.997000    7.481000    0.879000
  H     -4.608000    8.459000    0.326000
  H     -0.332000    5.282000    0.069000
  H     -1.211000    5.475000   -0.477000
  H      0.182000    1.072000    0.005000
  H     -0.183000   -1.080000   -0.021000
  H     -5.864000   -4.962000    1.895000
  H     -4.794000    2.272000    0.139000
  H     -4.800000   -2.160000   -1.994000
  H     -6.841000   -3.582000   -1.893000
  H     -8.428000   -4.536000    0.546000
  H     -7.956000   -5.337000   -0.981000
  H     -7.456000   -6.037000    0.584000
  H     -5.287000   -0.344000    0.100000
  H     -3.780000   -3.601000    1.947000
  H      3.587000   -6.868000   -1.843000
  H     -2.276000   -4.774000   -0.050000
  H      3.714000   -3.724000    1.926000
  H      5.092000   -5.795000    1.871000
  H      6.205000   -7.329000   -0.439000
  H      5.393000   -7.917000    1.042000
  H      4.759000   -8.373000   -0.564000
  H      0.329000   -5.290000   -0.008000
  H      2.146000   -4.842000   -1.940000
  H      5.808000    4.986000   -1.956000
  H      4.788000   -2.281000   -0.185000
  H      4.860000    2.114000    1.912000
  H      6.901000    3.531000    1.772000
  H      7.383000    6.109000    0.356000
  H      8.414000    4.652000    0.435000
  H      7.921000    5.310000   -1.150000
  H      5.283000    0.336000   -0.179000
  H      3.720000    3.632000   -1.967000

----------------------------
CARTESIAN COORDINATES (A.U.)
----------------------------
  NO LB      ZA    FRAG     MASS         X           Y           Z
   0 C     6.0000    0    12.011   -5.792011   12.245425   -0.370386
   1 C     6.0000    0    12.011    2.785456    7.636383    0.107714
   2 C     6.0000    0    12.011   -5.295013    7.734649    0.092597
   3 C     6.0000    0    12.011   -7.874489    7.609927    0.695419
   4 C     6.0000    0    12.011   -9.316350    9.783112    0.738883
   5 C     6.0000    0    12.011   -9.883268   14.343021    0.211649
   6 C     6.0000    0    12.011    0.249444    8.139050    0.115273
   7 C     6.0000    0    12.011   -1.075254    5.775003    0.088817
   8 C     6.0000    0    12.011    3.116158    4.947303    0.043464
   9 C     6.0000    0    12.011   -4.274561   10.121373   -0.449755
  10 N     7.0000    0    14.007   -8.271331   12.058342    0.217319
  11 N     7.0000    0    14.007    0.733214    3.906064    0.047243
  12 N     7.0000    0    14.007   -3.798350    0.746442   -0.141729
  13 N     7.0000    0    14.007   -0.733214   -3.919292   -0.051023
  14 N     7.0000    0    14.007    3.798350   -0.757780    0.122832
  15 C     6.0000    0    12.011   -3.703863    5.406506    0.045353
  16 C     6.0000    0    12.011   -4.956752    3.051908   -0.034015
  17 C     6.0000    0    12.011  -10.531444   -8.180624    2.014448
  18 C     6.0000    0    12.011   -7.696855    2.779787    0.105825
  19 C     6.0000    0    12.011   -7.759216   -5.208085   -0.049133
  20 C     6.0000    0    12.011   -9.439182   -5.209975   -2.099486
  21 C     6.0000    0    12.011  -11.587801   -6.693410   -2.033345
  22 C     6.0000    0    12.011  -14.458295   -9.662170    0.075589
  23 C     6.0000    0    12.011   -8.171176    0.266451    0.069920
  24 C     6.0000    0    12.011   -5.716422   -0.982658   -0.090707
  25 C     6.0000    0    12.011   -8.356369   -6.738763    2.031456
  26 N     7.0000    0    14.007  -12.107475   -8.150389    0.001890
  27 C     6.0000    0    12.011   -5.417845   -3.632054   -0.075589
  28 C     6.0000    0    12.011   -3.118048   -4.958641   -0.051023
  29 C     6.0000    0    12.011    6.742543  -11.606698   -1.965315
  30 C     6.0000    0    12.011   -2.789236   -7.651501   -0.064251
  31 C     6.0000    0    12.011    5.296902   -7.745987   -0.015118
  32 C     6.0000    0    12.011    6.910728   -8.284559    2.020117
  33 C     6.0000    0    12.011    8.365818  -10.450186    2.001220
  34 C     6.0000    0    12.011    9.911614  -14.339242    0.026456
  35 C     6.0000    0    12.011   -0.253223   -8.154168   -0.041574
  36 C     6.0000    0    12.011    1.073364   -5.790121   -0.051023
  37 C     6.0000    0    12.011    5.243990   -9.471307   -2.029566
  38 N     7.0000    0    14.007    8.269442  -12.077240    0.032125
  39 C     6.0000    0    12.011    3.701973   -5.421624   -0.017008
  40 C     6.0000    0    12.011    4.952972   -3.065136    0.017008
  41 C     6.0000    0    12.011   10.474752    8.199522   -2.135391
  42 C     6.0000    0    12.011    7.691185   -2.794905   -0.177634
  43 C     6.0000    0    12.011    7.755436    5.198637   -0.039684
  44 C     6.0000    0    12.011    9.499653    5.157063    1.957756
  45 C     6.0000    0    12.011   11.652051    6.631049    1.848152
  46 C     6.0000    0    12.011   14.397823    9.737759   -0.217319
  47 C     6.0000    0    12.011    8.165507   -0.279679   -0.173855
  48 C     6.0000    0    12.011    5.716422    0.971319    0.028346
  49 C     6.0000    0    12.011    8.290229    6.768999   -2.107045
  50 C     6.0000    0    12.011    5.415955    3.620715    0.024566
  51 N     7.0000    0    14.007   12.118814    8.118263   -0.179524
  52 H     1.0000    0     1.008   -5.079584   14.125703   -0.752111
  53 H     1.0000    0     1.008    4.297237    9.006435    0.153068
  54 H     1.0000    0     1.008   -8.775888    5.820356    1.113049
  55 H     1.0000    0     1.008  -11.315680    9.779333    1.175410
  56 H     1.0000    0     1.008  -10.760101   14.541443   -1.647841
  57 H     1.0000    0     1.008  -11.332688   14.137041    1.661069
  58 H     1.0000    0     1.008   -8.707858   15.985193    0.616051
  59 H     1.0000    0     1.008   -0.627389    9.981533    0.130391
  60 H     1.0000    0     1.008   -2.288458   10.346251   -0.901399
  61 H     1.0000    0     1.008    0.343930    2.025786    0.009449
  62 H     1.0000    0     1.008   -0.345820   -2.040904   -0.039684
  63 H     1.0000    0     1.008  -11.081354   -9.376821    3.581031
  64 H     1.0000    0     1.008   -9.059347    4.293458    0.262672
  65 H     1.0000    0     1.008   -9.070685   -4.081808   -3.768114
  66 H     1.0000    0     1.008  -12.927616   -6.768999   -3.577252
  67 H     1.0000    0     1.008  -15.926612   -8.571798    1.031790
  68 H     1.0000    0     1.008  -15.034661  -10.085468   -1.853821
  69 H     1.0000    0     1.008  -14.089798  -11.408277    1.103600
  70 H     1.0000    0     1.008   -9.990982   -0.650066    0.188973
  71 H     1.0000    0     1.008   -7.143165   -6.804904    3.679297
  72 H     1.0000    0     1.008    6.778448  -12.978639   -3.482765
  73 H     1.0000    0     1.008   -4.301017   -9.021553   -0.094486
  74 H     1.0000    0     1.008    7.018443   -7.037340    3.639613
  75 H     1.0000    0     1.008    9.622485  -10.950963    3.535678
  76 H     1.0000    0     1.008   11.725751  -13.849803   -0.829590
  77 H     1.0000    0     1.008   10.191293  -14.960962    1.969095
  78 H     1.0000    0     1.008    8.993207  -15.822677   -1.065806
  79 H     1.0000    0     1.008    0.621720   -9.996651   -0.015118
  80 H     1.0000    0     1.008    4.055352   -9.150054   -3.666069
  81 H     1.0000    0     1.008   10.975529    9.422175   -3.696304
  82 H     1.0000    0     1.008    9.048009   -4.310465   -0.349599
  83 H     1.0000    0     1.008    9.184069    3.994881    3.613156
  84 H     1.0000    0     1.008   13.041000    6.672623    3.348595
  85 H     1.0000    0     1.008   13.951848   11.544337    0.672743
  86 H     1.0000    0     1.008   15.900156    8.791006    0.822031
  87 H     1.0000    0     1.008   14.968521   10.034446   -2.173185
  88 H     1.0000    0     1.008    9.983423    0.634948   -0.338261
  89 H     1.0000    0     1.008    7.029781    6.863485   -3.717091

--------------------------------
INTERNAL COORDINATES (ANGSTROEM)
--------------------------------
 C      0   0   0     0.000000000000     0.00000000     0.00000000
 C      1   0   0     5.158997092459     0.00000000     0.00000000
 C      1   2   0     2.413910313164    55.36604015     0.00000000
 C      3   1   2     1.403332462391    87.91410280   167.16869254
 C      4   3   1     1.380289100153   120.15141624     0.17359177
 C      5   4   3     2.447531409400   152.53099698     1.54427020
 C      2   1   3     1.368114030335    17.29163587   355.49330246
 C      7   2   1     1.434084376876   108.05010202   169.31443588
 C      2   1   3     1.434123425651   125.12048525     8.78368155
 C      1   2   3     1.382009044833    26.59096332   345.30107910
 N      1   2   3     1.351985946673   143.89138713    22.12582136
 N      9   2   1     1.376127174356   106.58526707   355.11224375
 N     12   9   2     2.925062050624   168.53581413   171.12065651
 N     13  12   9     2.954513327098    91.55032014    11.12112580
 N     14  13  12     2.925371258490    88.43092389   359.84326247
 C      8   7   2     1.404790019896   127.24786865   181.11170171
 C     13  12   9     1.366535034311    81.72106996   188.00453233
 C     14  13  12     5.758810554272    80.56209567   166.76250791
 C     17  13  12     1.459010623676   111.08861209   183.82872609
 C     18  14  13     2.412235892279    27.27532823    36.33507194
 C     20  18  14     1.402692767501    87.95206320   148.94598259
 C     21  20  18     1.382106725257   120.14573887   359.70382047
 C     18  14  13     2.446510985056   144.15733107    82.80075377
 C     19  17  13     1.353610726908   106.29293361   359.75308708
 C     13  12   9     1.366813447402   172.21332906    33.46711076
 C     18  14  13     1.380960173213    15.08449437   309.23336894
 N     22  21  20     1.352773077792   120.73759875     0.27865223
 C     25  13  17     1.410897586645   125.60330303   182.37774668
 C     14  13  12     1.376642291955    80.24689249   177.85461986
 C     14  13  12     5.764089607215   164.51507311   312.20821879
 C     29  14  13     1.435600919476   106.58649366   178.76395472
 C     30  14  13     2.413316804732    27.10625047    82.12560436
 C     32  30  14     1.403734305344    87.90059683   149.76154742
 C     33  32  30     1.380694028378   120.14881443   359.74174632
 C     34  33  32     2.448777858443   152.49203239     2.45173620
 C     31  29  14     1.368160809262   108.16950133     0.70383075
 C     14  13  12     1.376239804685   169.26375223   353.09862627
 C     30  14  13     1.380907310430    14.68948582   353.70041132
 N     34  33  32     1.352658863128   120.85575621     0.19603406
 C     37  14  29     1.404717053360   126.01551127   180.90772073
 C     15  14  13     1.366491126938    81.61824056   183.09049352
 C      2   1   3     4.249062720177   142.71967958   153.38718160
 C     41  15  14     1.459677704153   111.05201287   175.08990246
 C     42   2   1     2.412953791518    41.78584867   184.68044928
 C     44  42   2     1.403446472082    87.95153797   233.97558675
 C     45  44  42     1.381696421071   120.11137308     0.19721020
 C     42   2   1     2.450019795838   135.97209175    94.99529838
 C     43  41  15     1.354461516618   106.26758155     0.30894352
 C     15  14  13     1.367461151185   171.87382904   332.35056460
 C     42   2   1     1.381886391857    32.59078432   233.53572847
 C      9   2   1     1.404988612053   126.98745415   176.11658128
 N     42   2   1     1.352765315936   113.57249190   122.73188757
 H      1   2   3     1.083031855487    97.88712225   185.33006649
 H      2   1   3     1.079907866440   109.60125848   185.49137366
 H      4   3   1     1.083133879075   121.05497272   179.49399957
 H      5   4   3     1.082926128598   122.82499509   179.40183527
 H      6   5   4     1.092967062633   104.44064414   100.11498945
 H      6   5   4     1.090164666461    84.69038884   209.57646479
 H      6   5   4     1.089881186185   133.92769442   322.46376874
 H      7   2   1     1.079807853278   126.66122480   349.55284967
 H     60   7   2     1.052618639394   121.36870305   142.37032167
 H     12   9   2     1.016297692608   125.29023241   180.00180175
 H     14  13  12     1.014936943854    44.97226959   359.42596618
 H     18  14  13     1.082871645210   128.03556573   234.20482432
 H     55   4   3     0.936943968442   136.59359481   299.25296277
 H     21  20  18     1.083569563987   121.05669627   180.67006309
 H     22  21  20     1.082483256222   122.73097286   180.59748951
 H     23  18  14     1.092105306278   103.92715769   234.93429879
 H     23  18  14     1.088871893291   134.19244188    12.25587044
 H     23  18  14     1.089833473518    84.85857450   125.45241208
 H     24  19  17     1.080075460327   127.28078426   178.44613241
 H     26  18  14     1.083408048706   118.76995697   244.94906660
 H     30  14  13     1.082703098730   127.99711412   279.66882698
 H     31  29  14     1.079759695488   125.22293469   180.92530585
 H     33  32  30     1.083188810873   121.01964473   180.74284758
 H     34  33  32     1.082494341787   122.70821597   180.59516895
 H     35  34  33     1.092652735319   105.73575241    97.19771933
 H     35  34  33     1.089462711615    84.05943581   206.43036958
 H     35  34  33     1.089268102902   133.08365142   318.50306270
 H     36  31  29     1.079439669458   126.61599965   178.98859863
 H     38  30  73     1.083742127999   118.77264435   359.90091293
 H     42   2   1     1.082178358682   119.31790784   339.36341802
 H     43  41  15     1.080281907652   126.36969097   182.06329380
 H     45  44  42     1.083277434455   121.10105945   179.58025624
 H     46  45  44     1.082194529648   122.72144639   179.46906377
 H     47  42   2     1.091546151109   106.65128841   315.16475048
 H     47  42   2     1.088818625851   132.46019523    94.52397119
 H     47  42   2     1.089531091801    83.63838232   206.04504406
 H     48  43  41     1.080402239909   127.23657387   181.62955349
 H     50  42   2     1.083186502870   118.77001737    94.71359229

---------------------------
INTERNAL COORDINATES (A.U.)
---------------------------
 C      0   0   0     0.000000000000     0.00000000     0.00000000
 C      1   0   0     9.749091630443     0.00000000     0.00000000
 C      1   2   0     4.561629403728    55.36604015     0.00000000
 C      3   1   2     2.651914028760    87.91410280   167.16869254
 C      4   3   1     2.608368384925   120.15141624     0.17359177
 C      5   4   3     4.625164067936   152.53099698     1.54427020
 C      2   1   3     2.585360837309    17.29163587   355.49330246
 C      7   2   1     2.710026725231   108.05010202   169.31443588
 C      2   1   3     2.710100516721   125.12048525     8.78368155
 C      1   2   3     2.611618609336    26.59096332   345.30107910
 N      1   2   3     2.554883176121   143.89138713    22.12582136
 N      9   2   1     2.600503484979   106.58526707   355.11224375
 N     12   9   2     5.527566200405   168.53581413   171.12065651
 N     13  12   9     5.583221047236    91.55032014    11.12112580
 N     14  13  12     5.528150518591    88.43092389   359.84326247
 C      8   7   2     2.654668413270   127.24786865   181.11170171
 C     13  12   9     2.582376967257    81.72106996   188.00453233
 C     14  13  12    10.882574804710    80.56209567   166.76250791
 C     17  13  12     2.757130505230   111.08861209   183.82872609
 C     18  14  13     4.558465206823    27.27532823    36.33507194
 C     20  18  14     2.650705180609    87.95206320   148.94598259
 C     21  20  18     2.611803198586   120.14573887   359.70382047
 C     18  14  13     4.623235745386   144.15733107    82.80075377
 C     19  17  13     2.557953565794   106.29293361   359.75308708
 C     13  12   9     2.582903091751   172.21332906    33.46711076
 C     18  14  13     2.609636529225    15.08449437   309.23336894
 N     22  21  20     2.556370638369   120.73759875     0.27865223
 C     25  13  17     2.666210041769   125.60330303   182.37774668
 C     14  13  12     2.601476916169    80.24689249   177.85461986
 C     14  13  12    10.892550769017   164.51507311   312.20821879
 C     29  14  13     2.712892575415   106.58649366   178.76395472
 C     30  14  13     4.560507835333    27.10625047    82.12560436
 C     32  30  14     2.652673401891    87.90059683   149.76154742
 C     33  32  30     2.609133588376   120.14881443   359.74174632
 C     34  33  32     4.627519515267   152.49203239     2.45173620
 C     31  29  14     2.585449236669   108.16950133     0.70383075
 C     14  13  12     2.600716325456   169.26375223   353.09862627
 C     30  14  13     2.609536633043    14.68948582   353.70041132
 N     34  33  32     2.556154803934   120.85575621     0.19603406
 C     37  14  29     2.654530526499   126.01551127   180.90772073
 C     15  14  13     2.582293994346    81.61824056   183.09049352
 C      2   1   3     8.029564866989   142.71967958   153.38718160
 C     41  15  14     2.758391104639   111.05201287   175.08990246
 C     42   2   1     4.559821839776    41.78584867   184.68044928
 C     44  42   2     2.652129475853    87.95153797   233.97558675
 C     45  44  42     2.611027836043   120.11137308     0.19721020
 C     42   2   1     4.629866436820   135.97209175    94.99529838
 C     43  41  15     2.559561325344   106.26758155     0.30894352
 C     15  14  13     2.584127074516   171.87382904   332.35056460
 C     42   2   1     2.611386828803    32.59078432   233.53572847
 C      9   2   1     2.655043698059   126.98745415   176.11658128
 N     42   2   1     2.556355970587   113.57249190   122.73188757
 H      1   2   3     2.046633601183    97.88712225   185.33006649
 H      2   1   3     2.040730117440   109.60125848   185.49137366
 H      4   3   1     2.046826397823   121.05497272   179.49399957
 H      5   4   3     2.046433806318   122.82499509   179.40183527
 H      6   5   4     2.065408421772   104.44064414   100.11498945
 H      6   5   4     2.060112660489    84.69038884   209.57646479
 H      6   5   4     2.059576960403   133.92769442   322.46376874
 H      7   2   1     2.040541119952   126.66122480   349.55284967
 H     60   7   2     1.989160951916   121.36870305   142.37032167
 H     12   9   2     1.920524309565   125.29023241   180.00180175
 H     14  13  12     1.917952867083    44.97226959   359.42596618
 H     18  14  13     2.046330847636   128.03556573   234.20482432
 H     55   4   3     1.770567503185   136.59359481   299.25296277
 H     21  20  18     2.047649722989   121.05669627   180.67006309
 H     22  21  20     2.045596898814   122.73097286   180.59748951
 H     23  18  14     2.063779938267   103.92715769   234.93429879
 H     23  18  14     2.057669673245   134.19244188    12.25587044
 H     23  18  14     2.059486796529    84.85857450   125.45241208
 H     24  19  17     2.041046823986   127.28078426   178.44613241
 H     26  18  14     2.047344503340   118.76995697   244.94906660
 H     30  14  13     2.046012340948   127.99711412   279.66882698
 H     31  29  14     2.040450114918   125.22293469   180.92530585
 H     33  32  30     2.046930203877   121.01964473   180.74284758
 H     34  33  32     2.045617847496   122.70821597   180.59516895
 H     35  34  33     2.064814429233   105.73575241    97.19771933
 H     35  34  33     2.058786158072    84.05943581   206.43036958
 H     35  34  33     2.058418400901   133.08365142   318.50306270
 H     36  31  29     2.039845353366   126.61599965   178.98859863
 H     38  30  73     2.047975821711   118.77264435   359.90091293
 H     42   2   1     2.045020725966   119.31790784   339.36341802
 H     43  41  15     2.041436952892   126.36969097   182.06329380
 H     45  44  42     2.047097678177   121.10105945   179.58025624
 H     46  45  44     2.045051284662   122.72144639   179.46906377
 H     47  42   2     2.062723288131   106.65128841   315.16475048
 H     47  42   2     2.057569012371   132.46019523    94.52397119
 H     47  42   2     2.058915377895    83.63838232   206.04504406
 H     48  43  41     2.041664347903   127.23657387   181.62955349
 H     50  42   2     2.046925842384   118.77001737    94.71359229

---------------------
BASIS SET INFORMATION
---------------------
There are 3 groups of distinct atoms

 Group   1 Type C   : 17s4p1d contracted to 3s2p1d pattern {881/31/1}
 Group   2 Type N   : 17s4p1d contracted to 3s2p1d pattern {881/31/1}
 Group   3 Type H   : 4s1p contracted to 2s1p pattern {31/1}

Atom   0C    basis set group =>   1
Atom   1N    basis set group =>   2
Atom   2C    basis set group =>   1
Atom   3N    basis set group =>   2
Atom   4C    basis set group =>   1
Atom   5N    basis set group =>   2
Atom   6C    basis set group =>   1
Atom   7N    basis set group =>   2
Atom   8C    basis set group =>   1
Atom   9N    basis set group =>   2
Atom  10C    basis set group =>   1
Atom  11N    basis set group =>   2
Atom  12C    basis set group =>   1
Atom  13N    basis set group =>   2
Atom  14C    basis set group =>   1
Atom  15N    basis set group =>   2
Atom  16C    basis set group =>   1
Atom  17C    basis set group =>   1
Atom  18C    basis set group =>   1
Atom  19C    basis set group =>   1
Atom  20C    basis set group =>   1
Atom  21C    basis set group =>   1
Atom  22C    basis set group =>   1
Atom  23C    basis set group =>   1
Atom  24C    basis set group =>   1
Atom  25C    basis set group =>   1
Atom  26C    basis set group =>   1
Atom  27C    basis set group =>   1
Atom  28C    basis set group =>   1
Atom  29C    basis set group =>   1
Atom  30C    basis set group =>   1
Atom  31C    basis set group =>   1
Atom  32C    basis set group =>   1
Atom  33C    basis set group =>   1
Atom  34C    basis set group =>   1
Atom  35C    basis set group =>   1
Atom  36C    basis set group =>   1
Atom  37C    basis set group =>   1
Atom  38C    basis set group =>   1
Atom  39C    basis set group =>   1
Atom  40C    basis set group =>   1
Atom  41C    basis set group =>   1
Atom  42C    basis set group =>   1
Atom  43C    basis set group =>   1
Atom  44C    basis set group =>   1
Atom  45C    basis set group =>   1
Atom  46C    basis set group =>   1
Atom  47C    basis set group =>   1
Atom  48C    basis set group =>   1
Atom  49C    basis set group =>   1
Atom  50C    basis set group =>   1
Atom  51C    basis set group =>   1
Atom  52H    basis set group =>   3
Atom  53H    basis set group =>   3
Atom  54H    basis set group =>   3
Atom  55H    basis set group =>   3
Atom  56H    basis set group =>   3
Atom  57H    basis set group =>   3
Atom  58H    basis set group =>   3
Atom  59H    basis set group =>   3
Atom  60H    basis set group =>   3
Atom  61H    basis set group =>   3
Atom  62H    basis set group =>   3
Atom  63H    basis set group =>   3
Atom  64H    basis set group =>   3
Atom  65H    basis set group =>   3
Atom  66H    basis set group =>   3
Atom  67H    basis set group =>   3
Atom  68H    basis set group =>   3
Atom  69H    basis set group =>   3
Atom  70H    basis set group =>   3
Atom  71H    basis set group =>   3
Atom  72H    basis set group =>   3
Atom  73H    basis set group =>   3
Atom  74H    basis set group =>   3
Atom  75H    basis set group =>   3
Atom  76H    basis set group =>   3
Atom  77H    basis set group =>   3
Atom  78H    basis set group =>   3
Atom  79H    basis set group =>   3
Atom  80H    basis set group =>   3
Atom  81H    basis set group =>   3
Atom  82H    basis set group =>   3
Atom  83H    basis set group =>   3
Atom  84H    basis set group =>   3
Atom  85H    basis set group =>   3
Atom  86H    basis set group =>   3
Atom  87H    basis set group =>   3
Atom  88H    basis set group =>   3
Atom  89H    basis set group =>   3


           ************************************************************
           *        Program running with 16 parallel MPI-processes    *
           *              working on a common directory               *
           ************************************************************
------------------------------------------------------------------------------
                           ORCA GTO INTEGRAL CALCULATION
------------------------------------------------------------------------------
------------------------------------------------------------------------------
                   ___                                                        
                  /   \      - P O W E R E D   B Y -                         
                 /     \                                                     
                 |  |  |   _    _      __       _____    __    __             
                 |  |  |  | |  | |    /  \     |  _  \  |  |  /  |          
                  \  \/   | |  | |   /    \    | | | |  |  | /  /          
                 / \  \   | |__| |  /  /\  \   | |_| |  |  |/  /          
                |  |  |   |  __  | /  /__\  \  |    /   |      \           
                |  |  |   | |  | | |   __   |  |    \   |  |\   \          
                \     /   | |  | | |  |  |  |  | |\  \  |  | \   \       
                 \___/    |_|  |_| |__|  |__|  |_| \__\ |__|  \__/        
                                                                              
                      - O R C A' S   B I G   F R I E N D -                    
                                      &                                       
                       - I N T E G R A L  F E E D E R -                       
                                                                              
 v1 FN, 2020, v2 2021                                                         
------------------------------------------------------------------------------


Reading SHARK input file /scratch/allen/tmpyp4_amber_gaff2/conf1/conf1/Conf17.orca.SHARKINP.tmp ... ok
----------------------
SHARK INTEGRAL PACKAGE
----------------------

Number of atoms                             ...     90
Number of basis functions                   ...   1230
Number of shells                            ...    738
Maximum angular momentum                    ...      2
Integral batch strategy                     ... SHARK/LIBINT Hybrid
RI-J (if used) integral strategy            ... SPLIT-RIJ (Revised 2003 algorithm where possible)
Printlevel                                  ...      1
Contraction scheme used                     ... PARTIAL GENERAL contraction
Coulomb Range Separation                    ... NOT USED
Exchange Range Separation                   ... NOT USED
Finite Nucleus Model                        ... NOT USED
Auxiliary Coulomb fitting basis             ... NOT available
Auxiliary J/K fitting basis                 ... NOT available
Auxiliary Correlation fitting basis         ... NOT available
Auxiliary 'external' fitting basis          ... NOT available
Integral threshold                          ...     2.500000e-11
Primitive cut-off                           ...     2.500000e-12
Primitive pair pre-selection threshold      ...     2.500000e-12

Calculating pre-screening integrals         ... done (  0.1 sec) Dimension = 738
Calculating pre-screening integrals (ORCA)  ... done (  0.3 sec) Dimension = 426
Organizing shell pair data                  ... done (  0.5 sec)
Shell pair information
Total number of shell pairs                 ...    272691
Shell pairs after pre-screening             ...     71724
Total number of primitive shell pairs       ...    422091
Primitive shell pairs kept                  ...     92625
          la=0 lb=0:  29445 shell pairs
          la=1 lb=0:  26033 shell pairs
          la=1 lb=1:   4701 shell pairs
          la=2 lb=0:   7889 shell pairs
          la=2 lb=1:   3127 shell pairs
          la=2 lb=2:    529 shell pairs

Calculating one electron integrals          ... done (  0.2 sec)
Calculating Nuclear repulsion               ... done (  0.0 sec) ENN=   6234.651578753430 Eh

SHARK setup successfully completed in   1.8 seconds

Maximum memory used throughout the entire GTOINT-calculation: 99.1 MB


           ************************************************************
           *        Program running with 16 parallel MPI-processes    *
           *              working on a common directory               *
           ************************************************************
-------------------------------------------------------------------------------
                                 ORCA SCF
-------------------------------------------------------------------------------

------------
SCF SETTINGS
------------
Hamiltonian:
 Ab initio Hamiltonian  Method          .... Hartree-Fock(GTOs)


General Settings:
 Integral files         IntName         .... /scratch/allen/tmpyp4_amber_gaff2/conf1/conf1/Conf17.orca
 Hartree-Fock type      HFTyp           .... RHF
 Total Charge           Charge          ....    0
 Multiplicity           Mult            ....    1
 Number of Electrons    NEL             ....  358
 Basis Dimension        Dim             ....  918
 Nuclear Repulsion      ENuc            ....   6234.6515787534 Eh

Convergence Acceleration:
 DIIS                   CNVDIIS         .... on
   Start iteration      DIISMaxIt       ....    12
   Startup error        DIISStart       ....  0.200000
   # of expansion vecs  DIISMaxEq       ....     5
   Bias factor          DIISBfac        ....   1.050
   Max. coefficient     DIISMaxC        ....  10.000
 Trust-Rad. Augm. Hess. CNVTRAH         .... auto
   Auto Start mean grad. ratio tolernc. ....  1.125000
   Auto Start start iteration           ....    20
   Auto Start num. interpolation iter.  ....    10
   Max. Number of Micro iterations      ....    16
   Max. Number of Macro iterations      .... Maxiter - #DIIS iter
   Number of Davidson start vectors     ....     2
   Converg. threshold I  (grad. norm)   ....   1.000e-05
   Converg. threshold II (energy diff.) ....   1.000e-08
   Grad. Scal. Fac. for Micro threshold ....   0.100
   Minimum threshold for Micro iter.    ....   0.010
   NR start threshold (gradient norm)   ....   0.001
   Initial trust radius                 ....   0.400
   Minimum AH scaling param. (alpha)    ....   1.000
   Maximum AH scaling param. (alpha)    .... 1000.000
   Orbital update algorithm             .... Taylor
   White noise on init. David. guess    .... on
   Maximum white noise                  ....   0.010
   Quad. conv. algorithm                .... NR
 SOSCF                  CNVSOSCF        .... on
   Start iteration      SOSCFMaxIt      ....   150
   Startup grad/error   SOSCFStart      ....  0.003300
 Level Shifting         CNVShift        .... on
   Level shift para.    LevelShift      ....    0.2500
   Turn off err/grad.   ShiftErr        ....    0.0010
 Zerner damping         CNVZerner       .... off
 Static damping         CNVDamp         .... on
   Fraction old density DampFac         ....    0.7000
   Max. Damping (<1)    DampMax         ....    0.9800
   Min. Damping (>=0)   DampMin         ....    0.0000
   Turn off err/grad.   DampErr         ....    0.1000
 Fernandez-Rico         CNVRico         .... off

SCF Procedure:
 Maximum # iterations   MaxIter         ....   125
 SCF integral mode      SCFMode         .... Direct
   Integral package                     .... SHARK and LIBINT hybrid scheme
 Reset frequency        DirectResetFreq ....    20
 Integral Threshold     Thresh          ....  2.500e-11 Eh
 Primitive CutOff       TCut            ....  2.500e-12 Eh

Convergence Tolerance:
 Convergence Check Mode ConvCheckMode   .... Total+1el-Energy
 Convergence forced     ConvForced      .... 1
 Energy Change          TolE            ....  1.000e-08 Eh
 1-El. energy change                    ....  1.000e-05 Eh
 Orbital Gradient       TolG            ....  1.000e-05
 Orbital Rotation angle TolX            ....  1.000e-05
 DIIS Error             TolErr          ....  5.000e-07


Diagonalization of the overlap matrix:
Smallest eigenvalue                        ... 1.899e-04
Time for diagonalization                   ...    0.366 sec
Threshold for overlap eigenvalues          ... 1.000e-08
Number of eigenvalues below threshold      ... 0
Time for construction of square roots      ...    0.195 sec
Total time needed                          ...    0.567 sec

Time for model grid setup =    1.017 sec

------------------------------
INITIAL GUESS: MODEL POTENTIAL
------------------------------
Loading Hartree-Fock densities                     ... done
Calculating cut-offs                               ... done
Initializing the effective Hamiltonian             ... done
Setting up the integral package (SHARK)            ... done
Starting the Coulomb interaction                   ... done (   1.1 sec)
Reading the grid                                   ... done
Mapping shells                                     ... done
Starting the XC term evaluation                    ... done (   0.2 sec)
Transforming the Hamiltonian                       ... done (   0.2 sec)
Diagonalizing the Hamiltonian                      ... done (   0.3 sec)
Back transforming the eigenvectors                 ... done (   0.1 sec)
Now organizing SCF variables                       ... done
                      ------------------
                      INITIAL GUESS DONE (   2.9 sec)
                      ------------------
--------------
SCF ITERATIONS
--------------
ITER       Energy         Delta-E        Max-DP      RMS-DP      [F,P]     Damp
               ***  Starting incremental Fock matrix formation  ***
  0  -2121.6136066859   0.000000000000 0.07443540  0.00126878  0.2313271 0.7000
  1  -2122.2571918530  -0.643585167132 0.06289070  0.00103694  0.1435183 0.7000
                               ***Turning on DIIS***
  2  -2122.6585623171  -0.401370464073 0.13210468  0.00234568  0.0802946 0.0000
  3  -2118.0177204150   4.640841902163 0.07954861  0.00071684  0.0434998 0.0000
  4  -2123.3523122913  -5.334591876381 0.02289349  0.00023435  0.0091860 0.0000
  5  -2123.4873360248  -0.135023733466 0.01072402  0.00013504  0.0048483 0.0000
  6  -2123.4714974206   0.015838604229 0.00659610  0.00008638  0.0022254 0.0000
  7  -2123.5641326274  -0.092635206840 0.00401428  0.00006783  0.0016115 0.0000
  8  -2123.5711874340  -0.007054806631 0.00329676  0.00006469  0.0015094 0.0000
  9  -2123.5442006299   0.026986804154 0.00264581  0.00004600  0.0012134 0.0000
 10  -2123.5519249847  -0.007724354797 0.00530847  0.00009622  0.0009489 0.0000
                      *** Initiating the SOSCF procedure ***
                           *** Shutting down DIIS ***
                      *** Re-Reading the Fockian *** 
                      *** Removing any level shift *** 
ITER      Energy       Delta-E        Grad      Rot      Max-DP    RMS-DP
 11  -2123.44607518   0.1058498050  0.000180  0.000180  0.000244  0.000005
               *** Restarting incremental Fock matrix formation ***
 12  -2123.51183001  -0.0657548346  0.000914  0.006170  0.001466  0.000035
 13  -2123.51194161  -0.0001115984  0.001129  0.030424  0.006638  0.000138
 14  -2123.51212816  -0.0001865499  0.000380  0.001691  0.000589  0.000012
 15  -2123.51214351  -0.0000153460  0.000192  0.002484  0.000538  0.000014
 16  -2123.51215094  -0.0000074287  0.000138  0.002227  0.000467  0.000009
 17  -2123.51215374  -0.0000028071  0.000137  0.002112  0.000312  0.000008
 18  -2123.51215516  -0.0000014125  0.000063  0.001252  0.000237  0.000005
 19  -2123.51215600  -0.0000008425  0.000047  0.001690  0.000265  0.000006
 20  -2123.51215652  -0.0000005200  0.000029  0.001054  0.000153  0.000004
 21  -2123.51215678  -0.0000002574  0.000028  0.001275  0.000185  0.000004
 22  -2123.51215703  -0.0000002483  0.000026  0.001051  0.000161  0.000003
 23  -2123.51215717  -0.0000001467  0.000016  0.000438  0.000071  0.000002
 24  -2123.51215723  -0.0000000577  0.000009  0.000290  0.000057  0.000001
 25  -2123.51215726  -0.0000000332  0.000009  0.000148  0.000044  0.000001
 26  -2123.51215727  -0.0000000120  0.000006  0.000093  0.000031  0.000000
 27  -2123.51215727   0.0000000007  0.000003  0.000065  0.000022  0.000000
                  ***Gradient check signals convergence***
              ***Rediagonalizing the Fockian in SOSCF/NRSCF***

               *****************************************************
               *                     SUCCESS                       *
               *           SCF CONVERGED AFTER  28 CYCLES          *
               *****************************************************


----------------
TOTAL SCF ENERGY
----------------

Total Energy       :        -2123.51215727 Eh          -57783.70347 eV

Components:
Nuclear Repulsion  :         6234.65157875 Eh          169653.49447 eV
Electronic Energy  :        -8358.16373603 Eh         -227437.19794 eV
One Electron Energy:       -15309.83294847 Eh         -416601.73415 eV
Two Electron Energy:         6951.66921245 Eh          189164.53621 eV

Virial components:
Potential Energy   :        -4246.00422831 Eh         -115539.64897 eV
Kinetic Energy     :         2122.49207104 Eh           57755.94551 eV
Virial Ratio       :            2.00048061


---------------
SCF CONVERGENCE
---------------

  Last Energy change         ...    1.6516e-09  Tolerance :   1.0000e-08
  Last MAX-Density change    ...    9.5205e-06  Tolerance :   1.0000e-07
  Last RMS-Density change    ...    1.8667e-07  Tolerance :   5.0000e-09
  Last Orbital Gradient      ...    1.9992e-06  Tolerance :   1.0000e-05
  Last Orbital Rotation      ...    3.8738e-05  Tolerance :   1.0000e-05

             **** THE GBW FILE WAS UPDATED (/scratch/allen/tmpyp4_amber_gaff2/conf1/conf1/Conf17.orca.gbw) ****
             **** DENSITY /scratch/allen/tmpyp4_amber_gaff2/conf1/conf1/Conf17.orca.scfp WAS UPDATED ****
             **** ENERGY FILE WAS UPDATED (/scratch/allen/tmpyp4_amber_gaff2/conf1/conf1/Conf17.orca.en.tmp) ****
             **** THE GBW FILE WAS UPDATED (/scratch/allen/tmpyp4_amber_gaff2/conf1/conf1/Conf17.orca.gbw) ****
             **** DENSITY /scratch/allen/tmpyp4_amber_gaff2/conf1/conf1/Conf17.orca.scfp WAS UPDATED ****
----------------
ORBITAL ENERGIES
----------------

  NO   OCC          E(Eh)            E(eV) 
   0   2.0000     -15.679392      -426.6579 
   1   2.0000     -15.632895      -425.3927 
   2   2.0000     -15.632807      -425.3903 
   3   2.0000     -15.588532      -424.1855 
   4   2.0000     -15.524855      -422.4528 
   5   2.0000     -15.515675      -422.2030 
   6   2.0000     -15.454023      -420.5254 
   7   2.0000     -15.439551      -420.1315 
   8   2.0000     -11.328972      -308.2770 
   9   2.0000     -11.328157      -308.2548 
  10   2.0000     -11.327687      -308.2420 
  11   2.0000     -11.298969      -307.4606 
  12   2.0000     -11.298653      -307.4520 
  13   2.0000     -11.292091      -307.2734 
  14   2.0000     -11.292018      -307.2714 
  15   2.0000     -11.287386      -307.1454 
  16   2.0000     -11.285629      -307.0976 
  17   2.0000     -11.281664      -306.9897 
  18   2.0000     -11.270352      -306.6819 
  19   2.0000     -11.263095      -306.4844 
  20   2.0000     -11.262095      -306.4572 
  21   2.0000     -11.252601      -306.1988 
  22   2.0000     -11.249210      -306.1066 
  23   2.0000     -11.237534      -305.7888 
  24   2.0000     -11.236695      -305.7660 
  25   2.0000     -11.230466      -305.5965 
  26   2.0000     -11.230330      -305.5928 
  27   2.0000     -11.230317      -305.5925 
  28   2.0000     -11.229551      -305.5716 
  29   2.0000     -11.210579      -305.0554 
  30   2.0000     -11.209301      -305.0206 
  31   2.0000     -11.194707      -304.6235 
  32   2.0000     -11.191361      -304.5324 
  33   2.0000     -11.191309      -304.5310 
  34   2.0000     -11.188727      -304.4607 
  35   2.0000     -11.188441      -304.4530 
  36   2.0000     -11.187331      -304.4228 
  37   2.0000     -11.178817      -304.1911 
  38   2.0000     -11.174319      -304.0687 
  39   2.0000     -11.173442      -304.0448 
  40   2.0000     -11.171457      -303.9908 
  41   2.0000     -11.171340      -303.9876 
  42   2.0000     -11.167799      -303.8913 
  43   2.0000     -11.162130      -303.7370 
  44   2.0000     -11.160252      -303.6859 
  45   2.0000     -11.157068      -303.5992 
  46   2.0000     -11.156390      -303.5808 
  47   2.0000     -11.152790      -303.4828 
  48   2.0000     -11.147283      -303.3330 
  49   2.0000     -11.135568      -303.0142 
  50   2.0000     -11.129199      -302.8409 
  51   2.0000     -11.116970      -302.5081 
  52   2.0000      -1.360043       -37.0087 
  53   2.0000      -1.320452       -35.9313 
  54   2.0000      -1.320293       -35.9270 
  55   2.0000      -1.281271       -34.8652 
  56   2.0000      -1.225863       -33.3574 
  57   2.0000      -1.210390       -32.9364 
  58   2.0000      -1.173686       -31.9376 
  59   2.0000      -1.150497       -31.3066 
  60   2.0000      -1.143395       -31.1134 
  61   2.0000      -1.110327       -30.2135 
  62   2.0000      -1.108808       -30.1722 
  63   2.0000      -1.081762       -29.4362 
  64   2.0000      -1.077660       -29.3246 
  65   2.0000      -1.045063       -28.4376 
  66   2.0000      -1.044520       -28.4228 
  67   2.0000      -1.040943       -28.3255 
  68   2.0000      -1.014908       -27.6170 
  69   2.0000      -1.013389       -27.5757 
  70   2.0000      -1.009088       -27.4587 
  71   2.0000      -0.993241       -27.0275 
  72   2.0000      -0.985784       -26.8245 
  73   2.0000      -0.981511       -26.7083 
  74   2.0000      -0.972959       -26.4755 
  75   2.0000      -0.962277       -26.1849 
  76   2.0000      -0.954767       -25.9805 
  77   2.0000      -0.945824       -25.7372 
  78   2.0000      -0.937517       -25.5111 
  79   2.0000      -0.917223       -24.9589 
  80   2.0000      -0.910230       -24.7686 
  81   2.0000      -0.896668       -24.3996 
  82   2.0000      -0.876519       -23.8513 
  83   2.0000      -0.871605       -23.7176 
  84   2.0000      -0.870920       -23.6989 
  85   2.0000      -0.859714       -23.3940 
  86   2.0000      -0.843575       -22.9548 
  87   2.0000      -0.835702       -22.7406 
  88   2.0000      -0.827423       -22.5153 
  89   2.0000      -0.796730       -21.6801 
  90   2.0000      -0.789330       -21.4788 
  91   2.0000      -0.762343       -20.7444 
  92   2.0000      -0.752558       -20.4781 
  93   2.0000      -0.733436       -19.9578 
  94   2.0000      -0.726819       -19.7778 
  95   2.0000      -0.723578       -19.6895 
  96   2.0000      -0.718932       -19.5631 
  97   2.0000      -0.716563       -19.4987 
  98   2.0000      -0.712750       -19.3949 
  99   2.0000      -0.698111       -18.9966 
 100   2.0000      -0.697446       -18.9785 
 101   2.0000      -0.692760       -18.8510 
 102   2.0000      -0.685074       -18.6418 
 103   2.0000      -0.684082       -18.6148 
 104   2.0000      -0.678576       -18.4650 
 105   2.0000      -0.674502       -18.3541 
 106   2.0000      -0.672428       -18.2977 
 107   2.0000      -0.660521       -17.9737 
 108   2.0000      -0.658077       -17.9072 
 109   2.0000      -0.652714       -17.7612 
 110   2.0000      -0.652056       -17.7433 
 111   2.0000      -0.645874       -17.5751 
 112   2.0000      -0.645275       -17.5588 
 113   2.0000      -0.637494       -17.3471 
 114   2.0000      -0.636526       -17.3208 
 115   2.0000      -0.628401       -17.0996 
 116   2.0000      -0.622968       -16.9518 
 117   2.0000      -0.621137       -16.9020 
 118   2.0000      -0.612900       -16.6779 
 119   2.0000      -0.612219       -16.6593 
 120   2.0000      -0.611558       -16.6413 
 121   2.0000      -0.610996       -16.6261 
 122   2.0000      -0.601379       -16.3643 
 123   2.0000      -0.587970       -15.9995 
 124   2.0000      -0.581366       -15.8198 
 125   2.0000      -0.580880       -15.8065 
 126   2.0000      -0.579959       -15.7815 
 127   2.0000      -0.571165       -15.5422 
 128   2.0000      -0.568162       -15.4605 
 129   2.0000      -0.559914       -15.2360 
 130   2.0000      -0.553861       -15.0713 
 131   2.0000      -0.547828       -14.9071 
 132   2.0000      -0.542591       -14.7646 
 133   2.0000      -0.540972       -14.7206 
 134   2.0000      -0.538212       -14.6455 
 135   2.0000      -0.536410       -14.5965 
 136   2.0000      -0.531076       -14.4513 
 137   2.0000      -0.519228       -14.1289 
 138   2.0000      -0.516492       -14.0545 
 139   2.0000      -0.514895       -14.0110 
 140   2.0000      -0.512443       -13.9443 
 141   2.0000      -0.510363       -13.8877 
 142   2.0000      -0.508226       -13.8295 
 143   2.0000      -0.504952       -13.7404 
 144   2.0000      -0.502520       -13.6743 
 145   2.0000      -0.495917       -13.4946 
 146   2.0000      -0.488985       -13.3060 
 147   2.0000      -0.481637       -13.1060 
 148   2.0000      -0.477855       -13.0031 
 149   2.0000      -0.467633       -12.7249 
 150   2.0000      -0.466395       -12.6913 
 151   2.0000      -0.456949       -12.4342 
 152   2.0000      -0.451764       -12.2931 
 153   2.0000      -0.444748       -12.1022 
 154   2.0000      -0.438675       -11.9370 
 155   2.0000      -0.427491       -11.6326 
 156   2.0000      -0.410120       -11.1599 
 157   2.0000      -0.403283       -10.9739 
 158   2.0000      -0.390669       -10.6306 
 159   2.0000      -0.387415       -10.5421 
 160   2.0000      -0.379405       -10.3241 
 161   2.0000      -0.377957       -10.2847 
 162   2.0000      -0.368942       -10.0394 
 163   2.0000      -0.356655        -9.7051 
 164   2.0000      -0.355790        -9.6815 
 165   2.0000      -0.342070        -9.3082 
 166   2.0000      -0.337657        -9.1881 
 167   2.0000      -0.324539        -8.8311 
 168   2.0000      -0.321468        -8.7476 
 169   2.0000      -0.305002        -8.2995 
 170   2.0000      -0.299518        -8.1503 
 171   2.0000      -0.285514        -7.7692 
 172   2.0000      -0.279091        -7.5944 
 173   2.0000      -0.263883        -7.1806 
 174   2.0000      -0.241484        -6.5711 
 175   2.0000      -0.189946        -5.1687 
 176   2.0000      -0.180925        -4.9232 
 177   2.0000      -0.079067        -2.1515 
 178   2.0000      -0.059596        -1.6217 
 179   0.0000       0.028336         0.7711 
 180   0.0000       0.065387         1.7793 
 181   0.0000       0.090284         2.4568 
 182   0.0000       0.106510         2.8983 
 183   0.0000       0.114886         3.1262 
 184   0.0000       0.137192         3.7332 
 185   0.0000       0.139304         3.7907 
 186   0.0000       0.141148         3.8408 
 187   0.0000       0.163940         4.4610 
 188   0.0000       0.165166         4.4944 
 189   0.0000       0.165653         4.5076 
 190   0.0000       0.172872         4.7041 
 191   0.0000       0.180577         4.9138 
 192   0.0000       0.183978         5.0063 
 193   0.0000       0.188951         5.1416 
 194   0.0000       0.204887         5.5752 
 195   0.0000       0.205596         5.5945 
 196   0.0000       0.208108         5.6629 
 197   0.0000       0.208838         5.6828 
 198   0.0000       0.216731         5.8976 
 199   0.0000       0.228490         6.2175 
 200   0.0000       0.233506         6.3540 
 201   0.0000       0.233958         6.3663 
 202   0.0000       0.238993         6.5033 
 203   0.0000       0.239754         6.5240 
 204   0.0000       0.246379         6.7043 
 205   0.0000       0.255200         6.9443 
 206   0.0000       0.256295         6.9741 
 207   0.0000       0.257614         7.0100 
 208   0.0000       0.258861         7.0440 
 209   0.0000       0.260541         7.0897 
 210   0.0000       0.263302         7.1648 
 211   0.0000       0.265791         7.2325 
 212   0.0000       0.268819         7.3149 
 213   0.0000       0.271540         7.3890 
 214   0.0000       0.272835         7.4242 
 215   0.0000       0.275808         7.5051 
 216   0.0000       0.277829         7.5601 
 217   0.0000       0.282718         7.6931 
 218   0.0000       0.286657         7.8003 
 219   0.0000       0.287479         7.8227 
 220   0.0000       0.289882         7.8881 
 221   0.0000       0.292033         7.9466 
 222   0.0000       0.294977         8.0267 
 223   0.0000       0.296733         8.0745 
 224   0.0000       0.297047         8.0831 
 225   0.0000       0.300643         8.1809 
 226   0.0000       0.304926         8.2974 
 227   0.0000       0.308725         8.4008 
 228   0.0000       0.312378         8.5002 
 229   0.0000       0.324549         8.8314 
 230   0.0000       0.327894         8.9225 
 231   0.0000       0.334622         9.1055 
 232   0.0000       0.343143         9.3374 
 233   0.0000       0.355388         9.6706 
 234   0.0000       0.361447         9.8355 
 235   0.0000       0.366289         9.9672 
 236   0.0000       0.376050        10.2328 
 237   0.0000       0.390469        10.6252 
 238   0.0000       0.395460        10.7610 
 239   0.0000       0.399998        10.8845 
 240   0.0000       0.407364        11.0849 
 241   0.0000       0.411374        11.1940 
 242   0.0000       0.412610        11.2277 
 243   0.0000       0.418461        11.3869 
 244   0.0000       0.429537        11.6883 
 245   0.0000       0.434729        11.8296 
 246   0.0000       0.437065        11.8931 
 247   0.0000       0.440471        11.9858 
 248   0.0000       0.442374        12.0376 
 249   0.0000       0.448291        12.1986 
 250   0.0000       0.455771        12.4022 
 251   0.0000       0.466239        12.6870 
 252   0.0000       0.468131        12.7385 
 253   0.0000       0.468427        12.7466 
 254   0.0000       0.471046        12.8178 
 255   0.0000       0.475033        12.9263 
 256   0.0000       0.476396        12.9634 
 257   0.0000       0.479635        13.0515 
 258   0.0000       0.489202        13.3119 
 259   0.0000       0.496106        13.4997 
 260   0.0000       0.503740        13.7075 
 261   0.0000       0.505130        13.7453 
 262   0.0000       0.506418        13.7803 
 263   0.0000       0.512056        13.9338 
 264   0.0000       0.516808        14.0631 
 265   0.0000       0.520340        14.1592 
 266   0.0000       0.523312        14.2400 
 267   0.0000       0.528436        14.3795 
 268   0.0000       0.531796        14.4709 
 269   0.0000       0.535975        14.5846 
 270   0.0000       0.543910        14.8006 
 271   0.0000       0.548959        14.9379 
 272   0.0000       0.558196        15.1893 
 273   0.0000       0.559565        15.2265 
 274   0.0000       0.562354        15.3024 
 275   0.0000       0.566157        15.4059 
 276   0.0000       0.571662        15.5557 
 277   0.0000       0.573884        15.6162 
 278   0.0000       0.579638        15.7727 
 279   0.0000       0.586281        15.9535 
 280   0.0000       0.592251        16.1160 
 281   0.0000       0.593295        16.1444 
 282   0.0000       0.593825        16.1588 
 283   0.0000       0.595901        16.2153 
 284   0.0000       0.598397        16.2832 
 285   0.0000       0.600022        16.3274 
 286   0.0000       0.604871        16.4594 
 287   0.0000       0.610853        16.6221 
 288   0.0000       0.616887        16.7863 
 289   0.0000       0.624073        16.9819 
 290   0.0000       0.625560        17.0223 
 291   0.0000       0.628081        17.0909 
 292   0.0000       0.634113        17.2551 
 293   0.0000       0.635615        17.2960 
 294   0.0000       0.645101        17.5541 
 295   0.0000       0.647996        17.6329 
 296   0.0000       0.652322        17.7506 
 297   0.0000       0.655275        17.8309 
 298   0.0000       0.661325        17.9956 
 299   0.0000       0.666096        18.1254 
 300   0.0000       0.671174        18.2636 
 301   0.0000       0.675277        18.3752 
 302   0.0000       0.677508        18.4359 
 303   0.0000       0.679506        18.4903 
 304   0.0000       0.681272        18.5384 
 305   0.0000       0.685083        18.6421 
 306   0.0000       0.688580        18.7372 
 307   0.0000       0.691995        18.8301 
 308   0.0000       0.695348        18.9214 
 309   0.0000       0.699791        19.0423 
 310   0.0000       0.702538        19.1170 
 311   0.0000       0.703744        19.1498 
 312   0.0000       0.706147        19.2152 
 313   0.0000       0.711341        19.3566 
 314   0.0000       0.712284        19.3822 
 315   0.0000       0.715926        19.4813 
 316   0.0000       0.716995        19.5104 
 317   0.0000       0.718125        19.5412 
 318   0.0000       0.724322        19.7098 
 319   0.0000       0.727444        19.7947 
 320   0.0000       0.728084        19.8122 
 321   0.0000       0.728646        19.8275 
 322   0.0000       0.730979        19.8909 
 323   0.0000       0.732572        19.9343 
 324   0.0000       0.735353        20.0100 
 325   0.0000       0.740440        20.1484 
 326   0.0000       0.743828        20.2406 
 327   0.0000       0.749351        20.3909 
 328   0.0000       0.753223        20.4962 
 329   0.0000       0.756302        20.5800 
 330   0.0000       0.757627        20.6161 
 331   0.0000       0.762442        20.7471 
 332   0.0000       0.765605        20.8332 
 333   0.0000       0.766977        20.8705 
 334   0.0000       0.768889        20.9225 
 335   0.0000       0.774176        21.0664 
 336   0.0000       0.778544        21.1853 
 337   0.0000       0.781338        21.2613 
 338   0.0000       0.784340        21.3430 
 339   0.0000       0.789749        21.4902 
 340   0.0000       0.792857        21.5747 
 341   0.0000       0.794323        21.6146 
 342   0.0000       0.800480        21.7822 
 343   0.0000       0.803271        21.8581 
 344   0.0000       0.806037        21.9334 
 345   0.0000       0.808017        21.9873 
 346   0.0000       0.810164        22.0457 
 347   0.0000       0.815096        22.1799 
 348   0.0000       0.815544        22.1921 
 349   0.0000       0.817172        22.2364 
 350   0.0000       0.819875        22.3099 
 351   0.0000       0.822519        22.3819 
 352   0.0000       0.824103        22.4250 
 353   0.0000       0.826841        22.4995 
 354   0.0000       0.830241        22.5920 
 355   0.0000       0.832762        22.6606 
 356   0.0000       0.834338        22.7035 
 357   0.0000       0.836490        22.7620 
 358   0.0000       0.838489        22.8165 
 359   0.0000       0.840069        22.8594 
 360   0.0000       0.842240        22.9185 
 361   0.0000       0.843550        22.9542 
 362   0.0000       0.845287        23.0014 
 363   0.0000       0.849302        23.1107 
 364   0.0000       0.851354        23.1665 
 365   0.0000       0.856106        23.2958 
 366   0.0000       0.858342        23.3567 
 367   0.0000       0.861755        23.4495 
 368   0.0000       0.867718        23.6118 
 369   0.0000       0.869577        23.6624 
 370   0.0000       0.870465        23.6866 
 371   0.0000       0.873156        23.7598 
 372   0.0000       0.875487        23.8232 
 373   0.0000       0.877301        23.8726 
 374   0.0000       0.878888        23.9157 
 375   0.0000       0.882789        24.0219 
 376   0.0000       0.888662        24.1817 
 377   0.0000       0.889662        24.2089 
 378   0.0000       0.892412        24.2838 
 379   0.0000       0.893587        24.3157 
 380   0.0000       0.897153        24.4128 
 381   0.0000       0.898455        24.4482 
 382   0.0000       0.900151        24.4944 
 383   0.0000       0.900772        24.5113 
 384   0.0000       0.905791        24.6478 
 385   0.0000       0.906505        24.6673 
 386   0.0000       0.908420        24.7194 
 387   0.0000       0.910920        24.7874 
 388   0.0000       0.915298        24.9065 
 389   0.0000       0.917567        24.9683 
 390   0.0000       0.920483        25.0476 
 391   0.0000       0.925574        25.1861 
 392   0.0000       0.926827        25.2202 
 393   0.0000       0.928082        25.2544 
 394   0.0000       0.929564        25.2947 
 395   0.0000       0.931618        25.3506 
 396   0.0000       0.935122        25.4460 
 397   0.0000       0.940923        25.6038 
 398   0.0000       0.943136        25.6640 
 399   0.0000       0.943989        25.6873 
 400   0.0000       0.948499        25.8100 
 401   0.0000       0.953824        25.9549 
 402   0.0000       0.955079        25.9890 
 403   0.0000       0.957605        26.0578 
 404   0.0000       0.960559        26.1381 
 405   0.0000       0.962659        26.1953 
 406   0.0000       0.971246        26.4290 
 407   0.0000       0.977915        26.6104 
 408   0.0000       0.981905        26.7190 
 409   0.0000       0.986537        26.8450 
 410   0.0000       0.987720        26.8772 
 411   0.0000       0.992243        27.0003 
 412   0.0000       0.998267        27.1642 
 413   0.0000       1.001717        27.2581 
 414   0.0000       1.006168        27.3792 
 415   0.0000       1.009740        27.4764 
 416   0.0000       1.015418        27.6309 
 417   0.0000       1.017857        27.6973 
 418   0.0000       1.026581        27.9347 
 419   0.0000       1.032262        28.0893 
 420   0.0000       1.033878        28.1332 
 421   0.0000       1.037899        28.2427 
 422   0.0000       1.043255        28.3884 
 423   0.0000       1.052805        28.6483 
 424   0.0000       1.061025        28.8720 
 425   0.0000       1.065858        29.0035 
 426   0.0000       1.070078        29.1183 
 427   0.0000       1.074671        29.2433 
 428   0.0000       1.077925        29.3318 
 429   0.0000       1.086886        29.5757 
 430   0.0000       1.088496        29.6195 
 431   0.0000       1.091260        29.6947 
 432   0.0000       1.099224        29.9114 
 433   0.0000       1.101737        29.9798 
 434   0.0000       1.106123        30.0991 
 435   0.0000       1.109226        30.1836 
 436   0.0000       1.112758        30.2797 
 437   0.0000       1.116362        30.3778 
 438   0.0000       1.119297        30.4576 
 439   0.0000       1.121125        30.5074 
 440   0.0000       1.124049        30.5869 
 441   0.0000       1.127913        30.6921 
 442   0.0000       1.129738        30.7417 
 443   0.0000       1.133557        30.8456 
 444   0.0000       1.137185        30.9444 
 445   0.0000       1.138584        30.9824 
 446   0.0000       1.145426        31.1686 
 447   0.0000       1.150061        31.2947 
 448   0.0000       1.150642        31.3106 
 449   0.0000       1.154789        31.4234 
 450   0.0000       1.159297        31.5461 
 451   0.0000       1.160460        31.5777 
 452   0.0000       1.165621        31.7182 
 453   0.0000       1.168038        31.7839 
 454   0.0000       1.169060        31.8117 
 455   0.0000       1.171927        31.8897 
 456   0.0000       1.182009        32.1641 
 457   0.0000       1.183273        32.1985 
 458   0.0000       1.192007        32.4362 
 459   0.0000       1.197464        32.5847 
 460   0.0000       1.202123        32.7114 
 461   0.0000       1.202491        32.7214 
 462   0.0000       1.204383        32.7729 
 463   0.0000       1.208129        32.8749 
 464   0.0000       1.209299        32.9067 
 465   0.0000       1.216576        33.1047 
 466   0.0000       1.217068        33.1181 
 467   0.0000       1.224855        33.3300 
 468   0.0000       1.226583        33.3770 
 469   0.0000       1.228811        33.4376 
 470   0.0000       1.230896        33.4944 
 471   0.0000       1.235693        33.6249 
 472   0.0000       1.239203        33.7204 
 473   0.0000       1.242746        33.8168 
 474   0.0000       1.243928        33.8490 
 475   0.0000       1.248482        33.9729 
 476   0.0000       1.250757        34.0348 
 477   0.0000       1.251600        34.0578 
 478   0.0000       1.252066        34.0705 
 479   0.0000       1.259110        34.2621 
 480   0.0000       1.261195        34.3189 
 481   0.0000       1.263541        34.3827 
 482   0.0000       1.269083        34.5335 
 483   0.0000       1.271143        34.5896 
 484   0.0000       1.278647        34.7938 
 485   0.0000       1.281900        34.8823 
 486   0.0000       1.283258        34.9192 
 487   0.0000       1.288915        35.0732 
 488   0.0000       1.291174        35.1346 
 489   0.0000       1.292823        35.1795 
 490   0.0000       1.299456        35.3600 
 491   0.0000       1.300390        35.3854 
 492   0.0000       1.305677        35.5293 
 493   0.0000       1.311456        35.6865 
 494   0.0000       1.313007        35.7287 
 495   0.0000       1.318964        35.8908 
 496   0.0000       1.321165        35.9507 
 497   0.0000       1.323939        36.0262 
 498   0.0000       1.327378        36.1198 
 499   0.0000       1.330926        36.2163 
 500   0.0000       1.335048        36.3285 
 501   0.0000       1.340095        36.4658 
 502   0.0000       1.341511        36.5044 
 503   0.0000       1.343865        36.5684 
 504   0.0000       1.347544        36.6685 
 505   0.0000       1.350476        36.7483 
 506   0.0000       1.351962        36.7887 
 507   0.0000       1.357986        36.9527 
 508   0.0000       1.360103        37.0103 
 509   0.0000       1.362357        37.0716 
[...]
      pz      :     0.022121  p :     0.079778
      px      :     0.043609
      py      :     0.014049
 77 H s       :     0.884516  s :     0.884516
      pz      :     0.047975  p :     0.079291
      px      :     0.015024
      py      :     0.016292
 78 H s       :     0.884838  s :     0.884838
      pz      :     0.025884  p :     0.079265
      px      :     0.020456
      py      :     0.032926
 79 H s       :     0.910836  s :     0.910836
      pz      :     0.021788  p :     0.086289
      px      :     0.021659
      py      :     0.042841
 80 H s       :     0.864372  s :     0.864372
      pz      :     0.039391  p :     0.084823
      px      :     0.030279
      py      :     0.015154
 81 H s       :     0.886630  s :     0.886630
      pz      :     0.037837  p :     0.084130
      px      :     0.016170
      py      :     0.030124
 82 H s       :     0.915927  s :     0.915927
      pz      :     0.021944  p :     0.086732
      px      :     0.031658
      py      :     0.033130
 83 H s       :     0.873197  s :     0.873197
      pz      :     0.039296  p :     0.084121
      px      :     0.015270
      py      :     0.029556
 84 H s       :     0.886467  s :     0.886467
      pz      :     0.035783  p :     0.083429
      px      :     0.031705
      py      :     0.015941
 85 H s       :     0.892619  s :     0.892619
      pz      :     0.022495  p :     0.079795
      px      :     0.014061
      py      :     0.043239
 86 H s       :     0.890851  s :     0.890851
      pz      :     0.024736  p :     0.078840
      px      :     0.032990
      py      :     0.021114
 87 H s       :     0.889723  s :     0.889723
      pz      :     0.048027  p :     0.078752
      px      :     0.015586
      py      :     0.015139
 88 H s       :     0.910559  s :     0.910559
      pz      :     0.021606  p :     0.087008
      px      :     0.042948
      py      :     0.022454
 89 H s       :     0.871030  s :     0.871030
      pz      :     0.037966  p :     0.083865
      px      :     0.030507
      py      :     0.015392


                      *****************************
                      * MAYER POPULATION ANALYSIS *
                      *****************************

  NA   - Mulliken gross atomic population
  ZA   - Total nuclear charge
  QA   - Mulliken gross atomic charge
  VA   - Mayer's total valence
  BVA  - Mayer's bonded valence
  FA   - Mayer's free valence

  ATOM       NA         ZA         QA         VA         BVA        FA
  0 C      5.7831     6.0000     0.2169     3.8477     3.8477     0.0000
  1 N      7.4551     7.0000    -0.4551     3.3426     3.3426     0.0000
  2 C      6.0720     6.0000    -0.0720     3.9234     3.9234    -0.0000
  3 N      7.3407     7.0000    -0.3407     3.4552     3.4552    -0.0000
  4 C      6.0612     6.0000    -0.0612     4.0969     4.0969    -0.0000
  5 N      7.5678     7.0000    -0.5678     3.0950     3.0950    -0.0000
  6 C      6.1048     6.0000    -0.1048     3.9387     3.9387    -0.0000
  7 N      7.3409     7.0000    -0.3409     3.4326     3.4326    -0.0000
  8 C      5.7898     6.0000     0.2102     3.8486     3.8486     0.0000
  9 N      7.5621     7.0000    -0.5621     3.0768     3.0768    -0.0000
 10 C      5.8813     6.0000     0.1187     3.9092     3.9092     0.0000
 11 N      7.4387     7.0000    -0.4387     3.3770     3.3770    -0.0000
 12 C      6.0624     6.0000    -0.0624     3.8598     3.8598     0.0000
 13 N      7.4295     7.0000    -0.4295     3.4280     3.4280     0.0000
 14 C      5.7771     6.0000     0.2229     3.7938     3.7938    -0.0000
 15 N      7.4407     7.0000    -0.4407     3.3736     3.3736     0.0000
 16 C      5.7695     6.0000     0.2305     3.7760     3.7760    -0.0000
 17 C      6.1212     6.0000    -0.1212     3.9571     3.9571     0.0000
 18 C      6.1834     6.0000    -0.1834     3.7597     3.7597    -0.0000
 19 C      5.7839     6.0000     0.2161     3.8717     3.8717    -0.0000
 20 C      5.7868     6.0000     0.2132     3.8293     3.8293     0.0000
 21 C      6.0636     6.0000    -0.0636     3.8285     3.8285     0.0000
 22 C      6.0912     6.0000    -0.0912     3.9830     3.9830    -0.0000
 23 C      6.0396     6.0000    -0.0396     3.9927     3.9927    -0.0000
 24 C      5.8068     6.0000     0.1932     3.8212     3.8212    -0.0000
 25 C      5.8853     6.0000     0.1147     3.8920     3.8920     0.0000
 26 C      6.0904     6.0000    -0.0904     3.9100     3.9100     0.0000
 27 C      5.7843     6.0000     0.2157     3.8621     3.8621    -0.0000
 28 C      6.0618     6.0000    -0.0618     3.9887     3.9887    -0.0000
 29 C      6.1819     6.0000    -0.1819     3.7457     3.7457    -0.0000
 30 C      5.7538     6.0000     0.2462     3.8012     3.8012     0.0000
 31 C      5.7703     6.0000     0.2297     3.8171     3.8171    -0.0000
 32 C      6.0619     6.0000    -0.0619     3.9228     3.9228     0.0000
 33 C      6.0603     6.0000    -0.0603     3.9713     3.9713    -0.0000
 34 C      6.0516     6.0000    -0.0516     3.9834     3.9834     0.0000
 35 C      5.7712     6.0000     0.2288     3.8166     3.8166     0.0000
 36 C      5.8917     6.0000     0.1083     3.8748     3.8748     0.0000
 37 C      6.0642     6.0000    -0.0642     3.9179     3.9179    -0.0000
 38 C      5.7693     6.0000     0.2307     3.8004     3.8004    -0.0000
 39 C      6.0573     6.0000    -0.0573     3.9832     3.9832    -0.0000
 40 C      6.1815     6.0000    -0.1815     3.7269     3.7269    -0.0000
 41 C      5.7736     6.0000     0.2264     3.8876     3.8876     0.0000
 42 C      5.8023     6.0000     0.1977     3.8255     3.8255     0.0000
 43 C      6.0723     6.0000    -0.0723     3.9000     3.9000    -0.0000
 44 C      6.0890     6.0000    -0.0890     3.9849     3.9849     0.0000
 45 C      6.0615     6.0000    -0.0615     3.9919     3.9919    -0.0000
 46 C      5.7877     6.0000     0.2123     3.8283     3.8283    -0.0000
 47 C      5.8848     6.0000     0.1152     3.8925     3.8925     0.0000
 48 C      6.0666     6.0000    -0.0666     3.9095     3.9095     0.0000
 49 C      5.7611     6.0000     0.2389     3.8940     3.8940    -0.0000
 50 C      6.0462     6.0000    -0.0462     3.9903     3.9903     0.0000
 51 C      6.1926     6.0000    -0.1926     3.7366     3.7366     0.0000
 52 H      0.9637     1.0000     0.0363     0.9857     0.9857     0.0000
 53 H      1.0179     1.0000    -0.0179     0.9987     0.9987    -0.0000
 54 H      0.9549     1.0000     0.0451     1.0192     1.0192     0.0000
 55 H      0.9649     1.0000     0.0351     0.9862     0.9862     0.0000
 56 H      0.9505     1.0000     0.0495     0.9695     0.9695     0.0000
 57 H      0.9522     1.0000     0.0478     0.9826     0.9826    -0.0000
 58 H      0.9532     1.0000     0.0468     0.9847     0.9847     0.0000
 59 H      1.0079     1.0000    -0.0079     0.9982     0.9982     0.0000
 60 H      0.9563     1.0000     0.0437     1.0159     1.0159     0.0000
 61 H      0.8288     1.0000     0.1712     1.0422     1.0422    -0.0000
 62 H      0.8246     1.0000     0.1754     1.0436     1.0436    -0.0000
 63 H      0.9452     1.0000     0.0548     0.9853     0.9853     0.0000
 64 H      1.0269     1.0000    -0.0269     0.9927     0.9927     0.0000
 65 H      0.9531     1.0000     0.0469     1.0099     1.0099    -0.0000
 66 H      0.9447     1.0000     0.0553     0.9855     0.9855    -0.0000
 67 H      0.9379     1.0000     0.0621     0.9719     0.9719     0.0000
 68 H      0.9430     1.0000     0.0570     0.9868     0.9868    -0.0000
 69 H      0.9439     1.0000     0.0561     0.9828     0.9828     0.0000
 70 H      1.0305     1.0000    -0.0305     0.9941     0.9941     0.0000
 71 H      0.9557     1.0000     0.0443     1.0059     1.0059    -0.0000
 72 H      0.9287     1.0000     0.0713     0.9836     0.9836    -0.0000
 73 H      1.0080     1.0000    -0.0080     1.0010     1.0010     0.0000
 74 H      0.9396     1.0000     0.0604     1.0100     1.0100     0.0000
 75 H      0.9292     1.0000     0.0708     0.9838     0.9838     0.0000
 76 H      0.9251     1.0000     0.0749     0.9721     0.9721     0.0000
 77 H      0.9320     1.0000     0.0680     0.9855     0.9855     0.0000
 78 H      0.9326     1.0000     0.0674     0.9854     0.9854     0.0000
 79 H      1.0168     1.0000    -0.0168     0.9974     0.9974    -0.0000
 80 H      0.9386     1.0000     0.0614     1.0072     1.0072    -0.0000
 81 H      0.9453     1.0000     0.0547     0.9856     0.9856     0.0000
 82 H      1.0247     1.0000    -0.0247     0.9935     0.9935    -0.0000
 83 H      0.9577     1.0000     0.0423     1.0083     1.0083    -0.0000
 84 H      0.9454     1.0000     0.0546     0.9852     0.9852     0.0000
 85 H      0.9387     1.0000     0.0613     0.9716     0.9716     0.0000
 86 H      0.9442     1.0000     0.0558     0.9839     0.9839     0.0000
 87 H      0.9425     1.0000     0.0575     0.9857     0.9857    -0.0000
 88 H      1.0144     1.0000    -0.0144     0.9968     0.9968    -0.0000
 89 H      0.9529     1.0000     0.0471     1.0076     1.0076    -0.0000

  Mayer bond orders larger than 0.100000
B(  0-C ,  1-N ) :   1.1005 B(  0-C , 17-C ) :   1.7093 B(  0-C , 52-H ) :   0.9637 
B(  1-N ,  8-C ) :   1.0888 B(  1-N , 10-C ) :   0.9774 B(  2-C , 12-C ) :   1.4931 
B(  2-C , 16-C ) :   1.3686 B(  2-C , 53-H ) :   0.9729 B(  3-N , 14-C ) :   1.2216 
B(  3-N , 16-C ) :   1.1818 B(  3-N , 61-H ) :   0.8987 B(  4-C ,  6-C ) :   1.2149 
B(  4-C , 17-C ) :   1.2167 B(  4-C , 18-C ) :   1.4683 B(  5-N , 19-C ) :   1.4579 
B(  5-N , 27-C ) :   1.3721 B(  6-C ,  8-C ) :   1.7213 B(  6-C , 54-H ) :   0.8891 
B(  7-N , 30-C ) :   1.1960 B(  7-N , 38-C ) :   1.1890 B(  7-N , 62-H ) :   0.8968 
B(  8-C , 55-H ) :   0.9632 B(  9-N , 41-C ) :   1.3950 B(  9-N , 49-C ) :   1.4244 
B( 10-C , 56-H ) :   0.9775 B( 10-C , 57-H ) :   0.9822 B( 10-C , 58-H ) :   0.9842 
B( 11-N , 20-C ) :   1.1303 B( 11-N , 24-C ) :   1.1060 B( 11-N , 25-C ) :   0.9606 
B( 12-C , 14-C ) :   1.3568 B( 12-C , 59-H ) :   0.9450 B( 13-N , 31-C ) :   1.1608 
B( 13-N , 35-C ) :   1.1607 B( 13-N , 36-C ) :   0.9414 B( 14-C , 18-C ) :   1.1211 
B( 15-N , 42-C ) :   1.1085 B( 15-N , 46-C ) :   1.1254 B( 15-N , 47-C ) :   0.9608 
B( 16-C , 51-C ) :   1.1686 B( 17-C , 60-H ) :   0.9133 B( 18-C , 19-C ) :   1.1198 
B( 19-C , 21-C ) :   1.2533 B( 20-C , 28-C ) :   1.6297 B( 20-C , 63-H ) :   0.9703 
B( 21-C , 26-C ) :   1.5808 B( 21-C , 64-H ) :   0.9221 B( 22-C , 23-C ) :   1.2883 
B( 22-C , 28-C ) :   1.2628 B( 22-C , 29-C ) :   1.2276 B( 23-C , 24-C ) :   1.6214 
B( 23-C , 65-H ) :   0.9703 B( 24-C , 66-H ) :   0.9695 B( 25-C , 67-H ) :   0.9761 
B( 25-C , 68-H ) :   0.9828 B( 25-C , 69-H ) :   0.9824 B( 26-C , 27-C ) :   1.2610 
B( 26-C , 70-H ) :   0.9679 B( 27-C , 29-C ) :   1.2051 B( 28-C , 71-H ) :   0.9720 
B( 29-C , 30-C ) :   1.2462 B( 30-C , 32-C ) :   1.2795 B( 31-C , 39-C ) :   1.5878 
B( 31-C , 72-H ) :   0.9681 B( 32-C , 37-C ) :   1.5790 B( 32-C , 73-H ) :   0.9786 
B( 33-C , 34-C ) :   1.3064 B( 33-C , 39-C ) :   1.3044 B( 33-C , 40-C ) :   1.1767 
B( 34-C , 35-C ) :   1.5857 B( 34-C , 74-H ) :   0.9697 B( 35-C , 75-H ) :   0.9681 
B( 36-C , 76-H ) :   0.9768 B( 36-C , 77-H ) :   0.9816 B( 36-C , 78-H ) :   0.9823 
B( 37-C , 38-C ) :   1.2858 B( 37-C , 79-H ) :   0.9764 B( 38-C , 40-C ) :   1.2334 
B( 39-C , 80-H ) :   0.9705 B( 40-C , 41-C ) :   1.2508 B( 41-C , 43-C ) :   1.1836 
B( 42-C , 50-C ) :   1.6319 B( 42-C , 81-H ) :   0.9696 B( 43-C , 48-C ) :   1.6694 
B( 43-C , 82-H ) :   0.9722 B( 44-C , 45-C ) :   1.2644 B( 44-C , 50-C ) :   1.2735 
B( 44-C , 51-C ) :   1.2585 B( 45-C , 46-C ) :   1.6335 B( 45-C , 83-H ) :   0.9718 
B( 46-C , 84-H ) :   0.9700 B( 47-C , 85-H ) :   0.9762 B( 47-C , 86-H ) :   0.9829 
B( 47-C , 87-H ) :   0.9824 B( 48-C , 49-C ) :   1.1870 B( 48-C , 88-H ) :   0.9748 
B( 49-C , 51-C ) :   1.2456 B( 50-C , 89-H ) :   0.9708 

-------
TIMINGS
-------

Total SCF time: 0 days 0 hours 23 min 10 sec 

Total time                  ....    1390.967 sec
Sum of individual times     ....    1387.201 sec  ( 99.7%)

Fock matrix formation       ....    1366.575 sec  ( 98.2%)
Diagonalization             ....       6.680 sec  (  0.5%)
Density matrix formation    ....       0.382 sec  (  0.0%)
Population analysis         ....       0.425 sec  (  0.0%)
Initial guess               ....       1.911 sec  (  0.1%)
Orbital Transformation      ....       0.000 sec  (  0.0%)
Orbital Orthonormalization  ....       0.000 sec  (  0.0%)
DIIS solution               ....       2.917 sec  (  0.2%)
SOSCF solution              ....       7.296 sec  (  0.5%)

Maximum memory used throughout the entire SCF-calculation: 302.7 MB


           ************************************************************
           *        Program running with 16 parallel MPI-processes    *
           *              working on a common directory               *
           ************************************************************

------------------------------------------------------------------------------
                                ORCA  MP2 
------------------------------------------------------------------------------

Freezing NCore=104 chemical core electrons

----------
MP2 ENERGY (disk based algorithm)
----------

Dimension of the basis                    ...  918
Memory devoted to MP2                     ... 2000 MB   
Data format for buffers                   ... DOUBLE
Compression type for matrix containers    ... UNCOMPRESSED

-------------------------------
PARTIAL EXCHANGE TRANSFORMATION
-------------------------------

Transformation type                        ... one-operator
Generation of integrals (i,mue|j,nue)      ... ON
Generation of integrals (mue,kappa|nue,tau)... OFF
Generation of integrals (i,mue|a,nue)      ... OFF
Dimension of the basis                     ...  918
Number of internal MOs                     ...  127 (  52- 178)
Pair cutoff                                ... 2.500e-12 Eh
Number of AO pairs in the trafo            ... 421821
Total Number of distinct AO pairs          ... 421821
Memory devoted for trafo                   ... 2000.0 MB 
Max. Number of MO pairs treated together   ...  311      
Number Format for Storage                  ... Double (8 Byte)
Integral package used                      ... LIBINT

Starting integral evaluation:
    ... done with AO integral generation
Closing buffer AOK     (38.33 GB; CompressionRatio= 1.32)
Collecting buffer AOK 
Number of MO pairs included in the trafo   ... 8128
------------------------
SORTING OF (i,mue|j,nue)
------------------------

IBATCH = 1 of  2
IBATCH = 2 of  2
Closing buffer KAO     (51.03 GB; CompressionRatio= 1.00)
Collecting buffer KAO 
N(AO-Batches) Done                         ...  86044521 
N(AO-Batches) Skipped                      ...  82434403 
N(IJ)-pairs Skipped                        ...         0 
TOTAL TIME for half transformation         ...  2545.143 sec
AO-integral generation                     ...   177.322 sec
Half transformation                        ...   314.225 sec
K-integral sorting                         ...  1913.204 sec
Process 13:   Internal MO 156
Process 10:   Internal MO 132
Process  1:   Internal MO  60
Process  7:   Internal MO 108

Finished integral transformation - now doing MP2 part

OPERATOR COMBINATION   0   0: ij=( 52..178, 52..178)
Process  4:   Internal MO  84
Process  2:   Internal MO  69
Process  5:   Internal MO  93
Process  0:   Internal MO  54
Process  1:   Internal MO  63
Process  8:   Internal MO 117
Process  2:   Internal MO  72
Process  6:   Internal MO 102
Process  0:   Internal MO  57
Process 14:   Internal MO 165
Process 11:   Internal MO 141
Process  1:   Internal MO  66
Process  4:   Internal MO  87
Process  2:   Internal MO  75
Process  3:   Internal MO  78
Process  7:   Internal MO 111
Process 12:   Internal MO 150
Process  5:   Internal MO  96
Process  9:   Internal MO 126
Process  3:   Internal MO  81
Process  6:   Internal MO 105
Process 10:   Internal MO 135
Process 15:   Internal MO 174
Process  4:   Internal MO  90
Process  8:   Internal MO 120
Process  7:   Internal MO 114
Process  5:   Internal MO  99
Process 13:   Internal MO 159
Process 11:   Internal MO 144
Process  9:   Internal MO 129
Process  8:   Internal MO 123
Process 14:   Internal MO 168
Process 10:   Internal MO 138
Process 12:   Internal MO 153
Process 15:   Internal MO 177
Process 13:   Internal MO 162
Process 11:   Internal MO 147
Process 14:   Internal MO 171
-----------------------------------------------
 MP2 CORRELATION ENERGY   :     -7.288994480 Eh
-----------------------------------------------


-------
TIMINGS
-------
Total time                : 2837.789 sec
Integral trafo            : 2547.466 sec ( 89.8%)
K(i,j)                    :   28.677 sec (  1.0%)
T(i,j)                    :    0.155 sec (  0.0%)

---------------------------------------
MP2 TOTAL ENERGY:    -2130.801151752 Eh
---------------------------------------

Maximum memory used throughout the entire MP2-calculation: 2275.3 MB

-------------------------   --------------------
FINAL SINGLE POINT ENERGY     -2130.801151752212
-------------------------   --------------------


                            ***************************************
                            *     ORCA property calculations      *
                            ***************************************


  WARNING: The energy has been calculated at the MP2 level but the densities
           used in the property calculations are still SCF densities
           MP2 response densities have not been calculated 
           use %mp2 Density relaxed end
           or  %mp2 Density unrelaxed end

                                    ---------------------
                                    Active property flags
                                    ---------------------
   (+) Dipole Moment


------------------------------------------------------------------------------
                       ORCA ELECTRIC PROPERTIES CALCULATION
------------------------------------------------------------------------------

Dipole Moment Calculation                       ... on
Quadrupole Moment Calculation                   ... off
Polarizability Calculation                      ... off
GBWName                                         ... /scratch/allen/tmpyp4_amber_gaff2/conf1/conf1/Conf17.orca.gbw
Electron density                                ... /scratch/allen/tmpyp4_amber_gaff2/conf1/conf1/Conf17.orca.scfp
The origin for moment calculation is the CENTER OF MASS  = (-0.000999, -0.004841  0.002787)

-------------
DIPOLE MOMENT
-------------
                                X             Y             Z
Electronic contribution:      2.92730      -4.19777      -0.09960
Nuclear contribution   :     -0.04490       0.15688       0.11544
                        -----------------------------------------
Total Dipole Moment    :      2.88240      -4.04089       0.01584
                        -----------------------------------------
Magnitude (a.u.)       :      4.96359
Magnitude (Debye)      :     12.61644



--------------------
Rotational spectrum 
--------------------
 
Rotational constants in cm-1:     0.001503     0.001478     0.000760 
Rotational constants in MHz :    45.060728    44.294912    22.785897 

 Dipole components along the rotational axes: 
x,y,z [a.u.] :     3.574895     3.443392     0.020166 
x,y,z [Debye]:     9.086660     8.752407     0.051257 

 

Timings for individual modules:

Sum of individual times         ...     4251.106 sec (=  70.852 min)
GTO integral calculation        ...        2.762 sec (=   0.046 min)   0.1 %
SCF iterations                  ...     1391.939 sec (=  23.199 min)  32.7 %
MP2 module                      ...     2856.405 sec (=  47.607 min)  67.2 %
                             ****ORCA TERMINATED NORMALLY****
TOTAL RUN TIME: 0 days 1 hours 10 minutes 54 seconds 376 msec
# of primitive gaussian functions

