
                                 *****************
                                 * O   R   C   A *
                                 *****************

                                            #,                                       
                                            ###                                      
                                            ####                                     
                                            #####                                    
                                            ######                                   
                                           ########,                                 
                                     ,,################,,,,,                         
                               ,,#################################,,                 
                          ,,##########################################,,             
                       ,#########################################, ''#####,          
                    ,#############################################,,   '####,        
                  ,##################################################,,,,####,       
                ,###########''''           ''''###############################       
              ,#####''   ,,,,##########,,,,          '''####'''          '####       
            ,##' ,,,,###########################,,,                        '##       
           ' ,,###''''                  '''############,,,                           
         ,,##''                                '''############,,,,        ,,,,,,###''
      ,#''                                            '''#######################'''  
     '                                                          ''''####''''         
             ,#######,   #######,   ,#######,      ##                                
            ,#'     '#,  ##    ##  ,#'     '#,    #''#        ######   ,####,        
            ##       ##  ##   ,#'  ##            #'  '#       #        #'  '#        
            ##       ##  #######   ##           ,######,      #####,   #    #        
            '#,     ,#'  ##    ##  '#,     ,#' ,#      #,         ##   #,  ,#        
             '#######'   ##     ##  '#######'  #'      '#     #####' # '####'        



                  #######################################################
                  #                        -***-                        #
                  #          Department of theory and spectroscopy      #
                  #    Directorship and core code : Frank Neese         #
                  #        Max Planck Institute fuer Kohlenforschung    #
                  #                Kaiser Wilhelm Platz 1               #
                  #                 D-45470 Muelheim/Ruhr               #
                  #                      Germany                        #
                  #                                                     #
                  #                  All rights reserved                #
                  #                        -***-                        #
                  #######################################################


                         Program Version 5.0.4 -  RELEASE  -


 With contributions from (in alphabetic order):
   Daniel Aravena         : Magnetic Suceptibility
   Michael Atanasov       : Ab Initio Ligand Field Theory (pilot matlab implementation)
   Alexander A. Auer      : GIAO ZORA, VPT2 properties, NMR spectrum
   Ute Becker             : Parallelization
   Giovanni Bistoni       : ED, misc. LED, open-shell LED, HFLD
   Martin Brehm           : Molecular dynamics
   Dmytro Bykov           : SCF Hessian
   Vijay G. Chilkuri      : MRCI spin determinant printing, contributions to CSF-ICE
   Dipayan Datta          : RHF DLPNO-CCSD density
   Achintya Kumar Dutta   : EOM-CC, STEOM-CC
   Dmitry Ganyushin       : Spin-Orbit,Spin-Spin,Magnetic field MRCI
   Miquel Garcia          : C-PCM and meta-GGA Hessian, CC/C-PCM, Gaussian charge scheme
   Yang Guo               : DLPNO-NEVPT2, F12-NEVPT2, CIM, IAO-localization
   Andreas Hansen         : Spin unrestricted coupled pair/coupled cluster methods
   Benjamin Helmich-Paris : MC-RPA, TRAH-SCF, COSX integrals
   Lee Huntington         : MR-EOM, pCC
   Robert Izsak           : Overlap fitted RIJCOSX, COSX-SCS-MP3, EOM
   Marcus Kettner         : VPT2
   Christian Kollmar      : KDIIS, OOCD, Brueckner-CCSD(T), CCSD density, CASPT2, CASPT2-K
   Simone Kossmann        : Meta GGA functionals, TD-DFT gradient, OOMP2, MP2 Hessian
   Martin Krupicka        : Initial AUTO-CI
   Lucas Lang             : DCDCAS
   Marvin Lechner         : AUTO-CI (C++ implementation), FIC-MRCC
   Dagmar Lenk            : GEPOL surface, SMD
   Dimitrios Liakos       : Extrapolation schemes; Compound Job, initial MDCI parallelization
   Dimitrios Manganas     : Further ROCIS development; embedding schemes
   Dimitrios Pantazis     : SARC Basis sets
   Anastasios Papadopoulos: AUTO-CI, single reference methods and gradients
   Taras Petrenko         : DFT Hessian,TD-DFT gradient, ASA, ECA, R-Raman, ABS, FL, XAS/XES, NRVS
   Peter Pinski           : DLPNO-MP2, DLPNO-MP2 Gradient
   Christoph Reimann      : Effective Core Potentials
   Marius Retegan         : Local ZFS, SOC
   Christoph Riplinger    : Optimizer, TS searches, QM/MM, DLPNO-CCSD(T), (RO)-DLPNO pert. Triples
   Tobias Risthaus        : Range-separated hybrids, TD-DFT gradient, RPA, STAB
   Michael Roemelt        : Original ROCIS implementation
   Masaaki Saitow         : Open-shell DLPNO-CCSD energy and density
   Barbara Sandhoefer     : DKH picture change effects
   Avijit Sen             : IP-ROCIS
   Kantharuban Sivalingam : CASSCF convergence, NEVPT2, FIC-MRCI
   Bernardo de Souza      : ESD, SOC TD-DFT
   Georgi Stoychev        : AutoAux, RI-MP2 NMR, DLPNO-MP2 response
   Willem Van den Heuvel  : Paramagnetic NMR
   Boris Wezisla          : Elementary symmetry handling
   Frank Wennmohs         : Technical directorship


 We gratefully acknowledge several colleagues who have allowed us to
 interface, adapt or use parts of their codes:
   Stefan Grimme, W. Hujo, H. Kruse, P. Pracht,  : VdW corrections, initial TS optimization,
                  C. Bannwarth, S. Ehlert          DFT functionals, gCP, sTDA/sTD-DF
   Ed Valeev, F. Pavosevic, A. Kumar             : LibInt (2-el integral package), F12 methods
   Garnet Chan, S. Sharma, J. Yang, R. Olivares  : DMRG
   Ulf Ekstrom                                   : XCFun DFT Library
   Mihaly Kallay                                 : mrcc  (arbitrary order and MRCC methods)
   Jiri Pittner, Ondrej Demel                    : Mk-CCSD
   Frank Weinhold                                : gennbo (NPA and NBO analysis)
   Christopher J. Cramer and Donald G. Truhlar   : smd solvation model
   Lars Goerigk                                  : TD-DFT with DH, B97 family of functionals
   V. Asgeirsson, H. Jonsson                     : NEB implementation
   FAccTs GmbH                                   : IRC, NEB, NEB-TS, DLPNO-Multilevel, CI-OPT
                                                   MM, QMMM, 2- and 3-layer-ONIOM, Crystal-QMMM,
                                                   LR-CPCM, SF, NACMEs, symmetry and pop. for TD-DFT,
                                                   nearIR, NL-DFT gradient (VV10), updates on ESD,
                                                   ML-optimized integration grids
   S Lehtola, MJT Oliveira, MAL Marques          : LibXC Library
   Liviu Ungur et al                             : ANISO software


 Your calculation uses the libint2 library for the computation of 2-el integrals
 For citations please refer to: http://libint.valeyev.net

 Your ORCA version has been built with support for libXC version: 5.1.0
 For citations please refer to: https://tddft.org/programs/libxc/

 This ORCA versions uses:
   CBLAS   interface :  Fast vector & matrix operations
   LAPACKE interface :  Fast linear algebra routines
   SCALAPACK package :  Parallel linear algebra routines
   Shared memory     :  Shared parallel matrices
   BLAS/LAPACK       :  OpenBLAS 0.3.15  USE64BITINT DYNAMIC_ARCH NO_AFFINITY Sandybridge SINGLE_THREADED
        Core in use  :  Sandybridge
   Copyright (c) 2011-2014, The OpenBLAS Project


================================================================================

----- Orbital basis set information -----
Your calculation utilizes the basis: cc-pVDZ 
       H, B-Ne : Obtained from the ccRepo (grant-hill.group.shef.ac.uk/ccrepo) Feb. 2017
                 T. H. Dunning, Jr., J. Chem. Phys. 90, 1007 (1989)
            He : Obtained from the ccRepo (grant-hill.group.shef.ac.uk/ccrepo) Feb. 2017
                 D. E. Woon, T. H. Dunning, Jr., J. Chem. Phys. 100, 2975 (1994)
  Li-Be, Na-Mg : Obtained from the ccRepo (grant-hill.group.shef.ac.uk/ccrepo) Feb. 2017
                 B. P. Prascher, D. E. Woon, K. A. Peterson, T. H. Dunning, Jr., A. K. Wilson, Theor. Chem. Acc. 128, 69 (2011)
         Al-Ar : Obtained from the ccRepo (grant-hill.group.shef.ac.uk/ccrepo) Feb. 2017
                 D. E. Woon, T. H. Dunning, Jr., J. Chem. Phys. 98, 1358 (1993)
            Ca : Obtained from the Peterson Research Group Website (tyr0.chem.wsu.edu/~kipeters) Feb. 2017
                 J. Koput, K. A. Peterson, J. Phys. Chem. 106, 9595 (2002)
         Sc-Zn : Obtained from the ccRepo (grant-hill.group.shef.ac.uk/ccrepo) Feb. 2017
                 N. B. Balabanov, K. A. Peterson, J. Chem. Phys. 123, 064107 (2005)
                 N. B. Balabanov, K. A. Peterson, J. Chem. Phys. 125, 074110 (2006)
         Ga-Kr : Obtained from the ccRepo (grant-hill.group.shef.ac.uk/ccrepo) Feb. 2017
                 A. K. Wilson, D. E. Woon, K. A. Peterson, T. H. Dunning, Jr., J. Chem. Phys. 110, 7667 (1999)

================================================================================
                                        WARNINGS
                       Please study these warnings very carefully!
================================================================================


WARNING: No MP2 level density has been requested!
         To caclulate MP2 level properties use
         %mp2 Density relaxed end
         or
         %mp2 Density unrelaxed end

WARNING: Post HF methods need fully converged wavefunctions
  ===> : Setting SCFConvForced true
         You can overwrite this default with %scf ConvForced false 


INFO   : the flag for use of the SHARK integral package has been found!

================================================================================
                                       INPUT FILE
================================================================================
NAME = /scratch/allen/tmpyp4_amber_gaff2/2.Mdgx/conf11/conf11/Conf104.orca
|  1> ! PAL2
|  2> ! mp2 cc-pvdz TightSCF  NoKeepInts
|  3> 
|  4> %scf
|  5>   MaxCore 2000
|  6> end
|  7> %mp2
|  8>   MaxCore 2000
|  9> end
| 10> * xyz 0 1
| 11>    C       -4.19500         5.72400        -1.05700
| 12>    C        1.47400         4.04100         0.05700
| 13>    C       -2.80200         4.09300         0.04900
| 14>    C       -2.98800         4.81500         1.23800
| 15>    C       -3.76600         5.95600         1.24200
| 16>    C       -5.21200         7.60200         0.15100
| 17>    C        0.13200         4.30700         0.06100
| 18>    C       -0.56900         3.05600         0.04700
| 19>    C        1.64900         2.61800         0.02300
| 20>    C       -3.43100         4.57500        -1.11000
| 21>    N       -4.35400         6.39700         0.10600
| 22>    N        0.38800         2.06700         0.02500
| 23>    N       -2.01000         0.39500        -0.07500
| 24>    N       -0.38800        -2.07400        -0.02700
| 25>    N        2.01000        -0.40100         0.06500
| 26>    C       -1.96000         2.86100         0.02400
| 27>    C       -2.62300         1.61500        -0.01800
| 28>    C       -5.57300        -4.32900         1.06600
| 29>    C       -4.07300         1.47100         0.05600
| 30>    C       -4.10600        -2.75600        -0.02600
| 31>    C       -4.99500        -2.75700        -1.11100
| 32>    C       -6.13200        -3.54200        -1.07600
| 33>    C       -7.65100        -5.11300         0.04000
| 34>    C       -4.32400         0.14100         0.03700
| 35>    C       -3.02500        -0.52000        -0.04800
| 36>    C       -4.42200        -3.56600         1.07500
| 37>    N       -6.40700        -4.31300         0.00100
| 38>    C       -2.86700        -1.92200        -0.04000
| 39>    C       -1.65000        -2.62400        -0.02700
| 40>    C        3.56800        -6.14200        -1.04000
| 41>    C       -1.47600        -4.04900        -0.03400
| 42>    C        2.80300        -4.09900        -0.00800
| 43>    C        3.65700        -4.38400         1.06900
| 44>    C        4.42700        -5.53000         1.05900
| 45>    C        5.24500        -7.58800         0.01400
| 46>    C       -0.13400        -4.31500        -0.02200
| 47>    C        0.56800        -3.06400        -0.02700
| 48>    C        2.77500        -5.01200        -1.07400
| 49>    N        4.37600        -6.39100         0.01700
| 50>    C        1.95900        -2.86900        -0.00900
| 51>    C        2.62100        -1.62200         0.00900
| 52>    C        5.54300         4.33900        -1.13000
| 53>    C        4.07000        -1.47900        -0.09400
| 54>    C        4.10400         2.75100        -0.02100
| 55>    C        5.02700         2.72900         1.03600
| 56>    C        6.16600         3.50900         0.97800
| 57>    C        7.61900         5.15300        -0.11500
| 58>    C        4.32100        -0.14800        -0.09200
| 59>    C        3.02500         0.51400         0.01500
| 60>    C        4.38700         3.58200        -1.11500
| 61>    C        2.86600         1.91600         0.01300
| 62>    N        6.41300         4.29600        -0.09500
| 63>    H       -4.68800         6.13900        -1.92700
| 64>    H        2.27400         4.76600         0.08100
| 65>    H       -2.53700         4.48800         2.16700
| 66>    H       -3.94500         6.54000         2.13500
| 67>    H       -6.22500         7.30600         0.43600
| 68>    H       -4.80400         8.29600         0.88500
| 69>    H       -5.22100         8.06300        -0.83600
| 70>    H       -0.33200         5.28200         0.06900
| 71>    H       -3.31400         4.07000        -2.06100
| 72>    H        0.18200         1.07200         0.00500
| 73>    H       -0.18300        -1.08000        -0.02100
| 74>    H       -5.86400        -4.96200         1.89500
| 75>    H       -4.79400         2.27200         0.13900
| 76>    H       -4.80000        -2.16000        -1.99400
| 77>    H       -6.84100        -3.58200        -1.89300
| 78>    H       -8.42800        -4.53600         0.54600
| 79>    H       -7.95600        -5.33700        -0.98100
| 80>    H       -7.45600        -6.03700         0.58400
| 81>    H       -5.28700        -0.34400         0.10000
| 82>    H       -3.78000        -3.60100         1.94700
| 83>    H        3.58700        -6.86800        -1.84300
| 84>    H       -2.27600        -4.77400        -0.05000
| 85>    H        3.71400        -3.72400         1.92600
| 86>    H        5.09200        -5.79500         1.87100
| 87>    H        6.20500        -7.32900        -0.43900
| 88>    H        5.39300        -7.91700         1.04200
| 89>    H        4.75900        -8.37300        -0.56400
| 90>    H        0.32900        -5.29000        -0.00800
| 91>    H        2.14600        -4.84200        -1.94000
| 92>    H        5.80800         4.98600        -1.95600
| 93>    H        4.78800        -2.28100        -0.18500
| 94>    H        4.86000         2.11400         1.91200
| 95>    H        6.90100         3.53100         1.77200
| 96>    H        7.38300         6.10900         0.35600
| 97>    H        8.41400         4.65200         0.43500
| 98>    H        7.92100         5.31000        -1.15000
| 99>    H        5.28300         0.33600        -0.17900
|100>    H        3.72000         3.63200        -1.96700
|101> *
|102> 
|103>                          ****END OF INPUT****
================================================================================

                       ****************************
                       * Single Point Calculation *
                       ****************************

---------------------------------
CARTESIAN COORDINATES (ANGSTROEM)
---------------------------------
  C     -4.195000    5.724000   -1.057000
  C      1.474000    4.041000    0.057000
  C     -2.802000    4.093000    0.049000
  C     -2.988000    4.815000    1.238000
  C     -3.766000    5.956000    1.242000
  C     -5.212000    7.602000    0.151000
  C      0.132000    4.307000    0.061000
  C     -0.569000    3.056000    0.047000
  C      1.649000    2.618000    0.023000
  C     -3.431000    4.575000   -1.110000
  N     -4.354000    6.397000    0.106000
  N      0.388000    2.067000    0.025000
  N     -2.010000    0.395000   -0.075000
  N     -0.388000   -2.074000   -0.027000
  N      2.010000   -0.401000    0.065000
  C     -1.960000    2.861000    0.024000
  C     -2.623000    1.615000   -0.018000
  C     -5.573000   -4.329000    1.066000
  C     -4.073000    1.471000    0.056000
  C     -4.106000   -2.756000   -0.026000
  C     -4.995000   -2.757000   -1.111000
  C     -6.132000   -3.542000   -1.076000
  C     -7.651000   -5.113000    0.040000
  C     -4.324000    0.141000    0.037000
  C     -3.025000   -0.520000   -0.048000
  C     -4.422000   -3.566000    1.075000
  N     -6.407000   -4.313000    0.001000
  C     -2.867000   -1.922000   -0.040000
  C     -1.650000   -2.624000   -0.027000
  C      3.568000   -6.142000   -1.040000
  C     -1.476000   -4.049000   -0.034000
  C      2.803000   -4.099000   -0.008000
  C      3.657000   -4.384000    1.069000
  C      4.427000   -5.530000    1.059000
  C      5.245000   -7.588000    0.014000
  C     -0.134000   -4.315000   -0.022000
  C      0.568000   -3.064000   -0.027000
  C      2.775000   -5.012000   -1.074000
  N      4.376000   -6.391000    0.017000
  C      1.959000   -2.869000   -0.009000
  C      2.621000   -1.622000    0.009000
  C      5.543000    4.339000   -1.130000
  C      4.070000   -1.479000   -0.094000
  C      4.104000    2.751000   -0.021000
  C      5.027000    2.729000    1.036000
  C      6.166000    3.509000    0.978000
  C      7.619000    5.153000   -0.115000
  C      4.321000   -0.148000   -0.092000
  C      3.025000    0.514000    0.015000
  C      4.387000    3.582000   -1.115000
  C      2.866000    1.916000    0.013000
  N      6.413000    4.296000   -0.095000
  H     -4.688000    6.139000   -1.927000
  H      2.274000    4.766000    0.081000
  H     -2.537000    4.488000    2.167000
  H     -3.945000    6.540000    2.135000
  H     -6.225000    7.306000    0.436000
  H     -4.804000    8.296000    0.885000
  H     -5.221000    8.063000   -0.836000
  H     -0.332000    5.282000    0.069000
  H     -3.314000    4.070000   -2.061000
  H      0.182000    1.072000    0.005000
  H     -0.183000   -1.080000   -0.021000
  H     -5.864000   -4.962000    1.895000
  H     -4.794000    2.272000    0.139000
  H     -4.800000   -2.160000   -1.994000
  H     -6.841000   -3.582000   -1.893000
  H     -8.428000   -4.536000    0.546000
  H     -7.956000   -5.337000   -0.981000
  H     -7.456000   -6.037000    0.584000
  H     -5.287000   -0.344000    0.100000
  H     -3.780000   -3.601000    1.947000
  H      3.587000   -6.868000   -1.843000
  H     -2.276000   -4.774000   -0.050000
  H      3.714000   -3.724000    1.926000
  H      5.092000   -5.795000    1.871000
  H      6.205000   -7.329000   -0.439000
  H      5.393000   -7.917000    1.042000
  H      4.759000   -8.373000   -0.564000
  H      0.329000   -5.290000   -0.008000
  H      2.146000   -4.842000   -1.940000
  H      5.808000    4.986000   -1.956000
  H      4.788000   -2.281000   -0.185000
  H      4.860000    2.114000    1.912000
  H      6.901000    3.531000    1.772000
  H      7.383000    6.109000    0.356000
  H      8.414000    4.652000    0.435000
  H      7.921000    5.310000   -1.150000
  H      5.283000    0.336000   -0.179000
  H      3.720000    3.632000   -1.967000

----------------------------
CARTESIAN COORDINATES (A.U.)
----------------------------
  NO LB      ZA    FRAG     MASS         X           Y           Z
   0 C     6.0000    0    12.011   -7.927401   10.816792   -1.997441
   1 C     6.0000    0    12.011    2.785456    7.636383    0.107714
   2 C     6.0000    0    12.011   -5.295013    7.734649    0.092597
   3 C     6.0000    0    12.011   -5.646502    9.099031    2.339481
   4 C     6.0000    0    12.011   -7.116709   11.255209    2.347040
   5 C     6.0000    0    12.011   -9.849253   14.365698    0.285349
   6 C     6.0000    0    12.011    0.249444    8.139050    0.115273
   7 C     6.0000    0    12.011   -1.075254    5.775003    0.088817
   8 C     6.0000    0    12.011    3.116158    4.947303    0.043464
   9 C     6.0000    0    12.011   -6.483650    8.645497   -2.097596
  10 N     7.0000    0    14.007   -8.227868   12.088578    0.200311
  11 N     7.0000    0    14.007    0.733214    3.906064    0.047243
  12 N     7.0000    0    14.007   -3.798350    0.746442   -0.141729
  13 N     7.0000    0    14.007   -0.733214   -3.919292   -0.051023
  14 N     7.0000    0    14.007    3.798350   -0.757780    0.122832
  15 C     6.0000    0    12.011   -3.703863    5.406506    0.045353
  16 C     6.0000    0    12.011   -4.956752    3.051908   -0.034015
  17 C     6.0000    0    12.011  -10.531444   -8.180624    2.014448
  18 C     6.0000    0    12.011   -7.696855    2.779787    0.105825
  19 C     6.0000    0    12.011   -7.759216   -5.208085   -0.049133
  20 C     6.0000    0    12.011   -9.439182   -5.209975   -2.099486
  21 C     6.0000    0    12.011  -11.587801   -6.693410   -2.033345
  22 C     6.0000    0    12.011  -14.458295   -9.662170    0.075589
  23 C     6.0000    0    12.011   -8.171176    0.266451    0.069920
  24 C     6.0000    0    12.011   -5.716422   -0.982658   -0.090707
  25 C     6.0000    0    12.011   -8.356369   -6.738763    2.031456
  26 N     7.0000    0    14.007  -12.107475   -8.150389    0.001890
  27 C     6.0000    0    12.011   -5.417845   -3.632054   -0.075589
  28 C     6.0000    0    12.011   -3.118048   -4.958641   -0.051023
  29 C     6.0000    0    12.011    6.742543  -11.606698   -1.965315
  30 C     6.0000    0    12.011   -2.789236   -7.651501   -0.064251
  31 C     6.0000    0    12.011    5.296902   -7.745987   -0.015118
  32 C     6.0000    0    12.011    6.910728   -8.284559    2.020117
  33 C     6.0000    0    12.011    8.365818  -10.450186    2.001220
  34 C     6.0000    0    12.011    9.911614  -14.339242    0.026456
  35 C     6.0000    0    12.011   -0.253223   -8.154168   -0.041574
  36 C     6.0000    0    12.011    1.073364   -5.790121   -0.051023
  37 C     6.0000    0    12.011    5.243990   -9.471307   -2.029566
  38 N     7.0000    0    14.007    8.269442  -12.077240    0.032125
  39 C     6.0000    0    12.011    3.701973   -5.421624   -0.017008
  40 C     6.0000    0    12.011    4.952972   -3.065136    0.017008
  41 C     6.0000    0    12.011   10.474752    8.199522   -2.135391
  42 C     6.0000    0    12.011    7.691185   -2.794905   -0.177634
  43 C     6.0000    0    12.011    7.755436    5.198637   -0.039684
  44 C     6.0000    0    12.011    9.499653    5.157063    1.957756
  45 C     6.0000    0    12.011   11.652051    6.631049    1.848152
  46 C     6.0000    0    12.011   14.397823    9.737759   -0.217319
  47 C     6.0000    0    12.011    8.165507   -0.279679   -0.173855
  48 C     6.0000    0    12.011    5.716422    0.971319    0.028346
  49 C     6.0000    0    12.011    8.290229    6.768999   -2.107045
  50 C     6.0000    0    12.011    5.415955    3.620715    0.024566
  51 N     7.0000    0    14.007   12.118814    8.118263   -0.179524
  52 H     1.0000    0     1.008   -8.859036   11.601029   -3.641502
  53 H     1.0000    0     1.008    4.297237    9.006435    0.153068
  54 H     1.0000    0     1.008   -4.794235    8.481091    4.095037
  55 H     1.0000    0     1.008   -7.454970   12.358809    4.034565
  56 H     1.0000    0     1.008  -11.763545   13.806339    0.823921
  57 H     1.0000    0     1.008   -9.078244   15.677168    1.672408
  58 H     1.0000    0     1.008   -9.866260   15.236862   -1.579811
  59 H     1.0000    0     1.008   -0.627389    9.981533    0.130391
  60 H     1.0000    0     1.008   -6.262552    7.691185   -3.894726
  61 H     1.0000    0     1.008    0.343930    2.025786    0.009449
  62 H     1.0000    0     1.008   -0.345820   -2.040904   -0.039684
  63 H     1.0000    0     1.008  -11.081354   -9.376821    3.581031
  64 H     1.0000    0     1.008   -9.059347    4.293458    0.262672
  65 H     1.0000    0     1.008   -9.070685   -4.081808   -3.768114
  66 H     1.0000    0     1.008  -12.927616   -6.768999   -3.577252
  67 H     1.0000    0     1.008  -15.926612   -8.571798    1.031790
  68 H     1.0000    0     1.008  -15.034661  -10.085468   -1.853821
  69 H     1.0000    0     1.008  -14.089798  -11.408277    1.103600
  70 H     1.0000    0     1.008   -9.990982   -0.650066    0.188973
  71 H     1.0000    0     1.008   -7.143165   -6.804904    3.679297
  72 H     1.0000    0     1.008    6.778448  -12.978639   -3.482765
  73 H     1.0000    0     1.008   -4.301017   -9.021553   -0.094486
  74 H     1.0000    0     1.008    7.018443   -7.037340    3.639613
  75 H     1.0000    0     1.008    9.622485  -10.950963    3.535678
  76 H     1.0000    0     1.008   11.725751  -13.849803   -0.829590
  77 H     1.0000    0     1.008   10.191293  -14.960962    1.969095
  78 H     1.0000    0     1.008    8.993207  -15.822677   -1.065806
  79 H     1.0000    0     1.008    0.621720   -9.996651   -0.015118
  80 H     1.0000    0     1.008    4.055352   -9.150054   -3.666069
  81 H     1.0000    0     1.008   10.975529    9.422175   -3.696304
  82 H     1.0000    0     1.008    9.048009   -4.310465   -0.349599
  83 H     1.0000    0     1.008    9.184069    3.994881    3.613156
  84 H     1.0000    0     1.008   13.041000    6.672623    3.348595
  85 H     1.0000    0     1.008   13.951848   11.544337    0.672743
  86 H     1.0000    0     1.008   15.900156    8.791006    0.822031
  87 H     1.0000    0     1.008   14.968521   10.034446   -2.173185
  88 H     1.0000    0     1.008    9.983423    0.634948   -0.338261
  89 H     1.0000    0     1.008    7.029781    6.863485   -3.717091

--------------------------------
INTERNAL COORDINATES (ANGSTROEM)
--------------------------------
 C      0   0   0     0.000000000000     0.00000000     0.00000000
 C      1   0   0     6.017561466242     0.00000000     0.00000000
 C      1   2   0     2.413264593865    35.14916792     0.00000000
 C      3   1   2     1.403424739699    87.94164719    98.24750325
 C      4   3   1     1.381007241111   120.14334109     0.11732206
 C      5   4   3     2.447552450919   152.51966969     1.66044620
 C      2   1   3     1.368114030335    12.05963092   329.21930287
 C      7   2   3     1.434084376876   108.05010202     0.84668783
 C      2   1   3     1.434123425651   112.83512993    38.91110609
 C      1   2   3     1.380835254475    41.68103333   311.46218046
 N      5   4   3     1.353041388872   120.77566451   359.74638086
 N      9   2   1     1.376127174356   106.58526707   347.33271870
 N     12   9   2     2.925062050624   168.53581413   171.12065651
 N     13  12   9     2.954513327098    91.55032014    11.12112580
 N     14  13  12     2.925371258490    88.43092389   359.84326247
 C      8   7   2     1.404790019896   127.24786865   181.11170171
 C     13  12   9     1.366535034311    81.72106996   188.00453233
 C     14  13  12     5.758810554272    80.56209567   166.76250791
 C     17  13  12     1.459010623676   111.08861209   183.82872609
 C     18  14  13     2.412235892279    27.27532823    36.33507194
 C     20  18  14     1.402692767501    87.95206320   148.94598259
 C     21  20  18     1.382106725257   120.14573887   359.70382047
 C     18  14  13     2.446510985056   144.15733107    82.80075377
 C     19  17  13     1.353610726908   106.29293361   359.75308708
 C     13  12   9     1.366813447402   172.21332906    33.46711076
 C     18  14  13     1.380960173213    15.08449437   309.23336894
 N     22  21  20     1.352773077792   120.73759875     0.27865223
 C     25  13  17     1.410897586645   125.60330303   182.37774668
 C     14  13  12     1.376642291955    80.24689249   177.85461986
 C     14  13  12     5.764089607215   164.51507311   312.20821879
 C     29  14  13     1.435600919476   106.58649366   178.76395472
 C     30  14  13     2.413316804732    27.10625047    82.12560436
 C     32  30  14     1.403734305344    87.90059683   149.76154742
 C     33  32  30     1.380694028378   120.14881443   359.74174632
 C     34  33  32     2.448777858443   152.49203239     2.45173620
 C     31  29  14     1.368160809262   108.16950133     0.70383075
 C     14  13  12     1.376239804685   169.26375223   353.09862627
 C     30  14  13     1.380907310430    14.68948582   353.70041132
 N     34  33  32     1.352658863128   120.85575621     0.19603406
 C     37  14  29     1.404717053360   126.01551127   180.90772073
 C     15  14  13     1.366491126938    81.61824056   183.09049352
 C      2   1   3     4.249062720177   146.18336885   160.48171993
 C     41  15  14     1.459677704153   111.05201287   175.08990246
 C     42   2   1     2.412953791518    41.78584867   208.20266095
 C     44  42   2     1.403446472082    87.95153797   233.97558675
 C     45  44  42     1.381696421071   120.11137308     0.19721020
 C     42   2   1     2.450019795838   135.97209175   118.51751006
 C     43  41  15     1.354461516618   106.26758155     0.30894352
 C     15  14  13     1.367461151185   171.87382904   332.35056460
 C     42   2   1     1.381886391857    32.59078432   257.05794015
 C      9   2   1     1.404988612053   126.98745415   168.33705623
 N     42   2   1     1.352765315936   113.57249190   146.25409925
 H      1   2   3     1.082669848107   133.23132002   218.09011197
 H      2   1   3     1.079907866440   120.94685031   207.88797363
 H      4   3   1     1.083222507152   121.07166035   179.51395620
 H      5   4   3     1.081917741790   122.79051754   179.45019619
 H      6   5   4     1.093165129338   104.42780511   100.05666913
 H      6   5   4     1.089429208347    84.65386401   209.48066955
 H      6   5   4     1.089390196394   133.89380368   322.39377301
 H      7   2  54     1.079807853278   126.66122480     1.30600390
 H     10   1   2     1.083104334771   118.77948426   240.16750491
 H     12   9   2     1.016297692608   125.29023241   180.00180175
 H     14  13  12     1.014936943854    44.97226959   359.42596618
 H     18  14  13     1.082871645210   128.03556573   234.20482432
 H     19  17  13     1.080893611786   126.41830519   178.11313280
 H     21  20  18     1.083569563987   121.05669627   180.67006309
 H     22  21  20     1.082483256222   122.73097286   180.59748951
 H     23  18  14     1.092105306278   103.92715769   234.93429879
 H     23  18  14     1.088871893291   134.19244188    12.25587044
 H     23  18  14     1.089833473518    84.85857450   125.45241208
 H     24  19  17     1.080075460327   127.28078426   178.44613241
 H     26  18  14     1.083408048706   118.76995697   244.94906660
 H     30  14  13     1.082703098730   127.99711412   279.66882698
 H     31  29  14     1.079759695488   125.22293469   180.92530585
 H     33  32  30     1.083188810873   121.01964473   180.74284758
 H     34  33  32     1.082494341787   122.70821597   180.59516895
 H     35  34  33     1.092652735319   105.73575241    97.19771933
 H     35  34  33     1.089462711615    84.05943581   206.43036958
 H     35  34  33     1.089268102902   133.08365142   318.50306270
 H     36  31  29     1.079439669458   126.61599965   178.98859863
 H     38  30  73     1.083742127999   118.77264435   359.90091293
 H     42   2   1     1.082178358682   119.31790784     2.88562970
 H     43  41  15     1.080281907652   126.36969097   182.06329380
 H     45  44  42     1.083277434455   121.10105945   179.58025624
 H     46  45  44     1.082194529648   122.72144639   179.46906377
 H     47  42   2     1.091546151109   106.65128841   315.16475048
 H     47  42   2     1.088818625851   132.46019523    94.52397119
 H     47  42   2     1.089531091801    83.63838232   206.04504406
 H     48  43  41     1.080402239909   127.23657387   181.62955349
 H     50  42   2     1.083186502870   118.77001737    94.71359229

---------------------------
INTERNAL COORDINATES (A.U.)
---------------------------
 C      0   0   0     0.000000000000     0.00000000     0.00000000
 C      1   0   0    11.371543165235     0.00000000     0.00000000
 C      1   2   0     4.560409171093    35.14916792     0.00000000
 C      3   1   2     2.652088407601    87.94164719    98.24750325
 C      4   3   1     2.609725474661   120.14334109     0.11732206
 C      5   4   3     4.625203830645   152.51966969     1.66044620
 C      2   1   3     2.585360837309    12.05963092   329.21930287
 C      7   2   3     2.710026725231   108.05010202     0.84668783
 C      2   1   3     2.710100516721   112.83512993    38.91110609
 C      1   2   3     2.609400467020    41.68103333   311.46218046
 N      5   4   3     2.556877672828   120.77566451   359.74638086
 N      9   2   1     2.600503484979   106.58526707   347.33271870
 N     12   9   2     5.527566200405   168.53581413   171.12065651
 N     13  12   9     5.583221047236    91.55032014    11.12112580
 N     14  13  12     5.528150518591    88.43092389   359.84326247
 C      8   7   2     2.654668413270   127.24786865   181.11170171
 C     13  12   9     2.582376967257    81.72106996   188.00453233
 C     14  13  12    10.882574804710    80.56209567   166.76250791
 C     17  13  12     2.757130505230   111.08861209   183.82872609
 C     18  14  13     4.558465206823    27.27532823    36.33507194
 C     20  18  14     2.650705180609    87.95206320   148.94598259
 C     21  20  18     2.611803198586   120.14573887   359.70382047
 C     18  14  13     4.623235745386   144.15733107    82.80075377
 C     19  17  13     2.557953565794   106.29293361   359.75308708
 C     13  12   9     2.582903091751   172.21332906    33.46711076
 C     18  14  13     2.609636529225    15.08449437   309.23336894
 N     22  21  20     2.556370638369   120.73759875     0.27865223
 C     25  13  17     2.666210041769   125.60330303   182.37774668
 C     14  13  12     2.601476916169    80.24689249   177.85461986
 C     14  13  12    10.892550769017   164.51507311   312.20821879
 C     29  14  13     2.712892575415   106.58649366   178.76395472
 C     30  14  13     4.560507835333    27.10625047    82.12560436
 C     32  30  14     2.652673401891    87.90059683   149.76154742
 C     33  32  30     2.609133588376   120.14881443   359.74174632
 C     34  33  32     4.627519515267   152.49203239     2.45173620
 C     31  29  14     2.585449236669   108.16950133     0.70383075
 C     14  13  12     2.600716325456   169.26375223   353.09862627
 C     30  14  13     2.609536633043    14.68948582   353.70041132
 N     34  33  32     2.556154803934   120.85575621     0.19603406
 C     37  14  29     2.654530526499   126.01551127   180.90772073
 C     15  14  13     2.582293994346    81.61824056   183.09049352
 C      2   1   3     8.029564866989   146.18336885   160.48171993
 C     41  15  14     2.758391104639   111.05201287   175.08990246
 C     42   2   1     4.559821839776    41.78584867   208.20266095
 C     44  42   2     2.652129475853    87.95153797   233.97558675
 C     45  44  42     2.611027836043   120.11137308     0.19721020
 C     42   2   1     4.629866436820   135.97209175   118.51751006
 C     43  41  15     2.559561325344   106.26758155     0.30894352
 C     15  14  13     2.584127074516   171.87382904   332.35056460
 C     42   2   1     2.611386828803    32.59078432   257.05794015
 C      9   2   1     2.655043698059   126.98745415   168.33705623
 N     42   2   1     2.556355970587   113.57249190   146.25409925
 H      1   2   3     2.045949506376   133.23132002   218.09011197
 H      2   1   3     2.040730117440   120.94685031   207.88797363
 H      4   3   1     2.046993880616   121.07166035   179.51395620
 H      5   4   3     2.044528231414   122.79051754   179.45019619
 H      6   5   4     2.065782713601   104.42780511   100.05666913
 H      6   5   4     2.058722846071    84.65386401   209.48066955
 H      6   5   4     2.058649124164   133.89380368   322.39377301
 H      7   2  54     2.040541119952   126.66122480     1.30600390
 H     10   1   2     2.046770567180   118.77948426   240.16750491
 H     12   9   2     1.920524309565   125.29023241   180.00180175
 H     14  13  12     1.917952867083    44.97226959   359.42596618
 H     18  14  13     2.046330847636   128.03556573   234.20482432
 H     19  17  13     2.042592906181   126.41830519   178.11313280
 H     21  20  18     2.047649722989   121.05669627   180.67006309
 H     22  21  20     2.045596898814   122.73097286   180.59748951
 H     23  18  14     2.063779938267   103.92715769   234.93429879
 H     23  18  14     2.057669673245   134.19244188    12.25587044
 H     23  18  14     2.059486796529    84.85857450   125.45241208
 H     24  19  17     2.041046823986   127.28078426   178.44613241
 H     26  18  14     2.047344503340   118.76995697   244.94906660
 H     30  14  13     2.046012340948   127.99711412   279.66882698
 H     31  29  14     2.040450114918   125.22293469   180.92530585
 H     33  32  30     2.046930203877   121.01964473   180.74284758
 H     34  33  32     2.045617847496   122.70821597   180.59516895
 H     35  34  33     2.064814429233   105.73575241    97.19771933
 H     35  34  33     2.058786158072    84.05943581   206.43036958
 H     35  34  33     2.058418400901   133.08365142   318.50306270
 H     36  31  29     2.039845353366   126.61599965   178.98859863
 H     38  30  73     2.047975821711   118.77264435   359.90091293
 H     42   2   1     2.045020725966   119.31790784     2.88562970
 H     43  41  15     2.041436952892   126.36969097   182.06329380
 H     45  44  42     2.047097678177   121.10105945   179.58025624
 H     46  45  44     2.045051284662   122.72144639   179.46906377
 H     47  42   2     2.062723288131   106.65128841   315.16475048
 H     47  42   2     2.057569012371   132.46019523    94.52397119
 H     47  42   2     2.058915377895    83.63838232   206.04504406
 H     48  43  41     2.041664347903   127.23657387   181.62955349
 H     50  42   2     2.046925842384   118.77001737    94.71359229

---------------------
BASIS SET INFORMATION
---------------------
There are 3 groups of distinct atoms

 Group   1 Type C   : 17s4p1d contracted to 3s2p1d pattern {881/31/1}
 Group   2 Type N   : 17s4p1d contracted to 3s2p1d pattern {881/31/1}
 Group   3 Type H   : 4s1p contracted to 2s1p pattern {31/1}

Atom   0C    basis set group =>   1
Atom   1N    basis set group =>   2
Atom   2C    basis set group =>   1
Atom   3N    basis set group =>   2
Atom   4C    basis set group =>   1
Atom   5N    basis set group =>   2
Atom   6C    basis set group =>   1
Atom   7N    basis set group =>   2
Atom   8C    basis set group =>   1
Atom   9N    basis set group =>   2
Atom  10C    basis set group =>   1
Atom  11N    basis set group =>   2
Atom  12C    basis set group =>   1
Atom  13N    basis set group =>   2
Atom  14C    basis set group =>   1
Atom  15N    basis set group =>   2
Atom  16C    basis set group =>   1
Atom  17C    basis set group =>   1
Atom  18C    basis set group =>   1
Atom  19C    basis set group =>   1
Atom  20C    basis set group =>   1
Atom  21C    basis set group =>   1
Atom  22C    basis set group =>   1
Atom  23C    basis set group =>   1
Atom  24C    basis set group =>   1
Atom  25C    basis set group =>   1
Atom  26C    basis set group =>   1
Atom  27C    basis set group =>   1
Atom  28C    basis set group =>   1
Atom  29C    basis set group =>   1
Atom  30C    basis set group =>   1
Atom  31C    basis set group =>   1
Atom  32C    basis set group =>   1
Atom  33C    basis set group =>   1
Atom  34C    basis set group =>   1
Atom  35C    basis set group =>   1
Atom  36C    basis set group =>   1
Atom  37C    basis set group =>   1
Atom  38C    basis set group =>   1
Atom  39C    basis set group =>   1
Atom  40C    basis set group =>   1
Atom  41C    basis set group =>   1
Atom  42C    basis set group =>   1
Atom  43C    basis set group =>   1
Atom  44C    basis set group =>   1
Atom  45C    basis set group =>   1
Atom  46C    basis set group =>   1
Atom  47C    basis set group =>   1
Atom  48C    basis set group =>   1
Atom  49C    basis set group =>   1
Atom  50C    basis set group =>   1
Atom  51C    basis set group =>   1
Atom  52H    basis set group =>   3
Atom  53H    basis set group =>   3
Atom  54H    basis set group =>   3
Atom  55H    basis set group =>   3
Atom  56H    basis set group =>   3
Atom  57H    basis set group =>   3
Atom  58H    basis set group =>   3
Atom  59H    basis set group =>   3
Atom  60H    basis set group =>   3
Atom  61H    basis set group =>   3
Atom  62H    basis set group =>   3
Atom  63H    basis set group =>   3
Atom  64H    basis set group =>   3
Atom  65H    basis set group =>   3
Atom  66H    basis set group =>   3
Atom  67H    basis set group =>   3
Atom  68H    basis set group =>   3
Atom  69H    basis set group =>   3
Atom  70H    basis set group =>   3
Atom  71H    basis set group =>   3
Atom  72H    basis set group =>   3
Atom  73H    basis set group =>   3
Atom  74H    basis set group =>   3
Atom  75H    basis set group =>   3
Atom  76H    basis set group =>   3
Atom  77H    basis set group =>   3
Atom  78H    basis set group =>   3
Atom  79H    basis set group =>   3
Atom  80H    basis set group =>   3
Atom  81H    basis set group =>   3
Atom  82H    basis set group =>   3
Atom  83H    basis set group =>   3
Atom  84H    basis set group =>   3
Atom  85H    basis set group =>   3
Atom  86H    basis set group =>   3
Atom  87H    basis set group =>   3
Atom  88H    basis set group =>   3
Atom  89H    basis set group =>   3


           ************************************************************
           *        Program running with 16 parallel MPI-processes    *
           *              working on a common directory               *
           ************************************************************
------------------------------------------------------------------------------
                           ORCA GTO INTEGRAL CALCULATION
------------------------------------------------------------------------------
------------------------------------------------------------------------------
                   ___                                                        
                  /   \      - P O W E R E D   B Y -                         
                 /     \                                                     
                 |  |  |   _    _      __       _____    __    __             
                 |  |  |  | |  | |    /  \     |  _  \  |  |  /  |          
                  \  \/   | |  | |   /    \    | | | |  |  | /  /          
                 / \  \   | |__| |  /  /\  \   | |_| |  |  |/  /          
                |  |  |   |  __  | /  /__\  \  |    /   |      \           
                |  |  |   | |  | | |   __   |  |    \   |  |\   \          
                \     /   | |  | | |  |  |  |  | |\  \  |  | \   \       
                 \___/    |_|  |_| |__|  |__|  |_| \__\ |__|  \__/        
                                                                              
                      - O R C A' S   B I G   F R I E N D -                    
                                      &                                       
                       - I N T E G R A L  F E E D E R -                       
                                                                              
 v1 FN, 2020, v2 2021                                                         
------------------------------------------------------------------------------


Reading SHARK input file /scratch/allen/tmpyp4_amber_gaff2/conf1/conf1/Conf104.orca.SHARKINP.tmp ... ok
----------------------
SHARK INTEGRAL PACKAGE
----------------------

Number of atoms                             ...     90
Number of basis functions                   ...   1230
Number of shells                            ...    738
Maximum angular momentum                    ...      2
Integral batch strategy                     ... SHARK/LIBINT Hybrid
RI-J (if used) integral strategy            ... SPLIT-RIJ (Revised 2003 algorithm where possible)
Printlevel                                  ...      1
Contraction scheme used                     ... PARTIAL GENERAL contraction
Coulomb Range Separation                    ... NOT USED
Exchange Range Separation                   ... NOT USED
Finite Nucleus Model                        ... NOT USED
Auxiliary Coulomb fitting basis             ... NOT available
Auxiliary J/K fitting basis                 ... NOT available
Auxiliary Correlation fitting basis         ... NOT available
Auxiliary 'external' fitting basis          ... NOT available
Integral threshold                          ...     2.500000e-11
Primitive cut-off                           ...     2.500000e-12
Primitive pair pre-selection threshold      ...     2.500000e-12

Calculating pre-screening integrals         ... done (  0.1 sec) Dimension = 738
Calculating pre-screening integrals (ORCA)  ... done (  0.3 sec) Dimension = 426
Organizing shell pair data                  ... done (  0.5 sec)
Shell pair information
Total number of shell pairs                 ...    272691
Shell pairs after pre-screening             ...     71603
Total number of primitive shell pairs       ...    422091
Primitive shell pairs kept                  ...     92350
          la=0 lb=0:  29414 shell pairs
          la=1 lb=0:  25961 shell pairs
          la=1 lb=1:   4685 shell pairs
          la=2 lb=0:   7890 shell pairs
          la=2 lb=1:   3122 shell pairs
          la=2 lb=2:    531 shell pairs

Calculating one electron integrals          ... done (  0.2 sec)
Calculating Nuclear repulsion               ... done (  0.0 sec) ENN=   6222.321902954228 Eh

SHARK setup successfully completed in   1.7 seconds

Maximum memory used throughout the entire GTOINT-calculation: 99.0 MB


           ************************************************************
           *        Program running with 16 parallel MPI-processes    *
           *              working on a common directory               *
           ************************************************************
-------------------------------------------------------------------------------
                                 ORCA SCF
-------------------------------------------------------------------------------

------------
SCF SETTINGS
------------
Hamiltonian:
 Ab initio Hamiltonian  Method          .... Hartree-Fock(GTOs)


General Settings:
 Integral files         IntName         .... /scratch/allen/tmpyp4_amber_gaff2/conf1/conf1/Conf104.orca
 Hartree-Fock type      HFTyp           .... RHF
 Total Charge           Charge          ....    0
 Multiplicity           Mult            ....    1
 Number of Electrons    NEL             ....  358
 Basis Dimension        Dim             ....  918
 Nuclear Repulsion      ENuc            ....   6222.3219029542 Eh

Convergence Acceleration:
 DIIS                   CNVDIIS         .... on
   Start iteration      DIISMaxIt       ....    12
   Startup error        DIISStart       ....  0.200000
   # of expansion vecs  DIISMaxEq       ....     5
   Bias factor          DIISBfac        ....   1.050
   Max. coefficient     DIISMaxC        ....  10.000
 Trust-Rad. Augm. Hess. CNVTRAH         .... auto
   Auto Start mean grad. ratio tolernc. ....  1.125000
   Auto Start start iteration           ....    20
   Auto Start num. interpolation iter.  ....    10
   Max. Number of Micro iterations      ....    16
   Max. Number of Macro iterations      .... Maxiter - #DIIS iter
   Number of Davidson start vectors     ....     2
   Converg. threshold I  (grad. norm)   ....   1.000e-05
   Converg. threshold II (energy diff.) ....   1.000e-08
   Grad. Scal. Fac. for Micro threshold ....   0.100
   Minimum threshold for Micro iter.    ....   0.010
   NR start threshold (gradient norm)   ....   0.001
   Initial trust radius                 ....   0.400
   Minimum AH scaling param. (alpha)    ....   1.000
   Maximum AH scaling param. (alpha)    .... 1000.000
   Orbital update algorithm             .... Taylor
   White noise on init. David. guess    .... on
   Maximum white noise                  ....   0.010
   Quad. conv. algorithm                .... NR
 SOSCF                  CNVSOSCF        .... on
   Start iteration      SOSCFMaxIt      ....   150
   Startup grad/error   SOSCFStart      ....  0.003300
 Level Shifting         CNVShift        .... on
   Level shift para.    LevelShift      ....    0.2500
   Turn off err/grad.   ShiftErr        ....    0.0010
 Zerner damping         CNVZerner       .... off
 Static damping         CNVDamp         .... on
   Fraction old density DampFac         ....    0.7000
   Max. Damping (<1)    DampMax         ....    0.9800
   Min. Damping (>=0)   DampMin         ....    0.0000
   Turn off err/grad.   DampErr         ....    0.1000
 Fernandez-Rico         CNVRico         .... off

SCF Procedure:
 Maximum # iterations   MaxIter         ....   125
 SCF integral mode      SCFMode         .... Direct
   Integral package                     .... SHARK and LIBINT hybrid scheme
 Reset frequency        DirectResetFreq ....    20
 Integral Threshold     Thresh          ....  2.500e-11 Eh
 Primitive CutOff       TCut            ....  2.500e-12 Eh

Convergence Tolerance:
 Convergence Check Mode ConvCheckMode   .... Total+1el-Energy
 Convergence forced     ConvForced      .... 1
 Energy Change          TolE            ....  1.000e-08 Eh
 1-El. energy change                    ....  1.000e-05 Eh
 Orbital Gradient       TolG            ....  1.000e-05
 Orbital Rotation angle TolX            ....  1.000e-05
 DIIS Error             TolErr          ....  5.000e-07


Diagonalization of the overlap matrix:
Smallest eigenvalue                        ... 2.263e-04
Time for diagonalization                   ...    0.376 sec
Threshold for overlap eigenvalues          ... 1.000e-08
Number of eigenvalues below threshold      ... 0
Time for construction of square roots      ...    0.187 sec
Total time needed                          ...    0.568 sec

Time for model grid setup =    1.003 sec

------------------------------
INITIAL GUESS: MODEL POTENTIAL
------------------------------
Loading Hartree-Fock densities                     ... done
Calculating cut-offs                               ... done
Initializing the effective Hamiltonian             ... done
Setting up the integral package (SHARK)            ... done
Starting the Coulomb interaction                   ... done (   1.1 sec)
Reading the grid                                   ... done
Mapping shells                                     ... done
Starting the XC term evaluation                    ... done (   0.2 sec)
Transforming the Hamiltonian                       ... done (   0.2 sec)
Diagonalizing the Hamiltonian                      ... done (   0.3 sec)
Back transforming the eigenvectors                 ... done (   0.1 sec)
Now organizing SCF variables                       ... done
                      ------------------
                      INITIAL GUESS DONE (   2.9 sec)
                      ------------------
--------------
SCF ITERATIONS
--------------
ITER       Energy         Delta-E        Max-DP      RMS-DP      [F,P]     Damp
               ***  Starting incremental Fock matrix formation  ***
  0  -2121.6491231459   0.000000000000 0.06928406  0.00121142  0.2346224 0.7000
  1  -2122.3179822307  -0.668859084735 0.05264426  0.00098178  0.1450963 0.7000
                               ***Turning on DIIS***
  2  -2122.7338626049  -0.415880374267 0.11696451  0.00222074  0.0805593 0.0000
  3  -2117.7055311904   5.028331414514 0.03408653  0.00068693  0.0444223 0.0000
  4  -2123.4027546152  -5.697223424775 0.00898093  0.00023005  0.0071643 0.0000
  5  -2123.5821622942  -0.179407679057 0.00521153  0.00013759  0.0050661 0.0000
  6  -2123.5635965020   0.018565792236 0.00389375  0.00009219  0.0022237 0.0000
  7  -2123.6690605479  -0.105464045915 0.00341061  0.00007585  0.0017200 0.0000
  8  -2123.6961128933  -0.027052345376 0.00321956  0.00007531  0.0016068 0.0000
  9  -2123.6559827884   0.040130104890 0.00271158  0.00005402  0.0012741 0.0000
 10  -2123.6776244829  -0.021641694488 0.00698636  0.00012281  0.0009644 0.0000
                      *** Initiating the SOSCF procedure ***
                           *** Shutting down DIIS ***
                      *** Re-Reading the Fockian *** 
                      *** Removing any level shift *** 
ITER      Energy       Delta-E        Grad      Rot      Max-DP    RMS-DP
 11  -2123.51483293   0.1627915524  0.000199  0.000199  0.000246  0.000006
               *** Restarting incremental Fock matrix formation ***
 12  -2123.61353491  -0.0987019820  0.000950  0.008179  0.001785  0.000044
 13  -2123.61369899  -0.0001640754  0.001178  0.032709  0.009636  0.000164
 14  -2123.61401120  -0.0003122168  0.000367  0.007391  0.002255  0.000035
 15  -2123.61405746  -0.0000462505  0.000458  0.019519  0.004560  0.000072
 16  -2123.61411454  -0.0000570856  0.000313  0.007517  0.001520  0.000033
 17  -2123.61413935  -0.0000248078  0.000352  0.010718  0.001828  0.000037
 18  -2123.61416181  -0.0000224655  0.000218  0.007728  0.001398  0.000025
 19  -2123.61417238  -0.0000105668  0.000146  0.003899  0.000656  0.000012
 20  -2123.61417605  -0.0000036709  0.000115  0.002955  0.000491  0.000010
 21  -2123.61417877  -0.0000027179  0.000081  0.003161  0.000481  0.000011
 22  -2123.61418080  -0.0000020308  0.000064  0.002479  0.000439  0.000009
 23  -2123.61418188  -0.0000010826  0.000055  0.001398  0.000273  0.000005
 24  -2123.61418238  -0.0000005001  0.000025  0.000626  0.000166  0.000003
 25  -2123.61418262  -0.0000002391  0.000022  0.000626  0.000140  0.000002
 26  -2123.61418276  -0.0000001346  0.000018  0.000772  0.000165  0.000003
 27  -2123.61418286  -0.0000001060  0.000018  0.000643  0.000132  0.000002
 28  -2123.61418293  -0.0000000644  0.000011  0.000343  0.000063  0.000001
 29  -2123.61418296  -0.0000000369  0.000007  0.000106  0.000024  0.000001
 30  -2123.61418298  -0.0000000142  0.000004  0.000044  0.000014  0.000000
                 **** Energy Check signals convergence ****
              ***Rediagonalizing the Fockian in SOSCF/NRSCF***

               *****************************************************
               *                     SUCCESS                       *
               *           SCF CONVERGED AFTER  31 CYCLES          *
               *****************************************************


----------------
TOTAL SCF ENERGY
----------------

Total Energy       :        -2123.61418299 Eh          -57786.47973 eV

Components:
Nuclear Repulsion  :         6222.32190295 Eh          169317.98694 eV
Electronic Energy  :        -8345.93608594 Eh         -227104.46667 eV
One Electron Energy:       -15286.09416502 Eh         -415955.76901 eV
Two Electron Energy:         6940.15807908 Eh          188851.30235 eV

Virial components:
Potential Energy   :        -4245.59568686 Eh         -115528.53200 eV
Kinetic Energy     :         2121.98150387 Eh           57742.05227 eV
Virial Ratio       :            2.00076941


---------------
SCF CONVERGENCE
---------------

  Last Energy change         ...   -6.6266e-09  Tolerance :   1.0000e-08
  Last MAX-Density change    ...    1.8233e-05  Tolerance :   1.0000e-07
  Last RMS-Density change    ...    2.5045e-07  Tolerance :   5.0000e-09
  Last Orbital Gradient      ...    3.1517e-06  Tolerance :   1.0000e-05
  Last Orbital Rotation      ...    5.0363e-05  Tolerance :   1.0000e-05

             **** THE GBW FILE WAS UPDATED (/scratch/allen/tmpyp4_amber_gaff2/conf1/conf1/Conf104.orca.gbw) ****
             **** DENSITY /scratch/allen/tmpyp4_amber_gaff2/conf1/conf1/Conf104.orca.scfp WAS UPDATED ****
             **** ENERGY FILE WAS UPDATED (/scratch/allen/tmpyp4_amber_gaff2/conf1/conf1/Conf104.orca.en.tmp) ****
             **** THE GBW FILE WAS UPDATED (/scratch/allen/tmpyp4_amber_gaff2/conf1/conf1/Conf104.orca.gbw) ****
             **** DENSITY /scratch/allen/tmpyp4_amber_gaff2/conf1/conf1/Conf104.orca.scfp WAS UPDATED ****
----------------
ORBITAL ENERGIES
----------------

  NO   OCC          E(Eh)            E(eV) 
   0   2.0000     -15.685590      -426.8266 
   1   2.0000     -15.635425      -425.4615 
   2   2.0000     -15.622734      -425.1162 
   3   2.0000     -15.595408      -424.3726 
   4   2.0000     -15.518153      -422.2704 
   5   2.0000     -15.508977      -422.0207 
   6   2.0000     -15.448829      -420.3840 
   7   2.0000     -15.431800      -419.9206 
   8   2.0000     -11.331520      -308.3463 
   9   2.0000     -11.330402      -308.3159 
  10   2.0000     -11.330296      -308.3130 
  11   2.0000     -11.300408      -307.4997 
  12   2.0000     -11.294676      -307.3438 
  13   2.0000     -11.292103      -307.2737 
  14   2.0000     -11.287826      -307.1574 
  15   2.0000     -11.283372      -307.0361 
  16   2.0000     -11.283343      -307.0354 
  17   2.0000     -11.276739      -306.8557 
  18   2.0000     -11.275133      -306.8120 
  19   2.0000     -11.265289      -306.5441 
  20   2.0000     -11.265134      -306.5399 
  21   2.0000     -11.259146      -306.3769 
  22   2.0000     -11.255558      -306.2793 
  23   2.0000     -11.238858      -305.8249 
  24   2.0000     -11.231538      -305.6257 
  25   2.0000     -11.230691      -305.6026 
  26   2.0000     -11.226925      -305.5002 
  27   2.0000     -11.221733      -305.3589 
  28   2.0000     -11.221548      -305.3538 
  29   2.0000     -11.204087      -304.8787 
  30   2.0000     -11.203783      -304.8704 
  31   2.0000     -11.202568      -304.8374 
  32   2.0000     -11.201749      -304.8151 
  33   2.0000     -11.200781      -304.7887 
  34   2.0000     -11.186671      -304.4048 
  35   2.0000     -11.186540      -304.4012 
  36   2.0000     -11.186409      -304.3977 
  37   2.0000     -11.185872      -304.3830 
  38   2.0000     -11.184457      -304.3445 
  39   2.0000     -11.168556      -303.9119 
  40   2.0000     -11.167950      -303.8954 
  41   2.0000     -11.161804      -303.7281 
  42   2.0000     -11.160282      -303.6867 
  43   2.0000     -11.159969      -303.6782 
  44   2.0000     -11.155165      -303.5475 
  45   2.0000     -11.152437      -303.4732 
  46   2.0000     -11.151820      -303.4565 
  47   2.0000     -11.147940      -303.3509 
  48   2.0000     -11.147358      -303.3350 
  49   2.0000     -11.140071      -303.1367 
  50   2.0000     -11.123824      -302.6947 
  51   2.0000     -11.120303      -302.5988 
  52   2.0000      -1.363764       -37.1099 
  53   2.0000      -1.322525       -35.9877 
  54   2.0000      -1.311166       -35.6787 
  55   2.0000      -1.288077       -35.0504 
  56   2.0000      -1.219648       -33.1883 
  57   2.0000      -1.205687       -32.8084 
  58   2.0000      -1.170573       -31.8529 
  59   2.0000      -1.144627       -31.1469 
  60   2.0000      -1.143032       -31.1035 
  61   2.0000      -1.110747       -30.2250 
  62   2.0000      -1.100536       -29.9471 
  63   2.0000      -1.084551       -29.5121 
  64   2.0000      -1.080210       -29.3940 
  65   2.0000      -1.046521       -28.4773 
  66   2.0000      -1.040074       -28.3018 
  67   2.0000      -1.035853       -28.1870 
  68   2.0000      -1.014423       -27.6038 
  69   2.0000      -1.013867       -27.5887 
  70   2.0000      -1.005174       -27.3522 
  71   2.0000      -0.988418       -26.8962 
  72   2.0000      -0.984953       -26.8019 
  73   2.0000      -0.978274       -26.6202 
  74   2.0000      -0.968405       -26.3517 
  75   2.0000      -0.959852       -26.1189 
  76   2.0000      -0.951636       -25.8953 
  77   2.0000      -0.944321       -25.6963 
  78   2.0000      -0.925576       -25.1862 
  79   2.0000      -0.917939       -24.9784 
  80   2.0000      -0.911039       -24.7906 
  81   2.0000      -0.888798       -24.1854 
  82   2.0000      -0.875606       -23.8265 
  83   2.0000      -0.871292       -23.7091 
  84   2.0000      -0.863069       -23.4853 
  85   2.0000      -0.851341       -23.1662 
  86   2.0000      -0.841390       -22.8954 
  87   2.0000      -0.830717       -22.6050 
  88   2.0000      -0.822284       -22.3755 
  89   2.0000      -0.795917       -21.6580 
  90   2.0000      -0.791316       -21.5328 
  91   2.0000      -0.754121       -20.5207 
  92   2.0000      -0.733771       -19.9669 
  93   2.0000      -0.727030       -19.7835 
  94   2.0000      -0.721797       -19.6411 
  95   2.0000      -0.716746       -19.5036 
  96   2.0000      -0.715602       -19.4725 
  97   2.0000      -0.708061       -19.2673 
  98   2.0000      -0.699090       -19.0232 
  99   2.0000      -0.695945       -18.9376 
 100   2.0000      -0.693674       -18.8758 
 101   2.0000      -0.686434       -18.6788 
 102   2.0000      -0.682941       -18.5838 
 103   2.0000      -0.677224       -18.4282 
 104   2.0000      -0.672100       -18.2888 
 105   2.0000      -0.669214       -18.2102 
 106   2.0000      -0.665918       -18.1205 
 107   2.0000      -0.655581       -17.8393 
 108   2.0000      -0.653342       -17.7783 
 109   2.0000      -0.650302       -17.6956 
 110   2.0000      -0.648465       -17.6456 
 111   2.0000      -0.645853       -17.5746 
 112   2.0000      -0.645161       -17.5557 
 113   2.0000      -0.638584       -17.3768 
 114   2.0000      -0.633871       -17.2485 
 115   2.0000      -0.626571       -17.0499 
 116   2.0000      -0.623015       -16.9531 
 117   2.0000      -0.615897       -16.7594 
 118   2.0000      -0.614358       -16.7175 
 119   2.0000      -0.613345       -16.6900 
 120   2.0000      -0.609023       -16.5724 
 121   2.0000      -0.603756       -16.4290 
 122   2.0000      -0.593737       -16.1564 
 123   2.0000      -0.587984       -15.9999 
 124   2.0000      -0.583785       -15.8856 
 125   2.0000      -0.582190       -15.8422 
 126   2.0000      -0.575730       -15.6664 
 127   2.0000      -0.573200       -15.5976 
 128   2.0000      -0.572285       -15.5727 
 129   2.0000      -0.558722       -15.2036 
 130   2.0000      -0.554889       -15.0993 
 131   2.0000      -0.548934       -14.9373 
 132   2.0000      -0.545245       -14.8369 
 133   2.0000      -0.538759       -14.6604 
 134   2.0000      -0.534792       -14.5524 
 135   2.0000      -0.531060       -14.4509 
 136   2.0000      -0.520177       -14.1547 
 137   2.0000      -0.518036       -14.0965 
 138   2.0000      -0.514178       -13.9915 
 139   2.0000      -0.512886       -13.9563 
 140   2.0000      -0.509291       -13.8585 
 141   2.0000      -0.508004       -13.8235 
 142   2.0000      -0.501727       -13.6527 
 143   2.0000      -0.500432       -13.6174 
 144   2.0000      -0.495562       -13.4849 
 145   2.0000      -0.493878       -13.4391 
 146   2.0000      -0.493561       -13.4305 
 147   2.0000      -0.482318       -13.1245 
 148   2.0000      -0.480484       -13.0746 
 149   2.0000      -0.463737       -12.6189 
 150   2.0000      -0.463245       -12.6055 
 151   2.0000      -0.456984       -12.4352 
 152   2.0000      -0.450238       -12.2516 
 153   2.0000      -0.442136       -12.0311 
 154   2.0000      -0.437997       -11.9185 
 155   2.0000      -0.436398       -11.8750 
 156   2.0000      -0.425568       -11.5803 
 157   2.0000      -0.418571       -11.3899 
 158   2.0000      -0.403062       -10.9679 
 159   2.0000      -0.389464       -10.5979 
 160   2.0000      -0.383955       -10.4479 
 161   2.0000      -0.371807       -10.1174 
 162   2.0000      -0.358872        -9.7654 
 163   2.0000      -0.357422        -9.7259 
 164   2.0000      -0.348316        -9.4782 
 165   2.0000      -0.339274        -9.2321 
 166   2.0000      -0.337831        -9.1929 
 167   2.0000      -0.329981        -8.9792 
 168   2.0000      -0.317352        -8.6356 
 169   2.0000      -0.299411        -8.1474 
 170   2.0000      -0.298570        -8.1245 
 171   2.0000      -0.284719        -7.7476 
 172   2.0000      -0.281471        -7.6592 
 173   2.0000      -0.262510        -7.1433 
 174   2.0000      -0.235450        -6.4069 
 175   2.0000      -0.184776        -5.0280 
 176   2.0000      -0.174592        -4.7509 
 177   2.0000      -0.062283        -1.6948 
 178   2.0000      -0.051626        -1.4048 
 179   0.0000       0.034015         0.9256 
 180   0.0000       0.061748         1.6803 
 181   0.0000       0.090225         2.4552 
 182   0.0000       0.097192         2.6447 
 183   0.0000       0.106379         2.8947 
 184   0.0000       0.136864         3.7243 
 185   0.0000       0.139549         3.7973 
 186   0.0000       0.146405         3.9839 
 187   0.0000       0.162486         4.4215 
 188   0.0000       0.164110         4.4657 
 189   0.0000       0.166734         4.5371 
 190   0.0000       0.171206         4.6588 
 191   0.0000       0.178756         4.8642 
 192   0.0000       0.182462         4.9650 
 193   0.0000       0.185637         5.0515 
 194   0.0000       0.203061         5.5256 
 195   0.0000       0.208489         5.6733 
 196   0.0000       0.210877         5.7383 
 197   0.0000       0.215211         5.8562 
 198   0.0000       0.215552         5.8655 
 199   0.0000       0.226320         6.1585 
 200   0.0000       0.229496         6.2449 
 201   0.0000       0.232855         6.3363 
 202   0.0000       0.238451         6.4886 
 203   0.0000       0.242969         6.6115 
 204   0.0000       0.245864         6.6903 
 205   0.0000       0.252942         6.8829 
 206   0.0000       0.255308         6.9473 
 207   0.0000       0.258381         7.0309 
 208   0.0000       0.260003         7.0750 
 209   0.0000       0.262482         7.1425 
 210   0.0000       0.263741         7.1768 
 211   0.0000       0.265043         7.2122 
 212   0.0000       0.267360         7.2752 
 213   0.0000       0.272549         7.4164 
 214   0.0000       0.276614         7.5271 
 215   0.0000       0.277200         7.5430 
 216   0.0000       0.280464         7.6318 
 217   0.0000       0.284903         7.7526 
 218   0.0000       0.287070         7.8116 
 219   0.0000       0.287995         7.8367 
 220   0.0000       0.292495         7.9592 
 221   0.0000       0.294411         8.0113 
 222   0.0000       0.296330         8.0636 
 223   0.0000       0.297458         8.0943 
 224   0.0000       0.298280         8.1166 
 225   0.0000       0.303025         8.2457 
 226   0.0000       0.304650         8.2899 
 227   0.0000       0.304898         8.2967 
 228   0.0000       0.311047         8.4640 
 229   0.0000       0.314456         8.5568 
 230   0.0000       0.320879         8.7316 
 231   0.0000       0.324022         8.8171 
 232   0.0000       0.324668         8.8347 
 233   0.0000       0.331426         9.0185 
 234   0.0000       0.335817         9.1381 
 235   0.0000       0.349887         9.5209 
 236   0.0000       0.358652         9.7594 
 237   0.0000       0.368905        10.0384 
 238   0.0000       0.391646        10.6572 
 239   0.0000       0.395689        10.7673 
 240   0.0000       0.404330        11.0024 
 241   0.0000       0.407842        11.0979 
 242   0.0000       0.409316        11.1381 
 243   0.0000       0.417764        11.3679 
 244   0.0000       0.424205        11.5432 
 245   0.0000       0.431105        11.7310 
 246   0.0000       0.434928        11.8350 
 247   0.0000       0.439500        11.9594 
 248   0.0000       0.440896        11.9974 
 249   0.0000       0.445863        12.1325 
 250   0.0000       0.448785        12.2121 
 251   0.0000       0.455629        12.3983 
 252   0.0000       0.460106        12.5201 
 253   0.0000       0.466919        12.7055 
 254   0.0000       0.469933        12.7875 
 255   0.0000       0.476240        12.9591 
 256   0.0000       0.477446        12.9920 
 257   0.0000       0.485023        13.1981 
 258   0.0000       0.488040        13.2803 
 259   0.0000       0.495630        13.4868 
 260   0.0000       0.500929        13.6310 
 261   0.0000       0.503776        13.7084 
 262   0.0000       0.505571        13.7573 
 263   0.0000       0.507000        13.7962 
 264   0.0000       0.513716        13.9789 
 265   0.0000       0.517494        14.0817 
 266   0.0000       0.523074        14.2336 
 267   0.0000       0.526300        14.3213 
 268   0.0000       0.528713        14.3870 
 269   0.0000       0.537122        14.6158 
 270   0.0000       0.543351        14.7853 
 271   0.0000       0.545314        14.8387 
 272   0.0000       0.547351        14.8942 
 273   0.0000       0.555466        15.1150 
 274   0.0000       0.560197        15.2437 
 275   0.0000       0.565477        15.3874 
 276   0.0000       0.566426        15.4132 
 277   0.0000       0.568898        15.4805 
 278   0.0000       0.578141        15.7320 
 279   0.0000       0.581967        15.8361 
 280   0.0000       0.588516        16.0143 
 281   0.0000       0.591820        16.1042 
 282   0.0000       0.593074        16.1384 
 283   0.0000       0.597722        16.2649 
 284   0.0000       0.600899        16.3513 
 285   0.0000       0.602341        16.3905 
 286   0.0000       0.608108        16.5475 
 287   0.0000       0.614457        16.7202 
 288   0.0000       0.615940        16.7606 
 289   0.0000       0.619890        16.8681 
 290   0.0000       0.620374        16.8812 
 291   0.0000       0.626019        17.0349 
 292   0.0000       0.629806        17.1379 
 293   0.0000       0.633522        17.2390 
 294   0.0000       0.643847        17.5200 
 295   0.0000       0.648407        17.6441 
 296   0.0000       0.655634        17.8407 
 297   0.0000       0.659331        17.9413 
 298   0.0000       0.663301        18.0493 
 299   0.0000       0.665834        18.1183 
 300   0.0000       0.668971        18.2036 
 301   0.0000       0.672883        18.3101 
 302   0.0000       0.674888        18.3646 
 303   0.0000       0.677512        18.4360 
 304   0.0000       0.681456        18.5434 
 305   0.0000       0.682955        18.5842 
 306   0.0000       0.684904        18.6372 
 307   0.0000       0.688054        18.7229 
 308   0.0000       0.689310        18.7571 
 309   0.0000       0.694759        18.9053 
 310   0.0000       0.699808        19.0427 
 311   0.0000       0.703107        19.1325 
 312   0.0000       0.709318        19.3015 
 313   0.0000       0.710543        19.3348 
 314   0.0000       0.711866        19.3709 
 315   0.0000       0.713829        19.4243 
 316   0.0000       0.716122        19.4867 
 317   0.0000       0.717052        19.5120 
 318   0.0000       0.721966        19.6457 
 319   0.0000       0.722630        19.6638 
 320   0.0000       0.726540        19.7702 
 321   0.0000       0.728940        19.8355 
 322   0.0000       0.730117        19.8675 
 323   0.0000       0.731796        19.9132 
 324   0.0000       0.738667        20.1001 
 325   0.0000       0.741298        20.1717 
 326   0.0000       0.742037        20.1919 
 327   0.0000       0.743241        20.2246 
 328   0.0000       0.750321        20.4173 
 329   0.0000       0.753101        20.4929 
 330   0.0000       0.755856        20.5679 
 331   0.0000       0.757522        20.6132 
 332   0.0000       0.760043        20.6818 
 333   0.0000       0.761840        20.7307 
 334   0.0000       0.765739        20.8368 
 335   0.0000       0.768488        20.9116 
 336   0.0000       0.776046        21.1173 
 337   0.0000       0.780355        21.2345 
 338   0.0000       0.783608        21.3231 
 339   0.0000       0.784102        21.3365 
 340   0.0000       0.787686        21.4340 
 341   0.0000       0.792638        21.5688 
 342   0.0000       0.794713        21.6253 
 343   0.0000       0.798751        21.7351 
 344   0.0000       0.800058        21.7707 
 345   0.0000       0.804696        21.8969 
 346   0.0000       0.808633        22.0040 
 347   0.0000       0.810209        22.0469 
 348   0.0000       0.814099        22.1528 
 349   0.0000       0.815299        22.1854 
 350   0.0000       0.817209        22.2374 
 351   0.0000       0.819843        22.3091 
 352   0.0000       0.822425        22.3793 
 353   0.0000       0.823732        22.4149 
 354   0.0000       0.825898        22.4738 
 355   0.0000       0.828004        22.5311 
 356   0.0000       0.833521        22.6813 
 357   0.0000       0.835276        22.7290 
 358   0.0000       0.837356        22.7856 
 359   0.0000       0.838451        22.8154 
 360   0.0000       0.842077        22.9141 
 361   0.0000       0.844396        22.9772 
 362   0.0000       0.846705        23.0400 
 363   0.0000       0.849031        23.1033 
 364   0.0000       0.851145        23.1608 
 365   0.0000       0.853158        23.2156 
 366   0.0000       0.856634        23.3102 
 367   0.0000       0.859479        23.3876 
 368   0.0000       0.861939        23.4545 
 369   0.0000       0.865785        23.5592 
 370   0.0000       0.866443        23.5771 
 371   0.0000       0.867884        23.6163 
 372   0.0000       0.872024        23.7290 
 373   0.0000       0.874730        23.8026 
 374   0.0000       0.876731        23.8571 
 375   0.0000       0.880219        23.9520 
 376   0.0000       0.883771        24.0486 
 377   0.0000       0.885472        24.0949 
 378   0.0000       0.889323        24.1997 
 379   0.0000       0.890024        24.2188 
 380   0.0000       0.893728        24.3196 
 381   0.0000       0.897426        24.4202 
 382   0.0000       0.899216        24.4689 
 383   0.0000       0.903752        24.5924 
 384   0.0000       0.905198        24.6317 
 385   0.0000       0.905693        24.6452 
 386   0.0000       0.908359        24.7177 
 387   0.0000       0.913100        24.8467 
 388   0.0000       0.914731        24.8911 
 389   0.0000       0.917379        24.9631 
 390   0.0000       0.921091        25.0642 
 391   0.0000       0.922504        25.1026 
 392   0.0000       0.925111        25.1735 
 393   0.0000       0.925907        25.1952 
 394   0.0000       0.930161        25.3110 
 395   0.0000       0.932020        25.3616 
 396   0.0000       0.933769        25.4092 
 397   0.0000       0.934687        25.4341 
 398   0.0000       0.940208        25.5844 
 399   0.0000       0.941510        25.6198 
 400   0.0000       0.945404        25.7258 
 401   0.0000       0.950200        25.8562 
 402   0.0000       0.953780        25.9537 
 403   0.0000       0.955698        26.0059 
 404   0.0000       0.957988        26.0682 
 405   0.0000       0.960126        26.1263 
 406   0.0000       0.960697        26.1419 
 407   0.0000       0.962380        26.1877 
 408   0.0000       0.964765        26.2526 
 409   0.0000       0.967426        26.3250 
 410   0.0000       0.976367        26.5683 
 411   0.0000       0.982014        26.7220 
 412   0.0000       0.985400        26.8141 
 413   0.0000       0.989295        26.9201 
 414   0.0000       0.994392        27.0588 
 415   0.0000       0.995594        27.0915 
 416   0.0000       1.002524        27.2801 
 417   0.0000       1.006174        27.3794 
 418   0.0000       1.008425        27.4406 
 419   0.0000       1.018174        27.7059 
 420   0.0000       1.022598        27.8263 
 421   0.0000       1.028034        27.9742 
 422   0.0000       1.034244        28.1432 
 423   0.0000       1.035872        28.1875 
 424   0.0000       1.042945        28.3800 
 425   0.0000       1.046476        28.4761 
 426   0.0000       1.052723        28.6460 
 427   0.0000       1.061358        28.8810 
 428   0.0000       1.068600        29.0781 
 429   0.0000       1.071159        29.1477 
 430   0.0000       1.081294        29.4235 
 431   0.0000       1.084180        29.5020 
 432   0.0000       1.085260        29.5314 
 433   0.0000       1.090439        29.6724 
 434   0.0000       1.092490        29.7282 
 435   0.0000       1.100424        29.9441 
 436   0.0000       1.106997        30.1229 
 437   0.0000       1.111156        30.2361 
 438   0.0000       1.114794        30.3351 
 439   0.0000       1.115401        30.3516 
 440   0.0000       1.118833        30.4450 
 441   0.0000       1.120217        30.4827 
 442   0.0000       1.126560        30.6553 
 443   0.0000       1.129107        30.7246 
 444   0.0000       1.134309        30.8661 
 445   0.0000       1.135718        30.9045 
 446   0.0000       1.139555        31.0089 
 447   0.0000       1.142209        31.0811 
 448   0.0000       1.145654        31.1748 
 449   0.0000       1.149211        31.2716 
 450   0.0000       1.154757        31.4225 
 451   0.0000       1.156810        31.4784 
 452   0.0000       1.158590        31.5268 
 453   0.0000       1.159701        31.5571 
 454   0.0000       1.163946        31.6726 
 455   0.0000       1.167123        31.7590 
 456   0.0000       1.169696        31.8290 
 457   0.0000       1.176519        32.0147 
 458   0.0000       1.179931        32.1075 
 459   0.0000       1.187906        32.3246 
 460   0.0000       1.189322        32.3631 
 461   0.0000       1.192653        32.4537 
 462   0.0000       1.202965        32.7343 
 463   0.0000       1.204712        32.7819 
 464   0.0000       1.208159        32.8757 
 465   0.0000       1.210731        32.9457 
 466   0.0000       1.211798        32.9747 
 467   0.0000       1.214869        33.0583 
 468   0.0000       1.225192        33.3392 
 469   0.0000       1.225795        33.3556 
 470   0.0000       1.227588        33.4044 
 471   0.0000       1.231771        33.5182 
 472   0.0000       1.236881        33.6573 
 473   0.0000       1.241566        33.7847 
 474   0.0000       1.243249        33.8305 
 475   0.0000       1.243940        33.8493 
 476   0.0000       1.246244        33.9120 
 477   0.0000       1.247735        33.9526 
 478   0.0000       1.255314        34.1588 
 479   0.0000       1.256168        34.1821 
 480   0.0000       1.259691        34.2779 
 481   0.0000       1.262458        34.3532 
 482   0.0000       1.264512        34.4091 
 483   0.0000       1.269283        34.5389 
 484   0.0000       1.274874        34.6911 
 485   0.0000       1.277237        34.7554 
 486   0.0000       1.279482        34.8165 
 487   0.0000       1.284955        34.9654 
 488   0.0000       1.289187        35.0806 
 489   0.0000       1.292620        35.1740 
 490   0.0000       1.296945        35.2917 
 491   0.0000       1.299049        35.3489 
 492   0.0000       1.302173        35.4339 
 493   0.0000       1.309036        35.6207 
 494   0.0000       1.311628        35.6912 
 495   0.0000       1.312869        35.7250 
 496   0.0000       1.316320        35.8189 
 497   0.0000       1.319657        35.9097 
 498   0.0000       1.330681        36.2097 
 499   0.0000       1.331848        36.2414 
 500   0.0000       1.333492        36.2862 
 501   0.0000       1.336731        36.3743 
 502   0.0000       1.340343        36.4726 
 503   0.0000       1.341854        36.5137 
 504   0.0000       1.344973        36.5986 
[...]
      pz      :     0.021809  p :     0.079336
      px      :     0.042950
      py      :     0.014577
 77 H s       :     0.894193  s :     0.894193
      pz      :     0.047232  p :     0.078455
      px      :     0.015004
      py      :     0.016220
 78 H s       :     0.894616  s :     0.894616
      pz      :     0.025501  p :     0.078370
      px      :     0.020674
      py      :     0.032195
 79 H s       :     0.907444  s :     0.907444
      pz      :     0.022475  p :     0.087149
      px      :     0.021874
      py      :     0.042799
 80 H s       :     0.877873  s :     0.877873
      pz      :     0.038305  p :     0.083382
      px      :     0.029579
      py      :     0.015499
 81 H s       :     0.888209  s :     0.888209
      pz      :     0.037612  p :     0.083431
      px      :     0.016084
      py      :     0.029735
 82 H s       :     0.914546  s :     0.914546
      pz      :     0.022416  p :     0.087073
      px      :     0.031006
      py      :     0.033651
 83 H s       :     0.872217  s :     0.872217
      pz      :     0.039195  p :     0.083738
      px      :     0.015244
      py      :     0.029300
 84 H s       :     0.888262  s :     0.888262
      pz      :     0.035808  p :     0.084239
      px      :     0.031774
      py      :     0.016657
 85 H s       :     0.895374  s :     0.895374
      pz      :     0.022507  p :     0.079634
      px      :     0.014134
      py      :     0.042993
 86 H s       :     0.890682  s :     0.890682
      pz      :     0.024707  p :     0.078888
      px      :     0.032998
      py      :     0.021183
 87 H s       :     0.890926  s :     0.890926
      pz      :     0.047854  p :     0.078623
      px      :     0.015645
      py      :     0.015124
 88 H s       :     0.917574  s :     0.917574
      pz      :     0.022498  p :     0.086874
      px      :     0.042061
      py      :     0.022315
 89 H s       :     0.874281  s :     0.874281
      pz      :     0.037841  p :     0.084011
      px      :     0.030490
      py      :     0.015680


                      *****************************
                      * MAYER POPULATION ANALYSIS *
                      *****************************

  NA   - Mulliken gross atomic population
  ZA   - Total nuclear charge
  QA   - Mulliken gross atomic charge
  VA   - Mayer's total valence
  BVA  - Mayer's bonded valence
  FA   - Mayer's free valence

  ATOM       NA         ZA         QA         VA         BVA        FA
  0 C      5.7744     6.0000     0.2256     3.8106     3.8106    -0.0000
  1 N      7.4233     7.0000    -0.4233     3.4413     3.4413     0.0000
  2 C      6.0675     6.0000    -0.0675     3.9181     3.9181     0.0000
  3 N      7.3423     7.0000    -0.3423     3.4281     3.4281     0.0000
  4 C      6.0816     6.0000    -0.0816     3.9705     3.9705     0.0000
  5 N      7.5645     7.0000    -0.5645     3.0726     3.0726    -0.0000
  6 C      6.0303     6.0000    -0.0303     3.9702     3.9702    -0.0000
  7 N      7.3372     7.0000    -0.3372     3.4442     3.4442     0.0000
  8 C      5.7772     6.0000     0.2228     3.8111     3.8111    -0.0000
  9 N      7.5652     7.0000    -0.5652     3.0903     3.0903    -0.0000
 10 C      5.8927     6.0000     0.1073     3.8711     3.8711     0.0000
 11 N      7.4385     7.0000    -0.4385     3.3797     3.3797    -0.0000
 12 C      6.0596     6.0000    -0.0596     3.9119     3.9119     0.0000
 13 N      7.4481     7.0000    -0.4481     3.3342     3.3342     0.0000
 14 C      5.7772     6.0000     0.2228     3.8064     3.8064     0.0000
 15 N      7.4412     7.0000    -0.4412     3.3666     3.3666     0.0000
 16 C      5.7489     6.0000     0.2511     3.8025     3.8025     0.0000
 17 C      6.0350     6.0000    -0.0350     3.9739     3.9739     0.0000
 18 C      6.1781     6.0000    -0.1781     3.6962     3.6962    -0.0000
 19 C      5.7735     6.0000     0.2265     3.8989     3.8989    -0.0000
 20 C      5.8050     6.0000     0.1950     3.8217     3.8217    -0.0000
 21 C      6.0666     6.0000    -0.0666     3.8950     3.8950    -0.0000
 22 C      6.0878     6.0000    -0.0878     3.9849     3.9849     0.0000
 23 C      6.0623     6.0000    -0.0623     3.9881     3.9881    -0.0000
 24 C      5.7839     6.0000     0.2161     3.8279     3.8279    -0.0000
 25 C      5.8858     6.0000     0.1142     3.8915     3.8915     0.0000
 26 C      6.0694     6.0000    -0.0694     3.9057     3.9057    -0.0000
 27 C      5.7593     6.0000     0.2407     3.8990     3.8990    -0.0000
 28 C      6.0426     6.0000    -0.0426     3.9894     3.9894     0.0000
 29 C      6.1933     6.0000    -0.1933     3.7287     3.7287    -0.0000
 30 C      5.7754     6.0000     0.2246     3.7829     3.7829    -0.0000
 31 C      5.8059     6.0000     0.1941     3.8324     3.8324    -0.0000
 32 C      6.0649     6.0000    -0.0649     3.9142     3.9142    -0.0000
 33 C      6.0974     6.0000    -0.0974     3.9856     3.9856    -0.0000
 34 C      6.0499     6.0000    -0.0499     3.9978     3.9978     0.0000
 35 C      5.8154     6.0000     0.1846     3.8289     3.8289    -0.0000
 36 C      5.8808     6.0000     0.1192     3.9056     3.9056     0.0000
 37 C      6.0693     6.0000    -0.0693     3.9152     3.9152     0.0000
 38 C      5.7569     6.0000     0.2431     3.7965     3.7965    -0.0000
 39 C      6.0647     6.0000    -0.0647     3.9971     3.9971     0.0000
 40 C      6.1999     6.0000    -0.1999     3.7500     3.7500     0.0000
 41 C      5.7834     6.0000     0.2166     3.8755     3.8755    -0.0000
 42 C      5.7900     6.0000     0.2100     3.8310     3.8310    -0.0000
 43 C      6.0764     6.0000    -0.0764     3.9050     3.9050    -0.0000
 44 C      6.0903     6.0000    -0.0903     3.9843     3.9843     0.0000
 45 C      6.0422     6.0000    -0.0422     3.9948     3.9948     0.0000
 46 C      5.8099     6.0000     0.1901     3.8217     3.8217    -0.0000
 47 C      5.8837     6.0000     0.1163     3.8960     3.8960     0.0000
 48 C      6.0810     6.0000    -0.0810     3.8987     3.8987    -0.0000
 49 C      5.7874     6.0000     0.2126     3.8695     3.8695     0.0000
 50 C      6.0630     6.0000    -0.0630     3.9900     3.9900     0.0000
 51 C      6.1901     6.0000    -0.1901     3.7394     3.7394     0.0000
 52 H      0.9269     1.0000     0.0731     0.9833     0.9833     0.0000
 53 H      1.0096     1.0000    -0.0096     1.0015     1.0015    -0.0000
 54 H      0.9398     1.0000     0.0602     1.0053     1.0053    -0.0000
 55 H      0.9279     1.0000     0.0721     0.9839     0.9839     0.0000
 56 H      0.9232     1.0000     0.0768     0.9726     0.9726     0.0000
 57 H      0.9300     1.0000     0.0700     0.9841     0.9841     0.0000
 58 H      0.9314     1.0000     0.0686     0.9869     0.9869     0.0000
 59 H      1.0249     1.0000    -0.0249     0.9964     0.9964     0.0000
 60 H      0.9419     1.0000     0.0581     1.0066     1.0066     0.0000
 61 H      0.8243     1.0000     0.1757     1.0434     1.0434     0.0000
 62 H      0.8306     1.0000     0.1694     1.0434     1.0434     0.0000
 63 H      0.9452     1.0000     0.0548     0.9860     0.9860    -0.0000
 64 H      1.0312     1.0000    -0.0312     0.9936     0.9936     0.0000
 65 H      0.9569     1.0000     0.0431     1.0083     1.0083    -0.0000
 66 H      0.9434     1.0000     0.0566     0.9846     0.9846    -0.0000
 67 H      0.9396     1.0000     0.0604     0.9717     0.9717     0.0000
 68 H      0.9429     1.0000     0.0571     0.9865     0.9865     0.0000
 69 H      0.9404     1.0000     0.0596     0.9831     0.9831     0.0000
 70 H      1.0172     1.0000    -0.0172     0.9969     0.9969    -0.0000
 71 H      0.9520     1.0000     0.0480     1.0074     1.0074     0.0000
 72 H      0.9576     1.0000     0.0424     0.9858     0.9858     0.0000
 73 H      1.0183     1.0000    -0.0183     0.9968     0.9968    -0.0000
 74 H      0.9661     1.0000     0.0339     1.0094     1.0094    -0.0000
 75 H      0.9589     1.0000     0.0411     0.9865     0.9865     0.0000
 76 H      0.9497     1.0000     0.0503     0.9706     0.9706    -0.0000
 77 H      0.9508     1.0000     0.0492     0.9845     0.9845     0.0000
 78 H      0.9517     1.0000     0.0483     0.9838     0.9838     0.0000
 79 H      1.0120     1.0000    -0.0120     1.0013     1.0013     0.0000
 80 H      0.9663     1.0000     0.0337     1.0065     1.0065    -0.0000
 81 H      0.9485     1.0000     0.0515     0.9853     0.9853     0.0000
 82 H      1.0234     1.0000    -0.0234     0.9948     0.9948    -0.0000
 83 H      0.9570     1.0000     0.0430     1.0104     1.0104     0.0000
 84 H      0.9495     1.0000     0.0505     0.9861     0.9861    -0.0000
 85 H      0.9443     1.0000     0.0557     0.9714     0.9714    -0.0000
 86 H      0.9435     1.0000     0.0565     0.9841     0.9841     0.0000
 87 H      0.9448     1.0000     0.0552     0.9853     0.9853     0.0000
 88 H      1.0288     1.0000    -0.0288     0.9919     0.9919    -0.0000
 89 H      0.9589     1.0000     0.0411     1.0061     1.0061    -0.0000

  Mayer bond orders larger than 0.100000
B(  0-C ,  1-N ) :   1.1716 B(  0-C , 17-C ) :   1.5589 B(  0-C , 52-H ) :   0.9677 
B(  1-N ,  8-C ) :   1.1677 B(  1-N , 10-C ) :   0.9384 B(  2-C , 12-C ) :   1.5643 
B(  2-C , 16-C ) :   1.2895 B(  2-C , 53-H ) :   0.9789 B(  3-N , 14-C ) :   1.1819 
B(  3-N , 16-C ) :   1.2017 B(  3-N , 61-H ) :   0.8964 B(  4-C ,  6-C ) :   1.3269 
B(  4-C , 17-C ) :   1.3288 B(  4-C , 18-C ) :   1.1161 B(  5-N , 19-C ) :   1.3798 
B(  5-N , 27-C ) :   1.4369 B(  6-C ,  8-C ) :   1.5610 B(  6-C , 54-H ) :   0.9711 
B(  7-N , 30-C ) :   1.1859 B(  7-N , 38-C ) :   1.2121 B(  7-N , 62-H ) :   0.9004 
B(  8-C , 55-H ) :   0.9688 B(  9-N , 41-C ) :   1.4256 B(  9-N , 49-C ) :   1.4015 
B( 10-C , 56-H ) :   0.9764 B( 10-C , 57-H ) :   0.9814 B( 10-C , 58-H ) :   0.9820 
B( 11-N , 20-C ) :   1.1079 B( 11-N , 24-C ) :   1.1345 B( 11-N , 25-C ) :   0.9596 
B( 12-C , 14-C ) :   1.2904 B( 12-C , 59-H ) :   0.9777 B( 13-N , 31-C ) :   1.0943 
B( 13-N , 35-C ) :   1.0839 B( 13-N , 36-C ) :   0.9758 B( 14-C , 18-C ) :   1.2444 
B( 15-N , 42-C ) :   1.1237 B( 15-N , 46-C ) :   1.0981 B( 15-N , 47-C ) :   0.9648 
B( 16-C , 51-C ) :   1.2316 B( 17-C , 60-H ) :   0.9713 B( 18-C , 19-C ) :   1.2827 
B( 19-C , 21-C ) :   1.1797 B( 20-C , 28-C ) :   1.6241 B( 20-C , 63-H ) :   0.9706 
B( 21-C , 26-C ) :   1.6679 B( 21-C , 64-H ) :   0.9730 B( 22-C , 23-C ) :   1.2660 
B( 22-C , 28-C ) :   1.2811 B( 22-C , 29-C ) :   1.2454 B( 23-C , 24-C ) :   1.6269 
B( 23-C , 65-H ) :   0.9718 B( 24-C , 66-H ) :   0.9690 B( 25-C , 67-H ) :   0.9763 
B( 25-C , 68-H ) :   0.9832 B( 25-C , 69-H ) :   0.9819 B( 26-C , 27-C ) :   1.1843 
B( 26-C , 70-H ) :   0.9749 B( 27-C , 29-C ) :   1.2360 B( 28-C , 71-H ) :   0.9710 
B( 29-C , 30-C ) :   1.1891 B( 30-C , 32-C ) :   1.3372 B( 31-C , 39-C ) :   1.6686 
B( 31-C , 72-H ) :   0.9706 B( 32-C , 37-C ) :   1.5219 B( 32-C , 73-H ) :   0.9772 
B( 33-C , 34-C ) :   1.2455 B( 33-C , 39-C ) :   1.2372 B( 33-C , 40-C ) :   1.3237 
B( 34-C , 35-C ) :   1.6665 B( 34-C , 74-H ) :   0.9708 B( 35-C , 75-H ) :   0.9706 
B( 36-C , 76-H ) :   0.9757 B( 36-C , 77-H ) :   0.9824 B( 36-C , 78-H ) :   0.9836 
B( 37-C , 38-C ) :   1.3337 B( 37-C , 79-H ) :   0.9789 B( 38-C , 40-C ) :   1.1888 
B( 39-C , 80-H ) :   0.9720 B( 40-C , 41-C ) :   1.1824 B( 41-C , 43-C ) :   1.2454 
B( 42-C , 50-C ) :   1.6387 B( 42-C , 81-H ) :   0.9696 B( 43-C , 48-C ) :   1.6056 
B( 43-C , 82-H ) :   0.9750 B( 44-C , 45-C ) :   1.2781 B( 44-C , 50-C ) :   1.2554 
B( 44-C , 51-C ) :   1.2515 B( 45-C , 46-C ) :   1.6322 B( 45-C , 83-H ) :   0.9705 
B( 46-C , 84-H ) :   0.9707 B( 47-C , 85-H ) :   0.9760 B( 47-C , 86-H ) :   0.9826 
B( 47-C , 87-H ) :   0.9829 B( 48-C , 49-C ) :   1.2411 B( 48-C , 88-H ) :   0.9729 
B( 49-C , 51-C ) :   1.1965 B( 50-C , 89-H ) :   0.9719 

-------
TIMINGS
-------

Total SCF time: 0 days 0 hours 25 min 15 sec 

Total time                  ....    1515.247 sec
Sum of individual times     ....    1511.440 sec  ( 99.7%)

Fock matrix formation       ....    1489.551 sec  ( 98.3%)
Diagonalization             ....       6.685 sec  (  0.4%)
Density matrix formation    ....       0.424 sec  (  0.0%)
Population analysis         ....       0.426 sec  (  0.0%)
Initial guess               ....       1.920 sec  (  0.1%)
Orbital Transformation      ....       0.000 sec  (  0.0%)
Orbital Orthonormalization  ....       0.000 sec  (  0.0%)
DIIS solution               ....       2.889 sec  (  0.2%)
SOSCF solution              ....       8.542 sec  (  0.6%)

Maximum memory used throughout the entire SCF-calculation: 302.6 MB


           ************************************************************
           *        Program running with 16 parallel MPI-processes    *
           *              working on a common directory               *
           ************************************************************

------------------------------------------------------------------------------
                                ORCA  MP2 
------------------------------------------------------------------------------

Freezing NCore=104 chemical core electrons

----------
MP2 ENERGY (disk based algorithm)
----------

Dimension of the basis                    ...  918
Memory devoted to MP2                     ... 2000 MB   
Data format for buffers                   ... DOUBLE
Compression type for matrix containers    ... UNCOMPRESSED

-------------------------------
PARTIAL EXCHANGE TRANSFORMATION
-------------------------------

Transformation type                        ... one-operator
Generation of integrals (i,mue|j,nue)      ... ON
Generation of integrals (mue,kappa|nue,tau)... OFF
Generation of integrals (i,mue|a,nue)      ... OFF
Dimension of the basis                     ...  918
Number of internal MOs                     ...  127 (  52- 178)
Pair cutoff                                ... 2.500e-12 Eh
Number of AO pairs in the trafo            ... 421821
Total Number of distinct AO pairs          ... 421821
Memory devoted for trafo                   ... 2000.0 MB 
Max. Number of MO pairs treated together   ...  311      
Number Format for Storage                  ... Double (8 Byte)
Integral package used                      ... LIBINT

Starting integral evaluation:
    ... done with AO integral generation
Closing buffer AOK     (37.92 GB; CompressionRatio= 1.34)
Collecting buffer AOK 
Number of MO pairs included in the trafo   ... 8128
------------------------
SORTING OF (i,mue|j,nue)
------------------------

IBATCH = 1 of  2
IBATCH = 2 of  2
Closing buffer KAO     (51.03 GB; CompressionRatio= 1.00)
Collecting buffer KAO 
N(AO-Batches) Done                         ...  85655230 
N(AO-Batches) Skipped                      ...  81925994 
N(IJ)-pairs Skipped                        ...         0 
TOTAL TIME for half transformation         ...  2518.368 sec
AO-integral generation                     ...   173.813 sec
Half transformation                        ...   314.152 sec
K-integral sorting                         ...  1881.025 sec
Process 10:   Internal MO 132
Process 13:   Internal MO 156

Finished integral transformation - now doing MP2 part

OPERATOR COMBINATION   0   0: ij=( 52..178, 52..178)
Process  4:   Internal MO  84
Process  7:   Internal MO 108
Process  1:   Internal MO  60
Process  0:   Internal MO  54
Process  0:   Internal MO  57
Process  2:   Internal MO  69
Process  1:   Internal MO  63
Process  5:   Internal MO  93
Process  8:   Internal MO 117
Process  2:   Internal MO  72
Process  1:   Internal MO  66
Process  4:   Internal MO  87
Process 14:   Internal MO 165
Process 11:   Internal MO 141
Process  3:   Internal MO  78
Process  2:   Internal MO  75
Process  9:   Internal MO 126
Process 12:   Internal MO 150
Process  7:   Internal MO 111
Process  5:   Internal MO  96
Process 10:   Internal MO 135
Process  3:   Internal MO  81
Process  4:   Internal MO  90
Process 15:   Internal MO 174
Process  8:   Internal MO 120
Process  6:   Internal MO 102
Process  5:   Internal MO  99
Process  7:   Internal MO 114
Process  9:   Internal MO 129
Process 14:   Internal MO 168
Process 13:   Internal MO 159
Process  6:   Internal MO 105
Process 11:   Internal MO 144
Process  8:   Internal MO 123
Process 10:   Internal MO 138
Process 12:   Internal MO 153
Process 15:   Internal MO 177
Process 11:   Internal MO 147
Process 13:   Internal MO 162
Process 14:   Internal MO 171
-----------------------------------------------
 MP2 CORRELATION ENERGY   :     -7.277265868 Eh
-----------------------------------------------


-------
TIMINGS
-------
Total time                : 2804.670 sec
Integral trafo            : 2520.260 sec ( 89.9%)
K(i,j)                    :    6.029 sec (  0.2%)
T(i,j)                    :    0.165 sec (  0.0%)

---------------------------------------
MP2 TOTAL ENERGY:    -2130.891448853 Eh
---------------------------------------

Maximum memory used throughout the entire MP2-calculation: 2275.2 MB

-------------------------   --------------------
FINAL SINGLE POINT ENERGY     -2130.891448853157
-------------------------   --------------------


                            ***************************************
                            *     ORCA property calculations      *
                            ***************************************


  WARNING: The energy has been calculated at the MP2 level but the densities
           used in the property calculations are still SCF densities
           MP2 response densities have not been calculated 
           use %mp2 Density relaxed end
           or  %mp2 Density unrelaxed end

                                    ---------------------
                                    Active property flags
                                    ---------------------
   (+) Dipole Moment


------------------------------------------------------------------------------
                       ORCA ELECTRIC PROPERTIES CALCULATION
------------------------------------------------------------------------------

Dipole Moment Calculation                       ... on
Quadrupole Moment Calculation                   ... off
Polarizability Calculation                      ... off
GBWName                                         ... /scratch/allen/tmpyp4_amber_gaff2/conf1/conf1/Conf104.orca.gbw
Electron density                                ... /scratch/allen/tmpyp4_amber_gaff2/conf1/conf1/Conf104.orca.scfp
The origin for moment calculation is the CENTER OF MASS  = ( 0.002240, -0.002638  0.003703)

-------------
DIPOLE MOMENT
-------------
                                X             Y             Z
Electronic contribution:     -3.26142       3.27299      -0.17419
Nuclear contribution   :     -0.01589       0.17354       0.22004
                        -----------------------------------------
Total Dipole Moment    :     -3.27731       3.44653       0.04585
                        -----------------------------------------
Magnitude (a.u.)       :      4.75620
Magnitude (Debye)      :     12.08930



--------------------
Rotational spectrum 
--------------------
 
Rotational constants in cm-1:     0.001498     0.001473     0.000763 
Rotational constants in MHz :    44.900074    44.152246    22.865173 

 Dipole components along the rotational axes: 
x,y,z [a.u.] :    -4.344968     1.934153     0.041792 
x,y,z [Debye]:   -11.044030     4.916226     0.106226 

 

Timings for individual modules:

Sum of individual times         ...     4342.507 sec (=  72.375 min)
GTO integral calculation        ...        2.593 sec (=   0.043 min)   0.1 %
SCF iterations                  ...     1516.128 sec (=  25.269 min)  34.9 %
MP2 module                      ...     2823.786 sec (=  47.063 min)  65.0 %
                             ****ORCA TERMINATED NORMALLY****
TOTAL RUN TIME: 0 days 1 hours 12 minutes 25 seconds 751 msec
# of primitive gaussian functions

