
                                 *****************
                                 * O   R   C   A *
                                 *****************

                                            #,                                       
                                            ###                                      
                                            ####                                     
                                            #####                                    
                                            ######                                   
                                           ########,                                 
                                     ,,################,,,,,                         
                               ,,#################################,,                 
                          ,,##########################################,,             
                       ,#########################################, ''#####,          
                    ,#############################################,,   '####,        
                  ,##################################################,,,,####,       
                ,###########''''           ''''###############################       
              ,#####''   ,,,,##########,,,,          '''####'''          '####       
            ,##' ,,,,###########################,,,                        '##       
           ' ,,###''''                  '''############,,,                           
         ,,##''                                '''############,,,,        ,,,,,,###''
      ,#''                                            '''#######################'''  
     '                                                          ''''####''''         
             ,#######,   #######,   ,#######,      ##                                
            ,#'     '#,  ##    ##  ,#'     '#,    #''#        ######   ,####,        
            ##       ##  ##   ,#'  ##            #'  '#       #        #'  '#        
            ##       ##  #######   ##           ,######,      #####,   #    #        
            '#,     ,#'  ##    ##  '#,     ,#' ,#      #,         ##   #,  ,#        
             '#######'   ##     ##  '#######'  #'      '#     #####' # '####'        



                  #######################################################
                  #                        -***-                        #
                  #          Department of theory and spectroscopy      #
                  #    Directorship and core code : Frank Neese         #
                  #        Max Planck Institute fuer Kohlenforschung    #
                  #                Kaiser Wilhelm Platz 1               #
                  #                 D-45470 Muelheim/Ruhr               #
                  #                      Germany                        #
                  #                                                     #
                  #                  All rights reserved                #
                  #                        -***-                        #
                  #######################################################


                         Program Version 5.0.4 -  RELEASE  -


 With contributions from (in alphabetic order):
   Daniel Aravena         : Magnetic Suceptibility
   Michael Atanasov       : Ab Initio Ligand Field Theory (pilot matlab implementation)
   Alexander A. Auer      : GIAO ZORA, VPT2 properties, NMR spectrum
   Ute Becker             : Parallelization
   Giovanni Bistoni       : ED, misc. LED, open-shell LED, HFLD
   Martin Brehm           : Molecular dynamics
   Dmytro Bykov           : SCF Hessian
   Vijay G. Chilkuri      : MRCI spin determinant printing, contributions to CSF-ICE
   Dipayan Datta          : RHF DLPNO-CCSD density
   Achintya Kumar Dutta   : EOM-CC, STEOM-CC
   Dmitry Ganyushin       : Spin-Orbit,Spin-Spin,Magnetic field MRCI
   Miquel Garcia          : C-PCM and meta-GGA Hessian, CC/C-PCM, Gaussian charge scheme
   Yang Guo               : DLPNO-NEVPT2, F12-NEVPT2, CIM, IAO-localization
   Andreas Hansen         : Spin unrestricted coupled pair/coupled cluster methods
   Benjamin Helmich-Paris : MC-RPA, TRAH-SCF, COSX integrals
   Lee Huntington         : MR-EOM, pCC
   Robert Izsak           : Overlap fitted RIJCOSX, COSX-SCS-MP3, EOM
   Marcus Kettner         : VPT2
   Christian Kollmar      : KDIIS, OOCD, Brueckner-CCSD(T), CCSD density, CASPT2, CASPT2-K
   Simone Kossmann        : Meta GGA functionals, TD-DFT gradient, OOMP2, MP2 Hessian
   Martin Krupicka        : Initial AUTO-CI
   Lucas Lang             : DCDCAS
   Marvin Lechner         : AUTO-CI (C++ implementation), FIC-MRCC
   Dagmar Lenk            : GEPOL surface, SMD
   Dimitrios Liakos       : Extrapolation schemes; Compound Job, initial MDCI parallelization
   Dimitrios Manganas     : Further ROCIS development; embedding schemes
   Dimitrios Pantazis     : SARC Basis sets
   Anastasios Papadopoulos: AUTO-CI, single reference methods and gradients
   Taras Petrenko         : DFT Hessian,TD-DFT gradient, ASA, ECA, R-Raman, ABS, FL, XAS/XES, NRVS
   Peter Pinski           : DLPNO-MP2, DLPNO-MP2 Gradient
   Christoph Reimann      : Effective Core Potentials
   Marius Retegan         : Local ZFS, SOC
   Christoph Riplinger    : Optimizer, TS searches, QM/MM, DLPNO-CCSD(T), (RO)-DLPNO pert. Triples
   Tobias Risthaus        : Range-separated hybrids, TD-DFT gradient, RPA, STAB
   Michael Roemelt        : Original ROCIS implementation
   Masaaki Saitow         : Open-shell DLPNO-CCSD energy and density
   Barbara Sandhoefer     : DKH picture change effects
   Avijit Sen             : IP-ROCIS
   Kantharuban Sivalingam : CASSCF convergence, NEVPT2, FIC-MRCI
   Bernardo de Souza      : ESD, SOC TD-DFT
   Georgi Stoychev        : AutoAux, RI-MP2 NMR, DLPNO-MP2 response
   Willem Van den Heuvel  : Paramagnetic NMR
   Boris Wezisla          : Elementary symmetry handling
   Frank Wennmohs         : Technical directorship


 We gratefully acknowledge several colleagues who have allowed us to
 interface, adapt or use parts of their codes:
   Stefan Grimme, W. Hujo, H. Kruse, P. Pracht,  : VdW corrections, initial TS optimization,
                  C. Bannwarth, S. Ehlert          DFT functionals, gCP, sTDA/sTD-DF
   Ed Valeev, F. Pavosevic, A. Kumar             : LibInt (2-el integral package), F12 methods
   Garnet Chan, S. Sharma, J. Yang, R. Olivares  : DMRG
   Ulf Ekstrom                                   : XCFun DFT Library
   Mihaly Kallay                                 : mrcc  (arbitrary order and MRCC methods)
   Jiri Pittner, Ondrej Demel                    : Mk-CCSD
   Frank Weinhold                                : gennbo (NPA and NBO analysis)
   Christopher J. Cramer and Donald G. Truhlar   : smd solvation model
   Lars Goerigk                                  : TD-DFT with DH, B97 family of functionals
   V. Asgeirsson, H. Jonsson                     : NEB implementation
   FAccTs GmbH                                   : IRC, NEB, NEB-TS, DLPNO-Multilevel, CI-OPT
                                                   MM, QMMM, 2- and 3-layer-ONIOM, Crystal-QMMM,
                                                   LR-CPCM, SF, NACMEs, symmetry and pop. for TD-DFT,
                                                   nearIR, NL-DFT gradient (VV10), updates on ESD,
                                                   ML-optimized integration grids
   S Lehtola, MJT Oliveira, MAL Marques          : LibXC Library
   Liviu Ungur et al                             : ANISO software


 Your calculation uses the libint2 library for the computation of 2-el integrals
 For citations please refer to: http://libint.valeyev.net

 Your ORCA version has been built with support for libXC version: 5.1.0
 For citations please refer to: https://tddft.org/programs/libxc/

 This ORCA versions uses:
   CBLAS   interface :  Fast vector & matrix operations
   LAPACKE interface :  Fast linear algebra routines
   SCALAPACK package :  Parallel linear algebra routines
   Shared memory     :  Shared parallel matrices
   BLAS/LAPACK       :  OpenBLAS 0.3.15  USE64BITINT DYNAMIC_ARCH NO_AFFINITY Sandybridge SINGLE_THREADED
        Core in use  :  Sandybridge
   Copyright (c) 2011-2014, The OpenBLAS Project


================================================================================

----- Orbital basis set information -----
Your calculation utilizes the basis: cc-pVDZ 
       H, B-Ne : Obtained from the ccRepo (grant-hill.group.shef.ac.uk/ccrepo) Feb. 2017
                 T. H. Dunning, Jr., J. Chem. Phys. 90, 1007 (1989)
            He : Obtained from the ccRepo (grant-hill.group.shef.ac.uk/ccrepo) Feb. 2017
                 D. E. Woon, T. H. Dunning, Jr., J. Chem. Phys. 100, 2975 (1994)
  Li-Be, Na-Mg : Obtained from the ccRepo (grant-hill.group.shef.ac.uk/ccrepo) Feb. 2017
                 B. P. Prascher, D. E. Woon, K. A. Peterson, T. H. Dunning, Jr., A. K. Wilson, Theor. Chem. Acc. 128, 69 (2011)
         Al-Ar : Obtained from the ccRepo (grant-hill.group.shef.ac.uk/ccrepo) Feb. 2017
                 D. E. Woon, T. H. Dunning, Jr., J. Chem. Phys. 98, 1358 (1993)
            Ca : Obtained from the Peterson Research Group Website (tyr0.chem.wsu.edu/~kipeters) Feb. 2017
                 J. Koput, K. A. Peterson, J. Phys. Chem. 106, 9595 (2002)
         Sc-Zn : Obtained from the ccRepo (grant-hill.group.shef.ac.uk/ccrepo) Feb. 2017
                 N. B. Balabanov, K. A. Peterson, J. Chem. Phys. 123, 064107 (2005)
                 N. B. Balabanov, K. A. Peterson, J. Chem. Phys. 125, 074110 (2006)
         Ga-Kr : Obtained from the ccRepo (grant-hill.group.shef.ac.uk/ccrepo) Feb. 2017
                 A. K. Wilson, D. E. Woon, K. A. Peterson, T. H. Dunning, Jr., J. Chem. Phys. 110, 7667 (1999)

================================================================================
                                        WARNINGS
                       Please study these warnings very carefully!
================================================================================


WARNING: No MP2 level density has been requested!
         To caclulate MP2 level properties use
         %mp2 Density relaxed end
         or
         %mp2 Density unrelaxed end

WARNING: Post HF methods need fully converged wavefunctions
  ===> : Setting SCFConvForced true
         You can overwrite this default with %scf ConvForced false 


INFO   : the flag for use of the SHARK integral package has been found!

================================================================================
                                       INPUT FILE
================================================================================
NAME = /scratch/allen/tmpyp4_amber_gaff2/2.Mdgx/conf11/conf11/Conf66.orca
|  1> ! PAL2
|  2> ! mp2 cc-pvdz TightSCF  NoKeepInts
|  3> 
|  4> %scf
|  5>   MaxCore 2000
|  6> end
|  7> %mp2
|  8>   MaxCore 2000
|  9> end
| 10> * xyz 0 1
| 11>    C       -3.57800         6.14400        -0.95800
| 12>    C        1.47400         4.04100         0.05700
| 13>    C       -2.80200         4.09300         0.04900
| 14>    C       -3.62800         4.38000         1.14700
| 15>    C       -4.39600         5.52700         1.15600
| 16>    C       -5.22600         7.59200         0.13800
| 17>    C        0.13200         4.30700         0.06100
| 18>    C       -0.56900         3.05600         0.04700
| 19>    C        1.64900         2.61800         0.02300
| 20>    C       -2.79500         5.00700        -1.01600
| 21>    N       -4.36200         6.39200         0.11500
| 22>    N        0.38800         2.06700         0.02500
| 23>    N       -2.01000         0.39500        -0.07500
| 24>    N       -0.38800        -2.07400        -0.02700
| 25>    N        2.01000        -0.40100         0.06500
| 26>    C       -1.96000         2.86100         0.02400
| 27>    C       -2.62300         1.61500        -0.01800
| 28>    C       -5.57300        -4.32900         1.06600
| 29>    C       -4.07300         1.47100         0.05600
| 30>    C       -4.10600        -2.75600        -0.02600
| 31>    C       -4.99500        -2.75700        -1.11100
| 32>    C       -6.13200        -3.54200        -1.07600
| 33>    C       -7.65100        -5.11300         0.04000
| 34>    C       -4.32400         0.14100         0.03700
| 35>    C       -3.02500        -0.52000        -0.04800
| 36>    C       -4.42200        -3.56600         1.07500
| 37>    N       -6.40700        -4.31300         0.00100
| 38>    C       -2.86700        -1.92200        -0.04000
| 39>    C       -1.65000        -2.62400        -0.02700
| 40>    C        3.56800        -6.14200        -1.04000
| 41>    C       -1.47600        -4.04900        -0.03400
| 42>    C        2.80300        -4.09900        -0.00800
| 43>    C        3.65700        -4.38400         1.06900
| 44>    C        4.42700        -5.53000         1.05900
| 45>    C        5.24500        -7.58800         0.01400
| 46>    C       -0.13400        -4.31500        -0.02200
| 47>    C        0.56800        -3.06400        -0.02700
| 48>    C        2.77500        -5.01200        -1.07400
| 49>    N        4.37600        -6.39100         0.01700
| 50>    C        1.95900        -2.86900        -0.00900
| 51>    C        2.62100        -1.62200         0.00900
| 52>    C        5.54300         4.33900        -1.13000
| 53>    C        4.07000        -1.47900        -0.09400
| 54>    C        4.10400         2.75100        -0.02100
| 55>    C        5.02700         2.72900         1.03600
| 56>    C        6.16600         3.50900         0.97800
| 57>    C        7.61900         5.15300        -0.11500
| 58>    C        4.32100        -0.14800        -0.09200
| 59>    C        3.02500         0.51400         0.01500
| 60>    C        4.38700         3.58200        -1.11500
| 61>    C        2.86600         1.91600         0.01300
| 62>    N        6.41300         4.29600        -0.09500
| 63>    H       -3.59500         6.88300        -1.75100
| 64>    H        2.27400         4.76600         0.08100
| 65>    H       -3.68300         3.70800         1.99500
| 66>    H       -5.05400         5.78600         1.97500
| 67>    H       -6.21300         7.32800        -0.24900
| 68>    H       -5.30900         7.94600         1.16600
| 69>    H       -4.77300         8.36200        -0.48600
| 70>    H       -0.33200         5.28200         0.06900
| 71>    H       -2.16800         4.84900        -1.88600
| 72>    H        0.18200         1.07200         0.00500
| 73>    H       -0.18300        -1.08000        -0.02100
| 74>    H       -5.86400        -4.96200         1.89500
| 75>    H       -4.79400         2.27200         0.13900
| 76>    H       -4.80000        -2.16000        -1.99400
| 77>    H       -6.84100        -3.58200        -1.89300
| 78>    H       -8.42800        -4.53600         0.54600
| 79>    H       -7.95600        -5.33700        -0.98100
| 80>    H       -7.45600        -6.03700         0.58400
| 81>    H       -5.28700        -0.34400         0.10000
| 82>    H       -3.78000        -3.60100         1.94700
| 83>    H        3.58700        -6.86800        -1.84300
| 84>    H       -2.27600        -4.77400        -0.05000
| 85>    H        3.71400        -3.72400         1.92600
| 86>    H        5.09200        -5.79500         1.87100
| 87>    H        6.20500        -7.32900        -0.43900
| 88>    H        5.39300        -7.91700         1.04200
| 89>    H        4.75900        -8.37300        -0.56400
| 90>    H        0.32900        -5.29000        -0.00800
| 91>    H        2.14600        -4.84200        -1.94000
| 92>    H        5.80800         4.98600        -1.95600
| 93>    H        4.78800        -2.28100        -0.18500
| 94>    H        4.86000         2.11400         1.91200
| 95>    H        6.90100         3.53100         1.77200
| 96>    H        7.38300         6.10900         0.35600
| 97>    H        8.41400         4.65200         0.43500
| 98>    H        7.92100         5.31000        -1.15000
| 99>    H        5.28300         0.33600        -0.17900
|100>    H        3.72000         3.63200        -1.96700
|101> *
|102> 
|103>                          ****END OF INPUT****
================================================================================

                       ****************************
                       * Single Point Calculation *
                       ****************************

---------------------------------
CARTESIAN COORDINATES (ANGSTROEM)
---------------------------------
  C     -3.578000    6.144000   -0.958000
  C      1.474000    4.041000    0.057000
  C     -2.802000    4.093000    0.049000
  C     -3.628000    4.380000    1.147000
  C     -4.396000    5.527000    1.156000
  C     -5.226000    7.592000    0.138000
  C      0.132000    4.307000    0.061000
  C     -0.569000    3.056000    0.047000
  C      1.649000    2.618000    0.023000
  C     -2.795000    5.007000   -1.016000
  N     -4.362000    6.392000    0.115000
  N      0.388000    2.067000    0.025000
  N     -2.010000    0.395000   -0.075000
  N     -0.388000   -2.074000   -0.027000
  N      2.010000   -0.401000    0.065000
  C     -1.960000    2.861000    0.024000
  C     -2.623000    1.615000   -0.018000
  C     -5.573000   -4.329000    1.066000
  C     -4.073000    1.471000    0.056000
  C     -4.106000   -2.756000   -0.026000
  C     -4.995000   -2.757000   -1.111000
  C     -6.132000   -3.542000   -1.076000
  C     -7.651000   -5.113000    0.040000
  C     -4.324000    0.141000    0.037000
  C     -3.025000   -0.520000   -0.048000
  C     -4.422000   -3.566000    1.075000
  N     -6.407000   -4.313000    0.001000
  C     -2.867000   -1.922000   -0.040000
  C     -1.650000   -2.624000   -0.027000
  C      3.568000   -6.142000   -1.040000
  C     -1.476000   -4.049000   -0.034000
  C      2.803000   -4.099000   -0.008000
  C      3.657000   -4.384000    1.069000
  C      4.427000   -5.530000    1.059000
  C      5.245000   -7.588000    0.014000
  C     -0.134000   -4.315000   -0.022000
  C      0.568000   -3.064000   -0.027000
  C      2.775000   -5.012000   -1.074000
  N      4.376000   -6.391000    0.017000
  C      1.959000   -2.869000   -0.009000
  C      2.621000   -1.622000    0.009000
  C      5.543000    4.339000   -1.130000
  C      4.070000   -1.479000   -0.094000
  C      4.104000    2.751000   -0.021000
  C      5.027000    2.729000    1.036000
  C      6.166000    3.509000    0.978000
  C      7.619000    5.153000   -0.115000
  C      4.321000   -0.148000   -0.092000
  C      3.025000    0.514000    0.015000
  C      4.387000    3.582000   -1.115000
  C      2.866000    1.916000    0.013000
  N      6.413000    4.296000   -0.095000
  H     -3.595000    6.883000   -1.751000
  H      2.274000    4.766000    0.081000
  H     -3.683000    3.708000    1.995000
  H     -5.054000    5.786000    1.975000
  H     -6.213000    7.328000   -0.249000
  H     -5.309000    7.946000    1.166000
  H     -4.773000    8.362000   -0.486000
  H     -0.332000    5.282000    0.069000
  H     -2.168000    4.849000   -1.886000
  H      0.182000    1.072000    0.005000
  H     -0.183000   -1.080000   -0.021000
  H     -5.864000   -4.962000    1.895000
  H     -4.794000    2.272000    0.139000
  H     -4.800000   -2.160000   -1.994000
  H     -6.841000   -3.582000   -1.893000
  H     -8.428000   -4.536000    0.546000
  H     -7.956000   -5.337000   -0.981000
  H     -7.456000   -6.037000    0.584000
  H     -5.287000   -0.344000    0.100000
  H     -3.780000   -3.601000    1.947000
  H      3.587000   -6.868000   -1.843000
  H     -2.276000   -4.774000   -0.050000
  H      3.714000   -3.724000    1.926000
  H      5.092000   -5.795000    1.871000
  H      6.205000   -7.329000   -0.439000
  H      5.393000   -7.917000    1.042000
  H      4.759000   -8.373000   -0.564000
  H      0.329000   -5.290000   -0.008000
  H      2.146000   -4.842000   -1.940000
  H      5.808000    4.986000   -1.956000
  H      4.788000   -2.281000   -0.185000
  H      4.860000    2.114000    1.912000
  H      6.901000    3.531000    1.772000
  H      7.383000    6.109000    0.356000
  H      8.414000    4.652000    0.435000
  H      7.921000    5.310000   -1.150000
  H      5.283000    0.336000   -0.179000
  H      3.720000    3.632000   -1.967000

----------------------------
CARTESIAN COORDINATES (A.U.)
----------------------------
  NO LB      ZA    FRAG     MASS         X           Y           Z
   0 C     6.0000    0    12.011   -6.761440   11.610477   -1.810358
   1 C     6.0000    0    12.011    2.785456    7.636383    0.107714
   2 C     6.0000    0    12.011   -5.295013    7.734649    0.092597
   3 C     6.0000    0    12.011   -6.855926    8.277000    2.167516
   4 C     6.0000    0    12.011   -8.307236   10.444516    2.184523
   5 C     6.0000    0    12.011   -9.875709   14.346801    0.260782
   6 C     6.0000    0    12.011    0.249444    8.139050    0.115273
   7 C     6.0000    0    12.011   -1.075254    5.775003    0.088817
   8 C     6.0000    0    12.011    3.116158    4.947303    0.043464
   9 C     6.0000    0    12.011   -5.281785    9.461859   -1.919962
  10 N     7.0000    0    14.007   -8.242985   12.079129    0.217319
  11 N     7.0000    0    14.007    0.733214    3.906064    0.047243
  12 N     7.0000    0    14.007   -3.798350    0.746442   -0.141729
  13 N     7.0000    0    14.007   -0.733214   -3.919292   -0.051023
  14 N     7.0000    0    14.007    3.798350   -0.757780    0.122832
  15 C     6.0000    0    12.011   -3.703863    5.406506    0.045353
  16 C     6.0000    0    12.011   -4.956752    3.051908   -0.034015
  17 C     6.0000    0    12.011  -10.531444   -8.180624    2.014448
  18 C     6.0000    0    12.011   -7.696855    2.779787    0.105825
  19 C     6.0000    0    12.011   -7.759216   -5.208085   -0.049133
  20 C     6.0000    0    12.011   -9.439182   -5.209975   -2.099486
  21 C     6.0000    0    12.011  -11.587801   -6.693410   -2.033345
  22 C     6.0000    0    12.011  -14.458295   -9.662170    0.075589
  23 C     6.0000    0    12.011   -8.171176    0.266451    0.069920
  24 C     6.0000    0    12.011   -5.716422   -0.982658   -0.090707
  25 C     6.0000    0    12.011   -8.356369   -6.738763    2.031456
  26 N     7.0000    0    14.007  -12.107475   -8.150389    0.001890
  27 C     6.0000    0    12.011   -5.417845   -3.632054   -0.075589
  28 C     6.0000    0    12.011   -3.118048   -4.958641   -0.051023
  29 C     6.0000    0    12.011    6.742543  -11.606698   -1.965315
  30 C     6.0000    0    12.011   -2.789236   -7.651501   -0.064251
  31 C     6.0000    0    12.011    5.296902   -7.745987   -0.015118
  32 C     6.0000    0    12.011    6.910728   -8.284559    2.020117
  33 C     6.0000    0    12.011    8.365818  -10.450186    2.001220
  34 C     6.0000    0    12.011    9.911614  -14.339242    0.026456
  35 C     6.0000    0    12.011   -0.253223   -8.154168   -0.041574
  36 C     6.0000    0    12.011    1.073364   -5.790121   -0.051023
  37 C     6.0000    0    12.011    5.243990   -9.471307   -2.029566
  38 N     7.0000    0    14.007    8.269442  -12.077240    0.032125
  39 C     6.0000    0    12.011    3.701973   -5.421624   -0.017008
  40 C     6.0000    0    12.011    4.952972   -3.065136    0.017008
  41 C     6.0000    0    12.011   10.474752    8.199522   -2.135391
  42 C     6.0000    0    12.011    7.691185   -2.794905   -0.177634
  43 C     6.0000    0    12.011    7.755436    5.198637   -0.039684
  44 C     6.0000    0    12.011    9.499653    5.157063    1.957756
  45 C     6.0000    0    12.011   11.652051    6.631049    1.848152
  46 C     6.0000    0    12.011   14.397823    9.737759   -0.217319
  47 C     6.0000    0    12.011    8.165507   -0.279679   -0.173855
  48 C     6.0000    0    12.011    5.716422    0.971319    0.028346
  49 C     6.0000    0    12.011    8.290229    6.768999   -2.107045
  50 C     6.0000    0    12.011    5.415955    3.620715    0.024566
  51 N     7.0000    0    14.007   12.118814    8.118263   -0.179524
  52 H     1.0000    0     1.008   -6.793565   13.006985   -3.308910
  53 H     1.0000    0     1.008    4.297237    9.006435    0.153068
  54 H     1.0000    0     1.008   -6.959861    7.007105    3.770004
  55 H     1.0000    0     1.008   -9.550676   10.933955    3.732209
  56 H     1.0000    0     1.008  -11.740868   13.847913   -0.470542
  57 H     1.0000    0     1.008  -10.032556   15.015764    2.203421
  58 H     1.0000    0     1.008   -9.019663   15.801890   -0.918407
  59 H     1.0000    0     1.008   -0.627389    9.981533    0.130391
  60 H     1.0000    0     1.008   -4.096926    9.163282   -3.564023
  61 H     1.0000    0     1.008    0.343930    2.025786    0.009449
  62 H     1.0000    0     1.008   -0.345820   -2.040904   -0.039684
  63 H     1.0000    0     1.008  -11.081354   -9.376821    3.581031
  64 H     1.0000    0     1.008   -9.059347    4.293458    0.262672
  65 H     1.0000    0     1.008   -9.070685   -4.081808   -3.768114
  66 H     1.0000    0     1.008  -12.927616   -6.768999   -3.577252
  67 H     1.0000    0     1.008  -15.926612   -8.571798    1.031790
  68 H     1.0000    0     1.008  -15.034661  -10.085468   -1.853821
  69 H     1.0000    0     1.008  -14.089798  -11.408277    1.103600
  70 H     1.0000    0     1.008   -9.990982   -0.650066    0.188973
  71 H     1.0000    0     1.008   -7.143165   -6.804904    3.679297
  72 H     1.0000    0     1.008    6.778448  -12.978639   -3.482765
  73 H     1.0000    0     1.008   -4.301017   -9.021553   -0.094486
  74 H     1.0000    0     1.008    7.018443   -7.037340    3.639613
  75 H     1.0000    0     1.008    9.622485  -10.950963    3.535678
  76 H     1.0000    0     1.008   11.725751  -13.849803   -0.829590
  77 H     1.0000    0     1.008   10.191293  -14.960962    1.969095
  78 H     1.0000    0     1.008    8.993207  -15.822677   -1.065806
  79 H     1.0000    0     1.008    0.621720   -9.996651   -0.015118
  80 H     1.0000    0     1.008    4.055352   -9.150054   -3.666069
  81 H     1.0000    0     1.008   10.975529    9.422175   -3.696304
  82 H     1.0000    0     1.008    9.048009   -4.310465   -0.349599
  83 H     1.0000    0     1.008    9.184069    3.994881    3.613156
  84 H     1.0000    0     1.008   13.041000    6.672623    3.348595
  85 H     1.0000    0     1.008   13.951848   11.544337    0.672743
  86 H     1.0000    0     1.008   15.900156    8.791006    0.822031
  87 H     1.0000    0     1.008   14.968521   10.034446   -2.173185
  88 H     1.0000    0     1.008    9.983423    0.634948   -0.338261
  89 H     1.0000    0     1.008    7.029781    6.863485   -3.717091

--------------------------------
INTERNAL COORDINATES (ANGSTROEM)
--------------------------------
 C      0   0   0     0.000000000000     0.00000000     0.00000000
 C      1   0   0     5.565567176847     0.00000000     0.00000000
 C      1   2   0     2.413053252624    46.43467366     0.00000000
 C      3   1   2     1.403655584536    87.90319497   127.77386763
 C      4   3   1     1.380403564180   120.15833380     0.09782395
 C      5   4   3     2.447335081267   152.50864636     1.73385347
 C      2   1   3     1.368114030335    15.56403573   341.55213487
 C      7   2   1     1.434084376876   108.05010202   135.71188974
 C      2   1   3     1.434123425651   118.77494279    31.59653247
 C      1   2   3     1.381745996918    35.14892403   316.10662700
 N      1   2   3     1.351846514956   116.80774620    62.39960675
 N      9   2   1     1.376127174356   106.58526707   346.73206654
 N     12   9   2     2.925062050624   168.53581413   171.12065651
 N     13  12   9     2.954513327098    91.55032014    11.12112580
 N     14  13  12     2.925371258490    88.43092389   359.84326247
 C      8   7   2     1.404790019896   127.24786865   181.11170171
 C     13  12   9     1.366535034311    81.72106996   188.00453233
 C     14  13  12     5.758810554272    80.56209567   166.76250791
 C     17  13  12     1.459010623676   111.08861209   183.82872609
 C     18  14  13     2.412235892279    27.27532823    36.33507194
 C     20  18  14     1.402692767501    87.95206320   148.94598259
 C     21  20  18     1.382106725257   120.14573887   359.70382047
 C     18  14  13     2.446510985056   144.15733107    82.80075377
 C     19  17  13     1.353610726908   106.29293361   359.75308708
 C     13  12   9     1.366813447402   172.21332906    33.46711076
 C     18  14  13     1.380960173213    15.08449437   309.23336894
 N     22  21  20     1.352773077792   120.73759875     0.27865223
 C     25  13  17     1.410897586645   125.60330303   182.37774668
 C     14  13  12     1.376642291955    80.24689249   177.85461986
 C     14  13  12     5.764089607215   164.51507311   312.20821879
 C     29  14  13     1.435600919476   106.58649366   178.76395472
 C     30  14  13     2.413316804732    27.10625047    82.12560436
 C     32  30  14     1.403734305344    87.90059683   149.76154742
 C     33  32  30     1.380694028378   120.14881443   359.74174632
 C     34  33  32     2.448777858443   152.49203239     2.45173620
 C     31  29  14     1.368160809262   108.16950133     0.70383075
 C     14  13  12     1.376239804685   169.26375223   353.09862627
 C     30  14  13     1.380907310430    14.68948582   353.70041132
 N     34  33  32     1.352658863128   120.85575621     0.19603406
 C     37  14  29     1.404717053360   126.01551127   180.90772073
 C     15  14  13     1.366491126938    81.61824056   183.09049352
 C      2   1   3     4.249062720177   142.35503969   159.28114443
 C     41  15  14     1.459677704153   111.05201287   175.08990246
 C     42   2   1     2.412953791518    41.78584867   200.35699129
 C     44  42   2     1.403446472082    87.95153797   233.97558675
 C     45  44  42     1.381696421071   120.11137308     0.19721020
 C     42   2   1     2.450019795838   135.97209175   110.67184039
 C     43  41  15     1.354461516618   106.26758155     0.30894352
 C     15  14  13     1.367461151185   171.87382904   332.35056460
 C     42   2   1     1.381886391857    32.59078432   249.21227048
 C      9   2   1     1.404988612053   126.98745415   167.73640407
 N     42   2   1     1.352765315936   113.57249190   138.40842959
 H      1   2   3     1.084093630643   113.90452218   202.85371265
 H      2   1   3     1.079907866440   115.01286004   200.63151714
 H      4   3   1     1.083380357954   121.02001346   179.57099928
 H      5   4   3     1.082037892128   122.83040265   179.43232689
 H      6   5   4     1.092535582945   104.46790374   100.03670036
 H      6   5   4     1.090407721910    84.69774691   209.45512495
 H      6   5   4     1.089717853391   133.90165134   322.25466314
 H      7   2   1     1.079807853278   126.66122480   315.95030352
 H     10   1   2     1.083970940570   118.77772118   274.56114055
 H     12   9   2     1.016297692608   125.29023241   180.00180175
 H     14  13  12     1.014936943854    44.97226959   359.42596618
 H     18  14  13     1.082871645210   128.03556573   234.20482432
 H     19  17  13     1.080893611786   126.41830519   178.11313280
 H     21  20  18     1.083569563987   121.05669627   180.67006309
 H     22  21  20     1.082483256222   122.73097286   180.59748951
 H     23  18  14     1.092105306278   103.92715769   234.93429879
 H     23  18  14     1.088871893291   134.19244188    12.25587044
 H     23  18  14     1.089833473518    84.85857450   125.45241208
 H     24  19  17     1.080075460327   127.28078426   178.44613241
 H     26  18  14     1.083408048706   118.76995697   244.94906660
 H     30  14  13     1.082703098730   127.99711412   279.66882698
 H     31  29  14     1.079759695488   125.22293469   180.92530585
 H     33  32  30     1.083188810873   121.01964473   180.74284758
 H     34  33  32     1.082494341787   122.70821597   180.59516895
 H     35  34  33     1.092652735319   105.73575241    97.19771933
 H     35  34  33     1.089462711615    84.05943581   206.43036958
 H     35  34  33     1.089268102902   133.08365142   318.50306270
 H     36  31  29     1.079439669458   126.61599965   178.98859863
 H     38  30  73     1.083742127999   118.77264435   359.90091293
 H     42   2   1     1.082178358682   119.31790784   355.03996004
 H     43  41  15     1.080281907652   126.36969097   182.06329380
 H     45  44  42     1.083277434455   121.10105945   179.58025624
 H     46  45  44     1.082194529648   122.72144639   179.46906377
 H     47  42   2     1.091546151109   106.65128841   315.16475048
 H     47  42   2     1.088818625851   132.46019523    94.52397119
 H     47  42   2     1.089531091801    83.63838232   206.04504406
 H     48  43  41     1.080402239909   127.23657387   181.62955349
 H     50  42   2     1.083186502870   118.77001737    94.71359229

---------------------------
INTERNAL COORDINATES (A.U.)
---------------------------
 C      0   0   0     0.000000000000     0.00000000     0.00000000
 C      1   0   0    10.517397744183     0.00000000     0.00000000
 C      1   2   0     4.560009794028    46.43467366     0.00000000
 C      3   1   2     2.652524641123    87.90319497   127.77386763
 C      4   3   1     2.608584690588   120.15833380     0.09782395
 C      5   4   3     4.624793061532   152.50864636     1.73385347
 C      2   1   3     2.585360837309    15.56403573   341.55213487
 C      7   2   1     2.710026725231   108.05010202   135.71188974
 C      2   1   3     2.710100516721   118.77494279    31.59653247
 C      1   2   3     2.611121520818    35.14892403   316.10662700
 N      1   2   3     2.554619688364   116.80774620    62.39960675
 N      9   2   1     2.600503484979   106.58526707   346.73206654
 N     12   9   2     5.527566200405   168.53581413   171.12065651
 N     13  12   9     5.583221047236    91.55032014    11.12112580
 N     14  13  12     5.528150518591    88.43092389   359.84326247
 C      8   7   2     2.654668413270   127.24786865   181.11170171
 C     13  12   9     2.582376967257    81.72106996   188.00453233
 C     14  13  12    10.882574804710    80.56209567   166.76250791
 C     17  13  12     2.757130505230   111.08861209   183.82872609
 C     18  14  13     4.558465206823    27.27532823    36.33507194
 C     20  18  14     2.650705180609    87.95206320   148.94598259
 C     21  20  18     2.611803198586   120.14573887   359.70382047
 C     18  14  13     4.623235745386   144.15733107    82.80075377
 C     19  17  13     2.557953565794   106.29293361   359.75308708
 C     13  12   9     2.582903091751   172.21332906    33.46711076
 C     18  14  13     2.609636529225    15.08449437   309.23336894
 N     22  21  20     2.556370638369   120.73759875     0.27865223
 C     25  13  17     2.666210041769   125.60330303   182.37774668
 C     14  13  12     2.601476916169    80.24689249   177.85461986
 C     14  13  12    10.892550769017   164.51507311   312.20821879
 C     29  14  13     2.712892575415   106.58649366   178.76395472
 C     30  14  13     4.560507835333    27.10625047    82.12560436
 C     32  30  14     2.652673401891    87.90059683   149.76154742
 C     33  32  30     2.609133588376   120.14881443   359.74174632
 C     34  33  32     4.627519515267   152.49203239     2.45173620
 C     31  29  14     2.585449236669   108.16950133     0.70383075
 C     14  13  12     2.600716325456   169.26375223   353.09862627
 C     30  14  13     2.609536633043    14.68948582   353.70041132
 N     34  33  32     2.556154803934   120.85575621     0.19603406
 C     37  14  29     2.654530526499   126.01551127   180.90772073
 C     15  14  13     2.582293994346    81.61824056   183.09049352
 C      2   1   3     8.029564866989   142.35503969   159.28114443
 C     41  15  14     2.758391104639   111.05201287   175.08990246
 C     42   2   1     4.559821839776    41.78584867   200.35699129
 C     44  42   2     2.652129475853    87.95153797   233.97558675
 C     45  44  42     2.611027836043   120.11137308     0.19721020
 C     42   2   1     4.629866436820   135.97209175   110.67184039
 C     43  41  15     2.559561325344   106.26758155     0.30894352
 C     15  14  13     2.584127074516   171.87382904   332.35056460
 C     42   2   1     2.611386828803    32.59078432   249.21227048
 C      9   2   1     2.655043698059   126.98745415   167.73640407
 N     42   2   1     2.556355970587   113.57249190   138.40842959
 H      1   2   3     2.048640065443   113.90452218   202.85371265
 H      2   1   3     2.040730117440   115.01286004   200.63151714
 H      4   3   1     2.047292175402   121.02001346   179.57099928
 H      5   4   3     2.044755282647   122.83040265   179.43232689
 H      6   5   4     2.064593043329   104.46790374   100.03670036
 H      6   5   4     2.060571968722    84.69774691   209.45512495
 H      6   5   4     2.059268306154   133.90165134   322.25466314
 H      7   2   1     2.040541119952   126.66122480   315.95030352
 H     10   1   2     2.048408214806   118.77772118   274.56114055
 H     12   9   2     1.920524309565   125.29023241   180.00180175
 H     14  13  12     1.917952867083    44.97226959   359.42596618
 H     18  14  13     2.046330847636   128.03556573   234.20482432
 H     19  17  13     2.042592906181   126.41830519   178.11313280
 H     21  20  18     2.047649722989   121.05669627   180.67006309
 H     22  21  20     2.045596898814   122.73097286   180.59748951
 H     23  18  14     2.063779938267   103.92715769   234.93429879
 H     23  18  14     2.057669673245   134.19244188    12.25587044
 H     23  18  14     2.059486796529    84.85857450   125.45241208
 H     24  19  17     2.041046823986   127.28078426   178.44613241
 H     26  18  14     2.047344503340   118.76995697   244.94906660
 H     30  14  13     2.046012340948   127.99711412   279.66882698
 H     31  29  14     2.040450114918   125.22293469   180.92530585
 H     33  32  30     2.046930203877   121.01964473   180.74284758
 H     34  33  32     2.045617847496   122.70821597   180.59516895
 H     35  34  33     2.064814429233   105.73575241    97.19771933
 H     35  34  33     2.058786158072    84.05943581   206.43036958
 H     35  34  33     2.058418400901   133.08365142   318.50306270
 H     36  31  29     2.039845353366   126.61599965   178.98859863
 H     38  30  73     2.047975821711   118.77264435   359.90091293
 H     42   2   1     2.045020725966   119.31790784   355.03996004
 H     43  41  15     2.041436952892   126.36969097   182.06329380
 H     45  44  42     2.047097678177   121.10105945   179.58025624
 H     46  45  44     2.045051284662   122.72144639   179.46906377
 H     47  42   2     2.062723288131   106.65128841   315.16475048
 H     47  42   2     2.057569012371   132.46019523    94.52397119
 H     47  42   2     2.058915377895    83.63838232   206.04504406
 H     48  43  41     2.041664347903   127.23657387   181.62955349
 H     50  42   2     2.046925842384   118.77001737    94.71359229

---------------------
BASIS SET INFORMATION
---------------------
There are 3 groups of distinct atoms

 Group   1 Type C   : 17s4p1d contracted to 3s2p1d pattern {881/31/1}
 Group   2 Type N   : 17s4p1d contracted to 3s2p1d pattern {881/31/1}
 Group   3 Type H   : 4s1p contracted to 2s1p pattern {31/1}

Atom   0C    basis set group =>   1
Atom   1N    basis set group =>   2
Atom   2C    basis set group =>   1
Atom   3N    basis set group =>   2
Atom   4C    basis set group =>   1
Atom   5N    basis set group =>   2
Atom   6C    basis set group =>   1
Atom   7N    basis set group =>   2
Atom   8C    basis set group =>   1
Atom   9N    basis set group =>   2
Atom  10C    basis set group =>   1
Atom  11N    basis set group =>   2
Atom  12C    basis set group =>   1
Atom  13N    basis set group =>   2
Atom  14C    basis set group =>   1
Atom  15N    basis set group =>   2
Atom  16C    basis set group =>   1
Atom  17C    basis set group =>   1
Atom  18C    basis set group =>   1
Atom  19C    basis set group =>   1
Atom  20C    basis set group =>   1
Atom  21C    basis set group =>   1
Atom  22C    basis set group =>   1
Atom  23C    basis set group =>   1
Atom  24C    basis set group =>   1
Atom  25C    basis set group =>   1
Atom  26C    basis set group =>   1
Atom  27C    basis set group =>   1
Atom  28C    basis set group =>   1
Atom  29C    basis set group =>   1
Atom  30C    basis set group =>   1
Atom  31C    basis set group =>   1
Atom  32C    basis set group =>   1
Atom  33C    basis set group =>   1
Atom  34C    basis set group =>   1
Atom  35C    basis set group =>   1
Atom  36C    basis set group =>   1
Atom  37C    basis set group =>   1
Atom  38C    basis set group =>   1
Atom  39C    basis set group =>   1
Atom  40C    basis set group =>   1
Atom  41C    basis set group =>   1
Atom  42C    basis set group =>   1
Atom  43C    basis set group =>   1
Atom  44C    basis set group =>   1
Atom  45C    basis set group =>   1
Atom  46C    basis set group =>   1
Atom  47C    basis set group =>   1
Atom  48C    basis set group =>   1
Atom  49C    basis set group =>   1
Atom  50C    basis set group =>   1
Atom  51C    basis set group =>   1
Atom  52H    basis set group =>   3
Atom  53H    basis set group =>   3
Atom  54H    basis set group =>   3
Atom  55H    basis set group =>   3
Atom  56H    basis set group =>   3
Atom  57H    basis set group =>   3
Atom  58H    basis set group =>   3
Atom  59H    basis set group =>   3
Atom  60H    basis set group =>   3
Atom  61H    basis set group =>   3
Atom  62H    basis set group =>   3
Atom  63H    basis set group =>   3
Atom  64H    basis set group =>   3
Atom  65H    basis set group =>   3
Atom  66H    basis set group =>   3
Atom  67H    basis set group =>   3
Atom  68H    basis set group =>   3
Atom  69H    basis set group =>   3
Atom  70H    basis set group =>   3
Atom  71H    basis set group =>   3
Atom  72H    basis set group =>   3
Atom  73H    basis set group =>   3
Atom  74H    basis set group =>   3
Atom  75H    basis set group =>   3
Atom  76H    basis set group =>   3
Atom  77H    basis set group =>   3
Atom  78H    basis set group =>   3
Atom  79H    basis set group =>   3
Atom  80H    basis set group =>   3
Atom  81H    basis set group =>   3
Atom  82H    basis set group =>   3
Atom  83H    basis set group =>   3
Atom  84H    basis set group =>   3
Atom  85H    basis set group =>   3
Atom  86H    basis set group =>   3
Atom  87H    basis set group =>   3
Atom  88H    basis set group =>   3
Atom  89H    basis set group =>   3


           ************************************************************
           *        Program running with 16 parallel MPI-processes    *
           *              working on a common directory               *
           ************************************************************
------------------------------------------------------------------------------
                           ORCA GTO INTEGRAL CALCULATION
------------------------------------------------------------------------------
------------------------------------------------------------------------------
                   ___                                                        
                  /   \      - P O W E R E D   B Y -                         
                 /     \                                                     
                 |  |  |   _    _      __       _____    __    __             
                 |  |  |  | |  | |    /  \     |  _  \  |  |  /  |          
                  \  \/   | |  | |   /    \    | | | |  |  | /  /          
                 / \  \   | |__| |  /  /\  \   | |_| |  |  |/  /          
                |  |  |   |  __  | /  /__\  \  |    /   |      \           
                |  |  |   | |  | | |   __   |  |    \   |  |\   \          
                \     /   | |  | | |  |  |  |  | |\  \  |  | \   \       
                 \___/    |_|  |_| |__|  |__|  |_| \__\ |__|  \__/        
                                                                              
                      - O R C A' S   B I G   F R I E N D -                    
                                      &                                       
                       - I N T E G R A L  F E E D E R -                       
                                                                              
 v1 FN, 2020, v2 2021                                                         
------------------------------------------------------------------------------


Reading SHARK input file /scratch/allen/tmpyp4_amber_gaff2/conf1/conf1/Conf66.orca.SHARKINP.tmp ... ok
----------------------
SHARK INTEGRAL PACKAGE
----------------------

Number of atoms                             ...     90
Number of basis functions                   ...   1230
Number of shells                            ...    738
Maximum angular momentum                    ...      2
Integral batch strategy                     ... SHARK/LIBINT Hybrid
RI-J (if used) integral strategy            ... SPLIT-RIJ (Revised 2003 algorithm where possible)
Printlevel                                  ...      1
Contraction scheme used                     ... PARTIAL GENERAL contraction
Coulomb Range Separation                    ... NOT USED
Exchange Range Separation                   ... NOT USED
Finite Nucleus Model                        ... NOT USED
Auxiliary Coulomb fitting basis             ... NOT available
Auxiliary J/K fitting basis                 ... NOT available
Auxiliary Correlation fitting basis         ... NOT available
Auxiliary 'external' fitting basis          ... NOT available
Integral threshold                          ...     2.500000e-11
Primitive cut-off                           ...     2.500000e-12
Primitive pair pre-selection threshold      ...     2.500000e-12

Calculating pre-screening integrals         ... done (  0.1 sec) Dimension = 738
Calculating pre-screening integrals (ORCA)  ... done (  0.3 sec) Dimension = 426
Organizing shell pair data                  ... done (  0.5 sec)
Shell pair information
Total number of shell pairs                 ...    272691
Shell pairs after pre-screening             ...     71597
Total number of primitive shell pairs       ...    422091
Primitive shell pairs kept                  ...     92350
          la=0 lb=0:  29408 shell pairs
          la=1 lb=0:  25960 shell pairs
          la=1 lb=1:   4696 shell pairs
          la=2 lb=0:   7878 shell pairs
          la=2 lb=1:   3124 shell pairs
          la=2 lb=2:    531 shell pairs

Calculating one electron integrals          ... done (  0.2 sec)
Calculating Nuclear repulsion               ... done (  0.0 sec) ENN=   6224.008112759239 Eh

SHARK setup successfully completed in   1.7 seconds

Maximum memory used throughout the entire GTOINT-calculation: 99.0 MB


           ************************************************************
           *        Program running with 16 parallel MPI-processes    *
           *              working on a common directory               *
           ************************************************************
-------------------------------------------------------------------------------
                                 ORCA SCF
-------------------------------------------------------------------------------

------------
SCF SETTINGS
------------
Hamiltonian:
 Ab initio Hamiltonian  Method          .... Hartree-Fock(GTOs)


General Settings:
 Integral files         IntName         .... /scratch/allen/tmpyp4_amber_gaff2/conf1/conf1/Conf66.orca
 Hartree-Fock type      HFTyp           .... RHF
 Total Charge           Charge          ....    0
 Multiplicity           Mult            ....    1
 Number of Electrons    NEL             ....  358
 Basis Dimension        Dim             ....  918
 Nuclear Repulsion      ENuc            ....   6224.0081127592 Eh

Convergence Acceleration:
 DIIS                   CNVDIIS         .... on
   Start iteration      DIISMaxIt       ....    12
   Startup error        DIISStart       ....  0.200000
   # of expansion vecs  DIISMaxEq       ....     5
   Bias factor          DIISBfac        ....   1.050
   Max. coefficient     DIISMaxC        ....  10.000
 Trust-Rad. Augm. Hess. CNVTRAH         .... auto
   Auto Start mean grad. ratio tolernc. ....  1.125000
   Auto Start start iteration           ....    20
   Auto Start num. interpolation iter.  ....    10
   Max. Number of Micro iterations      ....    16
   Max. Number of Macro iterations      .... Maxiter - #DIIS iter
   Number of Davidson start vectors     ....     2
   Converg. threshold I  (grad. norm)   ....   1.000e-05
   Converg. threshold II (energy diff.) ....   1.000e-08
   Grad. Scal. Fac. for Micro threshold ....   0.100
   Minimum threshold for Micro iter.    ....   0.010
   NR start threshold (gradient norm)   ....   0.001
   Initial trust radius                 ....   0.400
   Minimum AH scaling param. (alpha)    ....   1.000
   Maximum AH scaling param. (alpha)    .... 1000.000
   Orbital update algorithm             .... Taylor
   White noise on init. David. guess    .... on
   Maximum white noise                  ....   0.010
   Quad. conv. algorithm                .... NR
 SOSCF                  CNVSOSCF        .... on
   Start iteration      SOSCFMaxIt      ....   150
   Startup grad/error   SOSCFStart      ....  0.003300
 Level Shifting         CNVShift        .... on
   Level shift para.    LevelShift      ....    0.2500
   Turn off err/grad.   ShiftErr        ....    0.0010
 Zerner damping         CNVZerner       .... off
 Static damping         CNVDamp         .... on
   Fraction old density DampFac         ....    0.7000
   Max. Damping (<1)    DampMax         ....    0.9800
   Min. Damping (>=0)   DampMin         ....    0.0000
   Turn off err/grad.   DampErr         ....    0.1000
 Fernandez-Rico         CNVRico         .... off

SCF Procedure:
 Maximum # iterations   MaxIter         ....   125
 SCF integral mode      SCFMode         .... Direct
   Integral package                     .... SHARK and LIBINT hybrid scheme
 Reset frequency        DirectResetFreq ....    20
 Integral Threshold     Thresh          ....  2.500e-11 Eh
 Primitive CutOff       TCut            ....  2.500e-12 Eh

Convergence Tolerance:
 Convergence Check Mode ConvCheckMode   .... Total+1el-Energy
 Convergence forced     ConvForced      .... 1
 Energy Change          TolE            ....  1.000e-08 Eh
 1-El. energy change                    ....  1.000e-05 Eh
 Orbital Gradient       TolG            ....  1.000e-05
 Orbital Rotation angle TolX            ....  1.000e-05
 DIIS Error             TolErr          ....  5.000e-07


Diagonalization of the overlap matrix:
Smallest eigenvalue                        ... 2.254e-04
Time for diagonalization                   ...    0.404 sec
Threshold for overlap eigenvalues          ... 1.000e-08
Number of eigenvalues below threshold      ... 0
Time for construction of square roots      ...    0.191 sec
Total time needed                          ...    0.600 sec

Time for model grid setup =    1.004 sec

------------------------------
INITIAL GUESS: MODEL POTENTIAL
------------------------------
Loading Hartree-Fock densities                     ... done
Calculating cut-offs                               ... done
Initializing the effective Hamiltonian             ... done
Setting up the integral package (SHARK)            ... done
Starting the Coulomb interaction                   ... done (   1.1 sec)
Reading the grid                                   ... done
Mapping shells                                     ... done
Starting the XC term evaluation                    ... done (   0.2 sec)
Transforming the Hamiltonian                       ... done (   0.2 sec)
Diagonalizing the Hamiltonian                      ... done (   0.3 sec)
Back transforming the eigenvectors                 ... done (   0.1 sec)
Now organizing SCF variables                       ... done
                      ------------------
                      INITIAL GUESS DONE (   2.9 sec)
                      ------------------
--------------
SCF ITERATIONS
--------------
ITER       Energy         Delta-E        Max-DP      RMS-DP      [F,P]     Damp
               ***  Starting incremental Fock matrix formation  ***
  0  -2121.6595735865   0.000000000000 0.06917717  0.00121269  0.2336486 0.7000
  1  -2122.3271494904  -0.667575903910 0.05251856  0.00098399  0.1444695 0.7000
                               ***Turning on DIIS***
  2  -2122.7419504320  -0.414800941635 0.11667462  0.00222701  0.0803061 0.0000
  3  -2117.6934790460   5.048471386008 0.03209306  0.00068883  0.0443639 0.0000
  4  -2123.4025209397  -5.709041893670 0.00884962  0.00023026  0.0069935 0.0000
  5  -2123.5851844475  -0.182663507801 0.00509117  0.00013745  0.0049535 0.0000
  6  -2123.5679142356   0.017270211845 0.00323393  0.00009067  0.0019947 0.0000
  7  -2123.6750591402  -0.107144904548 0.00274285  0.00007315  0.0014825 0.0000
  8  -2123.6993546628  -0.024295522655 0.00263356  0.00007052  0.0013683 0.0000
  9  -2123.6602809468   0.039073716069 0.00220724  0.00004885  0.0010708 0.0000
 10  -2123.6795752656  -0.019294318832 0.00492019  0.00010053  0.0008067 0.0000
                      *** Initiating the SOSCF procedure ***
                           *** Shutting down DIIS ***
                      *** Re-Reading the Fockian *** 
                      *** Removing any level shift *** 
ITER      Energy       Delta-E        Grad      Rot      Max-DP    RMS-DP
 11  -2123.54249487   0.1370803940  0.000363  0.000363  0.000283  0.000007
               *** Restarting incremental Fock matrix formation ***
 12  -2123.61864788  -0.0761530104  0.001082  0.007474  0.001240  0.000030
 13  -2123.61872917  -0.0000812885  0.001152  0.029076  0.004193  0.000094
 14  -2123.61882517  -0.0000959972  0.000451  0.003008  0.000448  0.000013
 15  -2123.61883755  -0.0000123776  0.000160  0.002087  0.000361  0.000009
 16  -2123.61884135  -0.0000038013  0.000105  0.002005  0.000475  0.000011
 17  -2123.61884430  -0.0000029544  0.000129  0.002638  0.000474  0.000010
 18  -2123.61884619  -0.0000018864  0.000072  0.002714  0.000379  0.000011
 19  -2123.61884789  -0.0000017038  0.000088  0.002412  0.000391  0.000009
 20  -2123.61884886  -0.0000009666  0.000050  0.001072  0.000199  0.000004
 21  -2123.61884916  -0.0000003001  0.000032  0.000680  0.000120  0.000003
 22  -2123.61884935  -0.0000001904  0.000033  0.000361  0.000083  0.000002
 23  -2123.61884946  -0.0000001149  0.000021  0.000317  0.000089  0.000001
 24  -2123.61884951  -0.0000000464  0.000007  0.000190  0.000029  0.000001
 25  -2123.61884952  -0.0000000147  0.000006  0.000179  0.000027  0.000001
 26  -2123.61884953  -0.0000000084  0.000005  0.000093  0.000018  0.000000
 27  -2123.61884953   0.0000000062  0.000003  0.000140  0.000025  0.000000
 28  -2123.61884952   0.0000000046  0.000003  0.000132  0.000020  0.000000
                  ***Gradient check signals convergence***
              ***Rediagonalizing the Fockian in SOSCF/NRSCF***

               *****************************************************
               *                     SUCCESS                       *
               *           SCF CONVERGED AFTER  29 CYCLES          *
               *****************************************************


----------------
TOTAL SCF ENERGY
----------------

Total Energy       :        -2123.61884952 Eh          -57786.60671 eV

Components:
Nuclear Repulsion  :         6224.00811276 Eh          169363.87104 eV
Electronic Energy  :        -8347.62696228 Eh         -227150.47775 eV
One Electron Energy:       -15289.28982872 Eh         -416042.72744 eV
Two Electron Energy:         6941.66286644 Eh          188892.24969 eV

Virial components:
Potential Energy   :        -4245.61092112 Eh         -115528.94654 eV
Kinetic Energy     :         2121.99207160 Eh           57742.33983 eV
Virial Ratio       :            2.00076663


---------------
SCF CONVERGENCE
---------------

  Last Energy change         ...    3.1414e-09  Tolerance :   1.0000e-08
  Last MAX-Density change    ...    1.1242e-05  Tolerance :   1.0000e-07
  Last RMS-Density change    ...    2.7861e-07  Tolerance :   5.0000e-09
  Last Orbital Gradient      ...    2.3322e-06  Tolerance :   1.0000e-05
  Last Orbital Rotation      ...    6.5182e-05  Tolerance :   1.0000e-05

             **** THE GBW FILE WAS UPDATED (/scratch/allen/tmpyp4_amber_gaff2/conf1/conf1/Conf66.orca.gbw) ****
             **** DENSITY /scratch/allen/tmpyp4_amber_gaff2/conf1/conf1/Conf66.orca.scfp WAS UPDATED ****
             **** ENERGY FILE WAS UPDATED (/scratch/allen/tmpyp4_amber_gaff2/conf1/conf1/Conf66.orca.en.tmp) ****
             **** THE GBW FILE WAS UPDATED (/scratch/allen/tmpyp4_amber_gaff2/conf1/conf1/Conf66.orca.gbw) ****
             **** DENSITY /scratch/allen/tmpyp4_amber_gaff2/conf1/conf1/Conf66.orca.scfp WAS UPDATED ****
----------------
ORBITAL ENERGIES
----------------

  NO   OCC          E(Eh)            E(eV) 
   0   2.0000     -15.647377      -425.7868 
   1   2.0000     -15.637948      -425.5302 
   2   2.0000     -15.628425      -425.2711 
   3   2.0000     -15.620810      -425.0639 
   4   2.0000     -15.517315      -422.2476 
   5   2.0000     -15.514611      -422.1740 
   6   2.0000     -15.445335      -420.2889 
   7   2.0000     -15.439542      -420.1313 
   8   2.0000     -11.307634      -307.6964 
   9   2.0000     -11.302025      -307.5437 
  10   2.0000     -11.301753      -307.5363 
  11   2.0000     -11.300471      -307.5015 
  12   2.0000     -11.295732      -307.3725 
  13   2.0000     -11.294092      -307.3279 
  14   2.0000     -11.292286      -307.2787 
  15   2.0000     -11.291209      -307.2494 
  16   2.0000     -11.286478      -307.1207 
  17   2.0000     -11.283930      -307.0513 
  18   2.0000     -11.280314      -306.9530 
  19   2.0000     -11.277839      -306.8856 
  20   2.0000     -11.250404      -306.1391 
  21   2.0000     -11.241194      -305.8884 
  22   2.0000     -11.239992      -305.8557 
  23   2.0000     -11.239530      -305.8431 
  24   2.0000     -11.233236      -305.6719 
  25   2.0000     -11.232655      -305.6561 
  26   2.0000     -11.232413      -305.6495 
  27   2.0000     -11.226339      -305.4842 
  28   2.0000     -11.226118      -305.4782 
  29   2.0000     -11.226066      -305.4768 
  30   2.0000     -11.220970      -305.3381 
  31   2.0000     -11.220125      -305.3151 
  32   2.0000     -11.198541      -304.7278 
  33   2.0000     -11.198140      -304.7169 
  34   2.0000     -11.194003      -304.6043 
  35   2.0000     -11.193772      -304.5980 
  36   2.0000     -11.176483      -304.1276 
  37   2.0000     -11.175936      -304.1127 
  38   2.0000     -11.173599      -304.0491 
  39   2.0000     -11.169191      -303.9292 
  40   2.0000     -11.166291      -303.8502 
  41   2.0000     -11.164765      -303.8087 
  42   2.0000     -11.164538      -303.8025 
  43   2.0000     -11.161915      -303.7312 
  44   2.0000     -11.158569      -303.6401 
  45   2.0000     -11.155817      -303.5652 
  46   2.0000     -11.153432      -303.5003 
  47   2.0000     -11.150391      -303.4176 
  48   2.0000     -11.148239      -303.3590 
  49   2.0000     -11.146664      -303.3161 
  50   2.0000     -11.136150      -303.0300 
  51   2.0000     -11.134422      -302.9830 
  52   2.0000      -1.332670       -36.2638 
  53   2.0000      -1.324564       -36.0432 
  54   2.0000      -1.316215       -35.8160 
  55   2.0000      -1.309962       -35.6459 
  56   2.0000      -1.216143       -33.0929 
  57   2.0000      -1.211812       -32.9751 
  58   2.0000      -1.163530       -31.6612 
  59   2.0000      -1.153261       -31.3818 
  60   2.0000      -1.119858       -30.4729 
  61   2.0000      -1.111889       -30.2560 
  62   2.0000      -1.105792       -30.0901 
  63   2.0000      -1.099070       -29.9072 
  64   2.0000      -1.056042       -28.7364 
  65   2.0000      -1.048356       -28.5272 
  66   2.0000      -1.040756       -28.3204 
  67   2.0000      -1.034993       -28.1636 
  68   2.0000      -1.026954       -27.9448 
  69   2.0000      -1.011343       -27.5200 
  70   2.0000      -1.007315       -27.4104 
  71   2.0000      -0.997164       -27.1342 
  72   2.0000      -0.980102       -26.6699 
  73   2.0000      -0.975605       -26.5476 
  74   2.0000      -0.968816       -26.3628 
  75   2.0000      -0.961434       -26.1620 
  76   2.0000      -0.950731       -25.8707 
  77   2.0000      -0.946103       -25.7448 
  78   2.0000      -0.935956       -25.4687 
  79   2.0000      -0.922808       -25.1109 
  80   2.0000      -0.892252       -24.2794 
  81   2.0000      -0.881754       -23.9938 
  82   2.0000      -0.875213       -23.8158 
  83   2.0000      -0.867907       -23.6170 
  84   2.0000      -0.862632       -23.4734 
  85   2.0000      -0.857239       -23.3267 
  86   2.0000      -0.851435       -23.1687 
  87   2.0000      -0.840358       -22.8673 
  88   2.0000      -0.822068       -22.3696 
  89   2.0000      -0.797582       -21.7033 
  90   2.0000      -0.797256       -21.6944 
  91   2.0000      -0.739292       -20.1172 
  92   2.0000      -0.730094       -19.8669 
  93   2.0000      -0.727207       -19.7883 
  94   2.0000      -0.722609       -19.6632 
  95   2.0000      -0.717274       -19.5180 
  96   2.0000      -0.710865       -19.3436 
  97   2.0000      -0.709362       -19.3027 
  98   2.0000      -0.697825       -18.9888 
  99   2.0000      -0.691033       -18.8040 
 100   2.0000      -0.686204       -18.6726 
 101   2.0000      -0.682053       -18.5596 
 102   2.0000      -0.679309       -18.4849 
 103   2.0000      -0.672203       -18.2916 
 104   2.0000      -0.668964       -18.2034 
 105   2.0000      -0.666095       -18.1254 
 106   2.0000      -0.663276       -18.0487 
 107   2.0000      -0.660276       -17.9670 
 108   2.0000      -0.658873       -17.9288 
 109   2.0000      -0.655567       -17.8389 
 110   2.0000      -0.651321       -17.7234 
 111   2.0000      -0.649043       -17.6614 
 112   2.0000      -0.647810       -17.6278 
 113   2.0000      -0.643441       -17.5089 
 114   2.0000      -0.633670       -17.2430 
 115   2.0000      -0.623555       -16.9678 
 116   2.0000      -0.622148       -16.9295 
 117   2.0000      -0.615386       -16.7455 
 118   2.0000      -0.611207       -16.6318 
 119   2.0000      -0.608467       -16.5572 
 120   2.0000      -0.607476       -16.5303 
 121   2.0000      -0.603103       -16.4113 
 122   2.0000      -0.601181       -16.3590 
 123   2.0000      -0.594272       -16.1710 
 124   2.0000      -0.589867       -16.0511 
 125   2.0000      -0.584070       -15.8933 
 126   2.0000      -0.578041       -15.7293 
 127   2.0000      -0.573208       -15.5978 
 128   2.0000      -0.569274       -15.4907 
 129   2.0000      -0.563771       -15.3410 
 130   2.0000      -0.553307       -15.0563 
 131   2.0000      -0.545262       -14.8373 
 132   2.0000      -0.540157       -14.6984 
 133   2.0000      -0.535074       -14.5601 
 134   2.0000      -0.532306       -14.4848 
 135   2.0000      -0.528895       -14.3920 
 136   2.0000      -0.524128       -14.2622 
 137   2.0000      -0.523547       -14.2464 
 138   2.0000      -0.519344       -14.1321 
 139   2.0000      -0.515058       -14.0154 
 140   2.0000      -0.509396       -13.8614 
 141   2.0000      -0.504796       -13.7362 
 142   2.0000      -0.503883       -13.7114 
 143   2.0000      -0.502353       -13.6697 
 144   2.0000      -0.498338       -13.5605 
 145   2.0000      -0.496345       -13.5062 
 146   2.0000      -0.495900       -13.4941 
 147   2.0000      -0.493800       -13.4370 
 148   2.0000      -0.489534       -13.3209 
 149   2.0000      -0.467616       -12.7245 
 150   2.0000      -0.460216       -12.5231 
 151   2.0000      -0.451701       -12.2914 
 152   2.0000      -0.446369       -12.1463 
 153   2.0000      -0.445767       -12.1299 
 154   2.0000      -0.443725       -12.0744 
 155   2.0000      -0.439667       -11.9640 
 156   2.0000      -0.434486       -11.8230 
 157   2.0000      -0.428750       -11.6669 
 158   2.0000      -0.392329       -10.6758 
 159   2.0000      -0.380454       -10.3527 
 160   2.0000      -0.376100       -10.2342 
 161   2.0000      -0.372028       -10.1234 
 162   2.0000      -0.365073        -9.9341 
 163   2.0000      -0.358834        -9.7644 
 164   2.0000      -0.352414        -9.5897 
 165   2.0000      -0.347645        -9.4599 
 166   2.0000      -0.337805        -9.1921 
 167   2.0000      -0.333201        -9.0669 
 168   2.0000      -0.325774        -8.8648 
 169   2.0000      -0.300128        -8.1669 
 170   2.0000      -0.293298        -7.9810 
 171   2.0000      -0.288970        -7.8633 
 172   2.0000      -0.286923        -7.8076 
 173   2.0000      -0.256762        -6.9869 
 174   2.0000      -0.245187        -6.6719 
 175   2.0000      -0.186923        -5.0864 
 176   2.0000      -0.176709        -4.8085 
 177   2.0000      -0.064196        -1.7469 
 178   2.0000      -0.052817        -1.4372 
 179   0.0000       0.032393         0.8815 
 180   0.0000       0.069270         1.8849 
 181   0.0000       0.092281         2.5111 
 182   0.0000       0.095428         2.5967 
 183   0.0000       0.128588         3.4991 
 184   0.0000       0.135249         3.6803 
 185   0.0000       0.142115         3.8671 
 186   0.0000       0.147523         4.0143 
 187   0.0000       0.158146         4.3034 
 188   0.0000       0.161099         4.3837 
 189   0.0000       0.163133         4.4391 
 190   0.0000       0.168110         4.5745 
 191   0.0000       0.171997         4.6803 
 192   0.0000       0.197651         5.3784 
 193   0.0000       0.201272         5.4769 
 194   0.0000       0.202642         5.5142 
 195   0.0000       0.206860         5.6289 
 196   0.0000       0.207954         5.6587 
 197   0.0000       0.211582         5.7575 
 198   0.0000       0.212290         5.7767 
 199   0.0000       0.215443         5.8625 
 200   0.0000       0.232921         6.3381 
 201   0.0000       0.237676         6.4675 
 202   0.0000       0.242314         6.5937 
 203   0.0000       0.246011         6.6943 
 204   0.0000       0.249825         6.7981 
 205   0.0000       0.254764         6.9325 
 206   0.0000       0.257536         7.0079 
 207   0.0000       0.260889         7.0991 
 208   0.0000       0.263086         7.1589 
 209   0.0000       0.265331         7.2200 
 210   0.0000       0.266847         7.2613 
 211   0.0000       0.268556         7.3078 
 212   0.0000       0.272875         7.4253 
 213   0.0000       0.274912         7.4807 
 214   0.0000       0.278038         7.5658 
 215   0.0000       0.280625         7.6362 
 216   0.0000       0.281774         7.6675 
 217   0.0000       0.282828         7.6961 
 218   0.0000       0.286095         7.7850 
 219   0.0000       0.288072         7.8388 
 220   0.0000       0.290618         7.9081 
 221   0.0000       0.290862         7.9148 
 222   0.0000       0.294083         8.0024 
 223   0.0000       0.295137         8.0311 
 224   0.0000       0.299736         8.1562 
 225   0.0000       0.301708         8.2099 
 226   0.0000       0.302252         8.2247 
 227   0.0000       0.304470         8.2850 
 228   0.0000       0.305757         8.3201 
 229   0.0000       0.308946         8.4068 
 230   0.0000       0.314743         8.5646 
 231   0.0000       0.317260         8.6331 
 232   0.0000       0.326580         8.8867 
 233   0.0000       0.327288         8.9060 
 234   0.0000       0.332016         9.0346 
 235   0.0000       0.337831         9.1928 
 236   0.0000       0.357331         9.7235 
 237   0.0000       0.384541        10.4639 
 238   0.0000       0.396443        10.7878 
 239   0.0000       0.400356        10.8942 
 240   0.0000       0.404453        11.0057 
 241   0.0000       0.410063        11.1584 
 242   0.0000       0.419664        11.4196 
 243   0.0000       0.425060        11.5665 
 244   0.0000       0.430718        11.7204 
 245   0.0000       0.431319        11.7368 
 246   0.0000       0.433894        11.8069 
 247   0.0000       0.438669        11.9368 
 248   0.0000       0.440266        11.9803 
 249   0.0000       0.444403        12.0928 
 250   0.0000       0.446122        12.1396 
 251   0.0000       0.449707        12.2371 
 252   0.0000       0.454729        12.3738 
 253   0.0000       0.465880        12.6772 
 254   0.0000       0.470498        12.8029 
 255   0.0000       0.476370        12.9627 
 256   0.0000       0.480518        13.0756 
 257   0.0000       0.486768        13.2456 
 258   0.0000       0.489432        13.3181 
 259   0.0000       0.497997        13.5512 
 260   0.0000       0.499038        13.5795 
 261   0.0000       0.504554        13.7296 
 262   0.0000       0.506312        13.7774 
 263   0.0000       0.510709        13.8971 
 264   0.0000       0.512541        13.9470 
 265   0.0000       0.515742        14.0341 
 266   0.0000       0.516241        14.0476 
 267   0.0000       0.522034        14.2053 
 268   0.0000       0.536106        14.5882 
 269   0.0000       0.538905        14.6644 
 270   0.0000       0.541229        14.7276 
 271   0.0000       0.544569        14.8185 
 272   0.0000       0.549277        14.9466 
 273   0.0000       0.551773        15.0145 
 274   0.0000       0.562264        15.3000 
 275   0.0000       0.562582        15.3086 
 276   0.0000       0.573331        15.6011 
 277   0.0000       0.574723        15.6390 
 278   0.0000       0.581981        15.8365 
 279   0.0000       0.585293        15.9266 
 280   0.0000       0.589629        16.0446 
 281   0.0000       0.591444        16.0940 
 282   0.0000       0.593435        16.1482 
 283   0.0000       0.596379        16.2283 
 284   0.0000       0.600283        16.3345 
 285   0.0000       0.601581        16.3698 
 286   0.0000       0.606491        16.5035 
 287   0.0000       0.607698        16.5363 
 288   0.0000       0.610645        16.6165 
 289   0.0000       0.615303        16.7432 
 290   0.0000       0.615606        16.7515 
 291   0.0000       0.628018        17.0892 
 292   0.0000       0.636469        17.3192 
 293   0.0000       0.640908        17.4400 
 294   0.0000       0.647321        17.6145 
 295   0.0000       0.647933        17.6311 
 296   0.0000       0.654517        17.8103 
 297   0.0000       0.658932        17.9305 
 298   0.0000       0.663276        18.0487 
 299   0.0000       0.664904        18.0930 
 300   0.0000       0.669498        18.2180 
 301   0.0000       0.672978        18.3127 
 302   0.0000       0.674285        18.3482 
 303   0.0000       0.681349        18.5404 
 304   0.0000       0.683156        18.5896 
 305   0.0000       0.685555        18.6549 
 306   0.0000       0.689978        18.7753 
 307   0.0000       0.693823        18.8799 
 308   0.0000       0.699683        19.0393 
 309   0.0000       0.701791        19.0967 
 310   0.0000       0.703246        19.1363 
 311   0.0000       0.705963        19.2102 
 312   0.0000       0.707520        19.2526 
 313   0.0000       0.709366        19.3028 
 314   0.0000       0.710532        19.3345 
 315   0.0000       0.715068        19.4580 
 316   0.0000       0.716836        19.5061 
 317   0.0000       0.717741        19.5307 
 318   0.0000       0.718690        19.5566 
 319   0.0000       0.722019        19.6471 
 320   0.0000       0.725162        19.7327 
 321   0.0000       0.727158        19.7870 
 322   0.0000       0.731715        19.9110 
 323   0.0000       0.734796        19.9948 
 324   0.0000       0.738857        20.1053 
 325   0.0000       0.741997        20.1908 
 326   0.0000       0.742833        20.2135 
 327   0.0000       0.745270        20.2798 
 328   0.0000       0.747800        20.3487 
 329   0.0000       0.750318        20.4172 
 330   0.0000       0.752508        20.4768 
 331   0.0000       0.755979        20.5712 
 332   0.0000       0.756932        20.5972 
 333   0.0000       0.759741        20.6736 
 334   0.0000       0.764418        20.8009 
 335   0.0000       0.767809        20.8931 
 336   0.0000       0.770959        20.9788 
 337   0.0000       0.779110        21.2006 
 338   0.0000       0.784699        21.3528 
 339   0.0000       0.789271        21.4772 
 340   0.0000       0.790571        21.5125 
 341   0.0000       0.792872        21.5751 
 342   0.0000       0.795421        21.6445 
 343   0.0000       0.799599        21.7582 
 344   0.0000       0.804343        21.8873 
 345   0.0000       0.805224        21.9113 
 346   0.0000       0.807306        21.9679 
 347   0.0000       0.810272        22.0486 
 348   0.0000       0.816297        22.2126 
 349   0.0000       0.817544        22.2465 
 350   0.0000       0.820301        22.3215 
 351   0.0000       0.824105        22.4250 
 352   0.0000       0.825287        22.4572 
 353   0.0000       0.826513        22.4906 
 354   0.0000       0.831368        22.6227 
 355   0.0000       0.832922        22.6650 
 356   0.0000       0.833624        22.6841 
 357   0.0000       0.834553        22.7093 
 358   0.0000       0.836793        22.7703 
 359   0.0000       0.838645        22.8207 
 360   0.0000       0.840102        22.8603 
 361   0.0000       0.844573        22.9820 
 362   0.0000       0.845682        23.0122 
 363   0.0000       0.846907        23.0455 
 364   0.0000       0.848309        23.0837 
 365   0.0000       0.850213        23.1355 
 366   0.0000       0.851680        23.1754 
 367   0.0000       0.852263        23.1913 
 368   0.0000       0.855152        23.2699 
 369   0.0000       0.857101        23.3229 
 370   0.0000       0.863497        23.4969 
 371   0.0000       0.866526        23.5794 
 372   0.0000       0.870513        23.6879 
 373   0.0000       0.875812        23.8321 
 374   0.0000       0.879899        23.9433 
 375   0.0000       0.883081        24.0299 
 376   0.0000       0.883597        24.0439 
 377   0.0000       0.891409        24.2565 
 378   0.0000       0.891643        24.2629 
 379   0.0000       0.892531        24.2870 
 380   0.0000       0.896094        24.3839 
 381   0.0000       0.900370        24.5003 
 382   0.0000       0.903686        24.5905 
 383   0.0000       0.904581        24.6149 
 384   0.0000       0.906304        24.6618 
 385   0.0000       0.907944        24.7064 
 386   0.0000       0.908780        24.7292 
 387   0.0000       0.911094        24.7921 
 388   0.0000       0.911698        24.8086 
 389   0.0000       0.913375        24.8542 
 390   0.0000       0.917421        24.9643 
 391   0.0000       0.922350        25.0984 
 392   0.0000       0.923354        25.1258 
 393   0.0000       0.924733        25.1633 
 394   0.0000       0.929678        25.2978 
 395   0.0000       0.930236        25.3130 
 396   0.0000       0.933317        25.3969 
 397   0.0000       0.935276        25.4502 
 398   0.0000       0.937798        25.5188 
 399   0.0000       0.942718        25.6526 
 400   0.0000       0.944771        25.7085 
 401   0.0000       0.945667        25.7329 
 402   0.0000       0.947559        25.7844 
 403   0.0000       0.949650        25.8413 
 404   0.0000       0.953851        25.9556 
 405   0.0000       0.955721        26.0065 
 406   0.0000       0.959185        26.1007 
 407   0.0000       0.963948        26.2304 
 408   0.0000       0.968868        26.3642 
 409   0.0000       0.972709        26.4688 
 410   0.0000       0.974680        26.5224 
 411   0.0000       0.977549        26.6005 
 412   0.0000       0.981077        26.6965 
 413   0.0000       0.989850        26.9352 
 414   0.0000       0.991276        26.9740 
 415   0.0000       0.991658        26.9844 
 416   0.0000       0.994519        27.0622 
 417   0.0000       1.005035        27.3484 
 418   0.0000       1.005878        27.3713 
 419   0.0000       1.012432        27.5497 
 420   0.0000       1.024746        27.8847 
 421   0.0000       1.029706        28.0197 
 422   0.0000       1.033207        28.1150 
 423   0.0000       1.035712        28.1832 
 424   0.0000       1.039701        28.2917 
 425   0.0000       1.046595        28.4793 
 426   0.0000       1.054295        28.6888 
 427   0.0000       1.065450        28.9924 
 428   0.0000       1.071696        29.1623 
 429   0.0000       1.073445        29.2099 
 430   0.0000       1.074791        29.2465 
 431   0.0000       1.082851        29.4659 
 432   0.0000       1.083571        29.4855 
 433   0.0000       1.090394        29.6711 
 434   0.0000       1.093165        29.7465 
 435   0.0000       1.101102        29.9625 
 436   0.0000       1.109617        30.1942 
 437   0.0000       1.113096        30.2889 
 438   0.0000       1.116213        30.3737 
 439   0.0000       1.118136        30.4260 
 440   0.0000       1.121856        30.5272 
 441   0.0000       1.125579        30.6286 
 442   0.0000       1.127258        30.6742 
 443   0.0000       1.133308        30.8389 
 444   0.0000       1.134645        30.8753 
 445   0.0000       1.136071        30.9141 
 446   0.0000       1.139031        30.9946 
 447   0.0000       1.140874        31.0447 
 448   0.0000       1.142658        31.0933 
 449   0.0000       1.148378        31.2489 
 450   0.0000       1.149293        31.2738 
 451   0.0000       1.151820        31.3426 
 452   0.0000       1.152198        31.3529 
 453   0.0000       1.160524        31.5795 
 454   0.0000       1.162208        31.6253 
 455   0.0000       1.164922        31.6991 
 456   0.0000       1.173321        31.9277 
 457   0.0000       1.179165        32.0867 
 458   0.0000       1.180830        32.1320 
 459   0.0000       1.183964        32.2173 
 460   0.0000       1.189615        32.3711 
 461   0.0000       1.193933        32.4886 
 462   0.0000       1.197362        32.5819 
 463   0.0000       1.206319        32.8256 
 464   0.0000       1.208778        32.8925 
 465   0.0000       1.211605        32.9695 
 466   0.0000       1.212852        33.0034 
 467   0.0000       1.219971        33.1971 
 468   0.0000       1.223370        33.2896 
 469   0.0000       1.227855        33.4116 
 470   0.0000       1.233272        33.5590 
 471   0.0000       1.234872        33.6026 
 472   0.0000       1.238145        33.6916 
 473   0.0000       1.239472        33.7278 
 474   0.0000       1.241307        33.7777 
 475   0.0000       1.247236        33.9390 
 476   0.0000       1.249714        34.0064 
 477   0.0000       1.250800        34.0360 
 478   0.0000       1.253840        34.1187 
 479   0.0000       1.257032        34.2056 
 480   0.0000       1.261449        34.3258 
 481   0.0000       1.264426        34.4068 
 482   0.0000       1.267577        34.4925 
 483   0.0000       1.270437        34.5704 
 484   0.0000       1.274086        34.6696 
 485   0.0000       1.279036        34.8043 
 486   0.0000       1.281846        34.8808 
 487   0.0000       1.283411        34.9234 
 488   0.0000       1.289767        35.0964 
 489   0.0000       1.290125        35.1061 
 490   0.0000       1.291885        35.1540 
 491   0.0000       1.297054        35.2946 
 492   0.0000       1.298729        35.3402 
 493   0.0000       1.307860        35.5887 
 494   0.0000       1.313039        35.7296 
 495   0.0000       1.315218        35.7889 
 496   0.0000       1.321644        35.9638 
 497   0.0000       1.322842        35.9964 
 498   0.0000       1.327562        36.1248 
 499   0.0000       1.330389        36.2017 
 500   0.0000       1.333879        36.2967 
 501   0.0000       1.340478        36.4763 
 502   0.0000       1.341839        36.5133 
 503   0.0000       1.342567        36.5331 
 504   0.0000       1.346669        36.6447 
 505   0.0000       1.351786        36.7840 
 506   0.0000       1.353873        36.8407 
 507   0.0000       1.357754        36.9464 
[...]
      pz      :     0.021902  p :     0.079462
      px      :     0.043142
      py      :     0.014417
 77 H s       :     0.891301  s :     0.891301
      pz      :     0.047451  p :     0.078698
      px      :     0.015008
      py      :     0.016238
 78 H s       :     0.891671  s :     0.891671
      pz      :     0.025616  p :     0.078632
      px      :     0.020608
      py      :     0.032407
 79 H s       :     0.908562  s :     0.908562
      pz      :     0.022280  p :     0.086884
      px      :     0.021817
      py      :     0.042788
 80 H s       :     0.873763  s :     0.873763
      pz      :     0.038624  p :     0.083776
      px      :     0.029757
      py      :     0.015395
 81 H s       :     0.887362  s :     0.887362
      pz      :     0.037710  p :     0.083688
      px      :     0.016103
      py      :     0.029874
 82 H s       :     0.914531  s :     0.914531
      pz      :     0.022189  p :     0.086957
      px      :     0.031231
      py      :     0.033537
 83 H s       :     0.872041  s :     0.872041
      pz      :     0.039271  p :     0.083920
      px      :     0.015238
      py      :     0.029410
 84 H s       :     0.887168  s :     0.887168
      pz      :     0.035826  p :     0.083939
      px      :     0.031767
      py      :     0.016345
 85 H s       :     0.893991  s :     0.893991
      pz      :     0.022512  p :     0.079712
      px      :     0.014093
      py      :     0.043107
 86 H s       :     0.890450  s :     0.890450
      pz      :     0.024728  p :     0.078897
      px      :     0.033016
      py      :     0.021153
 87 H s       :     0.890276  s :     0.890276
      pz      :     0.047935  p :     0.078691
      px      :     0.015625
      py      :     0.015131
 88 H s       :     0.915291  s :     0.915291
      pz      :     0.022164  p :     0.086883
      px      :     0.042368
      py      :     0.022351
 89 H s       :     0.873019  s :     0.873019
      pz      :     0.037887  p :     0.083962
      px      :     0.030510
      py      :     0.015565


                      *****************************
                      * MAYER POPULATION ANALYSIS *
                      *****************************

  NA   - Mulliken gross atomic population
  ZA   - Total nuclear charge
  QA   - Mulliken gross atomic charge
  VA   - Mayer's total valence
  BVA  - Mayer's bonded valence
  FA   - Mayer's free valence

  ATOM       NA         ZA         QA         VA         BVA        FA
  0 C      5.7871     6.0000     0.2129     3.8223     3.8223    -0.0000
  1 N      7.4356     7.0000    -0.4356     3.3940     3.3940    -0.0000
  2 C      6.0650     6.0000    -0.0650     3.9180     3.9180    -0.0000
  3 N      7.3388     7.0000    -0.3388     3.4388     3.4388     0.0000
  4 C      6.0711     6.0000    -0.0711     3.9797     3.9797     0.0000
  5 N      7.5644     7.0000    -0.5644     3.0798     3.0798    -0.0000
  6 C      6.0524     6.0000    -0.0524     3.9860     3.9860     0.0000
  7 N      7.3374     7.0000    -0.3374     3.4434     3.4434    -0.0000
  8 C      5.7884     6.0000     0.2116     3.8224     3.8224    -0.0000
  9 N      7.5640     7.0000    -0.5640     3.0858     3.0858    -0.0000
 10 C      5.8881     6.0000     0.1119     3.8868     3.8868     0.0000
 11 N      7.4377     7.0000    -0.4377     3.3833     3.3833     0.0000
 12 C      6.0671     6.0000    -0.0671     3.9151     3.9151    -0.0000
 13 N      7.4429     7.0000    -0.4429     3.3628     3.3628     0.0000
 14 C      5.7618     6.0000     0.2382     3.7956     3.7956    -0.0000
 15 N      7.4405     7.0000    -0.4405     3.3720     3.3720    -0.0000
 16 C      5.7609     6.0000     0.2391     3.7966     3.7966    -0.0000
 17 C      6.0572     6.0000    -0.0572     3.9886     3.9886    -0.0000
 18 C      6.2071     6.0000    -0.2071     3.7351     3.7351     0.0000
 19 C      5.7604     6.0000     0.2396     3.8772     3.8772     0.0000
 20 C      5.7962     6.0000     0.2038     3.8240     3.8240     0.0000
 21 C      6.0796     6.0000    -0.0796     3.9042     3.9042     0.0000
 22 C      6.0865     6.0000    -0.0865     3.9847     3.9847     0.0000
 23 C      6.0532     6.0000    -0.0532     3.9892     3.9892    -0.0000
 24 C      5.7905     6.0000     0.2095     3.8248     3.8248    -0.0000
 25 C      5.8861     6.0000     0.1139     3.8903     3.8903     0.0000
 26 C      6.0710     6.0000    -0.0710     3.9067     3.9067    -0.0000
 27 C      5.7702     6.0000     0.2298     3.8903     3.8903    -0.0000
 28 C      6.0490     6.0000    -0.0490     3.9878     3.9878     0.0000
 29 C      6.1894     6.0000    -0.1894     3.7310     3.7310    -0.0000
 30 C      5.7681     6.0000     0.2319     3.7905     3.7905    -0.0000
 31 C      5.7960     6.0000     0.2040     3.8289     3.8289    -0.0000
 32 C      6.0664     6.0000    -0.0664     3.9155     3.9155     0.0000
 33 C      6.0872     6.0000    -0.0872     3.9857     3.9857     0.0000
 34 C      6.0510     6.0000    -0.0510     3.9940     3.9940     0.0000
 35 C      5.8021     6.0000     0.1979     3.8269     3.8269     0.0000
 36 C      5.8840     6.0000     0.1160     3.8967     3.8967     0.0000
 37 C      6.0678     6.0000    -0.0678     3.9170     3.9170     0.0000
 38 C      5.7619     6.0000     0.2381     3.7973     3.7973    -0.0000
 39 C      6.0618     6.0000    -0.0618     3.9934     3.9934    -0.0000
 40 C      6.1937     6.0000    -0.1937     3.7442     3.7442     0.0000
 41 C      5.7793     6.0000     0.2207     3.8800     3.8800     0.0000
 42 C      5.7935     6.0000     0.2065     3.8286     3.8286    -0.0000
 43 C      6.0741     6.0000    -0.0741     3.9042     3.9042    -0.0000
 44 C      6.0886     6.0000    -0.0886     3.9846     3.9846    -0.0000
 45 C      6.0486     6.0000    -0.0486     3.9936     3.9936     0.0000
 46 C      5.8006     6.0000     0.1994     3.8240     3.8240     0.0000
 47 C      5.8844     6.0000     0.1156     3.8938     3.8938     0.0000
 48 C      6.0761     6.0000    -0.0761     3.9022     3.9022     0.0000
 49 C      5.7783     6.0000     0.2217     3.8788     3.8788    -0.0000
 50 C      6.0564     6.0000    -0.0564     3.9899     3.9899    -0.0000
 51 C      6.1886     6.0000    -0.1886     3.7375     3.7375    -0.0000
 52 H      0.9389     1.0000     0.0611     0.9843     0.9843     0.0000
 53 H      1.0126     1.0000    -0.0126     0.9997     0.9997    -0.0000
 54 H      0.9477     1.0000     0.0523     1.0083     1.0083     0.0000
 55 H      0.9405     1.0000     0.0595     0.9855     0.9855    -0.0000
 56 H      0.9349     1.0000     0.0651     0.9719     0.9719     0.0000
 57 H      0.9385     1.0000     0.0615     0.9843     0.9843     0.0000
 58 H      0.9401     1.0000     0.0599     0.9857     0.9857     0.0000
 59 H      1.0166     1.0000    -0.0166     0.9982     0.9982    -0.0000
 60 H      0.9504     1.0000     0.0496     1.0072     1.0072    -0.0000
 61 H      0.8259     1.0000     0.1741     1.0429     1.0429    -0.0000
 62 H      0.8286     1.0000     0.1714     1.0434     1.0434    -0.0000
 63 H      0.9439     1.0000     0.0561     0.9856     0.9856     0.0000
 64 H      1.0231     1.0000    -0.0231     0.9950     0.9950     0.0000
 65 H      0.9537     1.0000     0.0463     1.0086     1.0086    -0.0000
 66 H      0.9424     1.0000     0.0576     0.9848     0.9848     0.0000
 67 H      0.9380     1.0000     0.0620     0.9719     0.9719     0.0000
 68 H      0.9420     1.0000     0.0580     0.9867     0.9867     0.0000
 69 H      0.9408     1.0000     0.0592     0.9830     0.9830     0.0000
 70 H      1.0223     1.0000    -0.0223     0.9952     0.9952    -0.0000
 71 H      0.9520     1.0000     0.0480     1.0069     1.0069     0.0000
 72 H      0.9488     1.0000     0.0512     0.9854     0.9854    -0.0000
 73 H      1.0163     1.0000    -0.0163     0.9979     0.9979    -0.0000
 74 H      0.9581     1.0000     0.0419     1.0096     1.0096    -0.0000
 75 H      0.9497     1.0000     0.0503     0.9859     0.9859     0.0000
 76 H      0.9424     1.0000     0.0576     0.9712     0.9712     0.0000
 77 H      0.9452     1.0000     0.0548     0.9849     0.9849    -0.0000
 78 H      0.9459     1.0000     0.0541     0.9844     0.9844     0.0000
 79 H      1.0135     1.0000    -0.0135     1.0000     1.0000    -0.0000
 80 H      0.9577     1.0000     0.0423     1.0069     1.0069    -0.0000
 81 H      0.9468     1.0000     0.0532     0.9853     0.9853     0.0000
 82 H      1.0228     1.0000    -0.0228     0.9947     0.9947    -0.0000
 83 H      0.9562     1.0000     0.0438     1.0097     1.0097    -0.0000
 84 H      0.9470     1.0000     0.0530     0.9857     0.9857     0.0000
 85 H      0.9415     1.0000     0.0585     0.9715     0.9715     0.0000
 86 H      0.9432     1.0000     0.0568     0.9841     0.9841     0.0000
 87 H      0.9435     1.0000     0.0565     0.9855     0.9855    -0.0000
 88 H      1.0240     1.0000    -0.0240     0.9935     0.9935    -0.0000
 89 H      0.9567     1.0000     0.0433     1.0068     1.0068     0.0000

  Mayer bond orders larger than 0.100000
B(  0-C ,  1-N ) :   1.1345 B(  0-C , 17-C ) :   1.6115 B(  0-C , 52-H ) :   0.9691 
B(  1-N ,  8-C ) :   1.1282 B(  1-N , 10-C ) :   0.9550 B(  2-C , 12-C ) :   1.5439 
B(  2-C , 16-C ) :   1.3147 B(  2-C , 53-H ) :   0.9781 B(  3-N , 14-C ) :   1.1963 
B(  3-N , 16-C ) :   1.1978 B(  3-N , 61-H ) :   0.8975 B(  4-C ,  6-C ) :   1.2835 
B(  4-C , 17-C ) :   1.2864 B(  4-C , 18-C ) :   1.2223 B(  5-N , 19-C ) :   1.4054 
B(  5-N , 27-C ) :   1.4159 B(  6-C ,  8-C ) :   1.6145 B(  6-C , 54-H ) :   0.9709 
B(  7-N , 30-C ) :   1.1924 B(  7-N , 38-C ) :   1.2046 B(  7-N , 62-H ) :   0.8991 
B(  8-C , 55-H ) :   0.9695 B(  9-N , 41-C ) :   1.4166 B(  9-N , 49-C ) :   1.4079 
B( 10-C , 56-H ) :   0.9762 B( 10-C , 57-H ) :   0.9815 B( 10-C , 58-H ) :   0.9832 
B( 11-N , 20-C ) :   1.1198 B( 11-N , 24-C ) :   1.1273 B( 11-N , 25-C ) :   0.9584 
B( 12-C , 14-C ) :   1.3146 B( 12-C , 59-H ) :   0.9772 B( 13-N , 31-C ) :   1.1120 
B( 13-N , 35-C ) :   1.1056 B( 13-N , 36-C ) :   0.9656 B( 14-C , 18-C ) :   1.2083 
B( 15-N , 42-C ) :   1.1201 B( 15-N , 46-C ) :   1.1099 B( 15-N , 47-C ) :   0.9624 
B( 16-C , 51-C ) :   1.2080 B( 17-C , 60-H ) :   0.9716 B( 18-C , 19-C ) :   1.2360 
B( 19-C , 21-C ) :   1.1989 B( 20-C , 28-C ) :   1.6231 B( 20-C , 63-H ) :   0.9704 
B( 21-C , 26-C ) :   1.6516 B( 21-C , 64-H ) :   0.9721 B( 22-C , 23-C ) :   1.2782 
B( 22-C , 28-C ) :   1.2769 B( 22-C , 29-C ) :   1.2359 B( 23-C , 24-C ) :   1.6208 
B( 23-C , 65-H ) :   0.9712 B( 24-C , 66-H ) :   0.9690 B( 25-C , 67-H ) :   0.9762 
B( 25-C , 68-H ) :   0.9830 B( 25-C , 69-H ) :   0.9820 B( 26-C , 27-C ) :   1.2012 
B( 26-C , 70-H ) :   0.9738 B( 27-C , 29-C ) :   1.2339 B( 28-C , 71-H ) :   0.9713 
B( 29-C , 30-C ) :   1.1994 B( 30-C , 32-C ) :   1.3248 B( 31-C , 39-C ) :   1.6444 
B( 31-C , 72-H ) :   0.9700 B( 32-C , 37-C ) :   1.5332 B( 32-C , 73-H ) :   0.9776 
B( 33-C , 34-C ) :   1.2635 B( 33-C , 39-C ) :   1.2573 B( 33-C , 40-C ) :   1.2768 
B( 34-C , 35-C ) :   1.6420 B( 34-C , 74-H ) :   0.9707 B( 35-C , 75-H ) :   0.9700 
B( 36-C , 76-H ) :   0.9761 B( 36-C , 77-H ) :   0.9822 B( 36-C , 78-H ) :   0.9833 
B( 37-C , 38-C ) :   1.3251 B( 37-C , 79-H ) :   0.9781 B( 38-C , 40-C ) :   1.1980 
B( 39-C , 80-H ) :   0.9717 B( 40-C , 41-C ) :   1.2070 B( 41-C , 43-C ) :   1.2223 
B( 42-C , 50-C ) :   1.6336 B( 42-C , 81-H ) :   0.9696 B( 43-C , 48-C ) :   1.6294 
B( 43-C , 82-H ) :   0.9743 B( 44-C , 45-C ) :   1.2751 B( 44-C , 50-C ) :   1.2642 
B( 44-C , 51-C ) :   1.2505 B( 45-C , 46-C ) :   1.6306 B( 45-C , 83-H ) :   0.9709 
B( 46-C , 84-H ) :   0.9703 B( 47-C , 85-H ) :   0.9761 B( 47-C , 86-H ) :   0.9827 
B( 47-C , 87-H ) :   0.9827 B( 48-C , 49-C ) :   1.2203 B( 48-C , 88-H ) :   0.9735 
B( 49-C , 51-C ) :   1.2163 B( 50-C , 89-H ) :   0.9715 

-------
TIMINGS
-------

Total SCF time: 0 days 0 hours 23 min 6 sec 

Total time                  ....    1386.576 sec
Sum of individual times     ....    1382.777 sec  ( 99.7%)

Fock matrix formation       ....    1361.716 sec  ( 98.2%)
Diagonalization             ....       6.750 sec  (  0.5%)
Density matrix formation    ....       0.389 sec  (  0.0%)
Population analysis         ....       0.425 sec  (  0.0%)
Initial guess               ....       1.914 sec  (  0.1%)
Orbital Transformation      ....       0.000 sec  (  0.0%)
Orbital Orthonormalization  ....       0.000 sec  (  0.0%)
DIIS solution               ....       2.901 sec  (  0.2%)
SOSCF solution              ....       7.679 sec  (  0.6%)

Maximum memory used throughout the entire SCF-calculation: 302.6 MB


           ************************************************************
           *        Program running with 16 parallel MPI-processes    *
           *              working on a common directory               *
           ************************************************************

------------------------------------------------------------------------------
                                ORCA  MP2 
------------------------------------------------------------------------------

Freezing NCore=104 chemical core electrons

----------
MP2 ENERGY (disk based algorithm)
----------

Dimension of the basis                    ...  918
Memory devoted to MP2                     ... 2000 MB   
Data format for buffers                   ... DOUBLE
Compression type for matrix containers    ... UNCOMPRESSED

-------------------------------
PARTIAL EXCHANGE TRANSFORMATION
-------------------------------

Transformation type                        ... one-operator
Generation of integrals (i,mue|j,nue)      ... ON
Generation of integrals (mue,kappa|nue,tau)... OFF
Generation of integrals (i,mue|a,nue)      ... OFF
Dimension of the basis                     ...  918
Number of internal MOs                     ...  127 (  52- 178)
Pair cutoff                                ... 2.500e-12 Eh
Number of AO pairs in the trafo            ... 421821
Total Number of distinct AO pairs          ... 421821
Memory devoted for trafo                   ... 2000.0 MB 
Max. Number of MO pairs treated together   ...  311      
Number Format for Storage                  ... Double (8 Byte)
Integral package used                      ... LIBINT

Starting integral evaluation:
    ... done with AO integral generation
Closing buffer AOK     (38.16 GB; CompressionRatio= 1.33)
Collecting buffer AOK 
Number of MO pairs included in the trafo   ... 8128
------------------------
SORTING OF (i,mue|j,nue)
------------------------

IBATCH = 1 of  2
IBATCH = 2 of  2
Closing buffer KAO     (51.03 GB; CompressionRatio= 1.00)
Collecting buffer KAO 
N(AO-Batches) Done                         ...  85425603 
N(AO-Batches) Skipped                      ...  82366739 
N(IJ)-pairs Skipped                        ...         0 
TOTAL TIME for half transformation         ...  2535.370 sec
AO-integral generation                     ...   176.354 sec
Half transformation                        ...   316.000 sec
K-integral sorting                         ...  1902.466 sec
Process 10:   Internal MO 132
Process  1:   Internal MO  60
Process  4:   Internal MO  84
Process  7:   Internal MO 108

Finished integral transformation - now doing MP2 part

OPERATOR COMBINATION   0   0: ij=( 52..178, 52..178)
Process 13:   Internal MO 156
Process  0:   Internal MO  54
Process  2:   Internal MO  69
Process  0:   Internal MO  57
Process  8:   Internal MO 117
Process  3:   Internal MO  78
Process  2:   Internal MO  72
Process  6:   Internal MO 102
Process  1:   Internal MO  63
Process 14:   Internal MO 165
Process  4:   Internal MO  87
Process  5:   Internal MO  93
Process 11:   Internal MO 141
Process  9:   Internal MO 126
Process  3:   Internal MO  81
Process  2:   Internal MO  75
Process  7:   Internal MO 111
Process 12:   Internal MO 150
Process  1:   Internal MO  66
Process  5:   Internal MO  96
Process 10:   Internal MO 135
Process  4:   Internal MO  90
Process  6:   Internal MO 105
Process  8:   Internal MO 120
Process 15:   Internal MO 174
Process  7:   Internal MO 114
Process  5:   Internal MO  99
Process  9:   Internal MO 129
Process 13:   Internal MO 159
Process 11:   Internal MO 144
Process 10:   Internal MO 138
Process  8:   Internal MO 123
Process 14:   Internal MO 168
Process 12:   Internal MO 153
Process 15:   Internal MO 177
Process 11:   Internal MO 147
Process 13:   Internal MO 162
Process 14:   Internal MO 171
-----------------------------------------------
 MP2 CORRELATION ENERGY   :     -7.289760818 Eh
-----------------------------------------------


-------
TIMINGS
-------
Total time                : 2828.954 sec
Integral trafo            : 2537.354 sec ( 89.7%)
K(i,j)                    :    6.196 sec (  0.2%)
T(i,j)                    :    0.067 sec (  0.0%)

---------------------------------------
MP2 TOTAL ENERGY:    -2130.908610337 Eh
---------------------------------------

Maximum memory used throughout the entire MP2-calculation: 2275.2 MB

-------------------------   --------------------
FINAL SINGLE POINT ENERGY     -2130.908610336980
-------------------------   --------------------


                            ***************************************
                            *     ORCA property calculations      *
                            ***************************************


  WARNING: The energy has been calculated at the MP2 level but the densities
           used in the property calculations are still SCF densities
           MP2 response densities have not been calculated 
           use %mp2 Density relaxed end
           or  %mp2 Density unrelaxed end

                                    ---------------------
                                    Active property flags
                                    ---------------------
   (+) Dipole Moment


------------------------------------------------------------------------------
                       ORCA ELECTRIC PROPERTIES CALCULATION
------------------------------------------------------------------------------

Dipole Moment Calculation                       ... on
Quadrupole Moment Calculation                   ... off
Polarizability Calculation                      ... off
GBWName                                         ... /scratch/allen/tmpyp4_amber_gaff2/conf1/conf1/Conf66.orca.gbw
Electron density                                ... /scratch/allen/tmpyp4_amber_gaff2/conf1/conf1/Conf66.orca.scfp
The origin for moment calculation is the CENTER OF MASS  = ( 0.000721, -0.003681  0.004056)

-------------
DIPOLE MOMENT
-------------
                                X             Y             Z
Electronic contribution:     -1.16668       0.71684      -0.14375
Nuclear contribution   :     -0.04446       0.15569       0.18059
                        -----------------------------------------
Total Dipole Moment    :     -1.21114       0.87253       0.03684
                        -----------------------------------------
Magnitude (a.u.)       :      1.49316
Magnitude (Debye)      :      3.79530



--------------------
Rotational spectrum 
--------------------
 
Rotational constants in cm-1:     0.001499     0.001473     0.000762 
Rotational constants in MHz :    44.931929    44.170870    22.851996 

 Dipole components along the rotational axes: 
x,y,z [a.u.] :    -1.438155    -0.400136     0.033485 
x,y,z [Debye]:    -3.655499    -1.017064     0.085113 

 

Timings for individual modules:

Sum of individual times         ...     4237.553 sec (=  70.626 min)
GTO integral calculation        ...        2.656 sec (=   0.044 min)   0.1 %
SCF iterations                  ...     1387.521 sec (=  23.125 min)  32.7 %
MP2 module                      ...     2847.376 sec (=  47.456 min)  67.2 %
                             ****ORCA TERMINATED NORMALLY****
TOTAL RUN TIME: 0 days 1 hours 10 minutes 40 seconds 801 msec
# of primitive gaussian functions

