
                                 *****************
                                 * O   R   C   A *
                                 *****************

                                            #,                                       
                                            ###                                      
                                            ####                                     
                                            #####                                    
                                            ######                                   
                                           ########,                                 
                                     ,,################,,,,,                         
                               ,,#################################,,                 
                          ,,##########################################,,             
                       ,#########################################, ''#####,          
                    ,#############################################,,   '####,        
                  ,##################################################,,,,####,       
                ,###########''''           ''''###############################       
              ,#####''   ,,,,##########,,,,          '''####'''          '####       
            ,##' ,,,,###########################,,,                        '##       
           ' ,,###''''                  '''############,,,                           
         ,,##''                                '''############,,,,        ,,,,,,###''
      ,#''                                            '''#######################'''  
     '                                                          ''''####''''         
             ,#######,   #######,   ,#######,      ##                                
            ,#'     '#,  ##    ##  ,#'     '#,    #''#        ######   ,####,        
            ##       ##  ##   ,#'  ##            #'  '#       #        #'  '#        
            ##       ##  #######   ##           ,######,      #####,   #    #        
            '#,     ,#'  ##    ##  '#,     ,#' ,#      #,         ##   #,  ,#        
             '#######'   ##     ##  '#######'  #'      '#     #####' # '####'        



                  #######################################################
                  #                        -***-                        #
                  #          Department of theory and spectroscopy      #
                  #    Directorship and core code : Frank Neese         #
                  #        Max Planck Institute fuer Kohlenforschung    #
                  #                Kaiser Wilhelm Platz 1               #
                  #                 D-45470 Muelheim/Ruhr               #
                  #                      Germany                        #
                  #                                                     #
                  #                  All rights reserved                #
                  #                        -***-                        #
                  #######################################################


                         Program Version 5.0.4 -  RELEASE  -


 With contributions from (in alphabetic order):
   Daniel Aravena         : Magnetic Suceptibility
   Michael Atanasov       : Ab Initio Ligand Field Theory (pilot matlab implementation)
   Alexander A. Auer      : GIAO ZORA, VPT2 properties, NMR spectrum
   Ute Becker             : Parallelization
   Giovanni Bistoni       : ED, misc. LED, open-shell LED, HFLD
   Martin Brehm           : Molecular dynamics
   Dmytro Bykov           : SCF Hessian
   Vijay G. Chilkuri      : MRCI spin determinant printing, contributions to CSF-ICE
   Dipayan Datta          : RHF DLPNO-CCSD density
   Achintya Kumar Dutta   : EOM-CC, STEOM-CC
   Dmitry Ganyushin       : Spin-Orbit,Spin-Spin,Magnetic field MRCI
   Miquel Garcia          : C-PCM and meta-GGA Hessian, CC/C-PCM, Gaussian charge scheme
   Yang Guo               : DLPNO-NEVPT2, F12-NEVPT2, CIM, IAO-localization
   Andreas Hansen         : Spin unrestricted coupled pair/coupled cluster methods
   Benjamin Helmich-Paris : MC-RPA, TRAH-SCF, COSX integrals
   Lee Huntington         : MR-EOM, pCC
   Robert Izsak           : Overlap fitted RIJCOSX, COSX-SCS-MP3, EOM
   Marcus Kettner         : VPT2
   Christian Kollmar      : KDIIS, OOCD, Brueckner-CCSD(T), CCSD density, CASPT2, CASPT2-K
   Simone Kossmann        : Meta GGA functionals, TD-DFT gradient, OOMP2, MP2 Hessian
   Martin Krupicka        : Initial AUTO-CI
   Lucas Lang             : DCDCAS
   Marvin Lechner         : AUTO-CI (C++ implementation), FIC-MRCC
   Dagmar Lenk            : GEPOL surface, SMD
   Dimitrios Liakos       : Extrapolation schemes; Compound Job, initial MDCI parallelization
   Dimitrios Manganas     : Further ROCIS development; embedding schemes
   Dimitrios Pantazis     : SARC Basis sets
   Anastasios Papadopoulos: AUTO-CI, single reference methods and gradients
   Taras Petrenko         : DFT Hessian,TD-DFT gradient, ASA, ECA, R-Raman, ABS, FL, XAS/XES, NRVS
   Peter Pinski           : DLPNO-MP2, DLPNO-MP2 Gradient
   Christoph Reimann      : Effective Core Potentials
   Marius Retegan         : Local ZFS, SOC
   Christoph Riplinger    : Optimizer, TS searches, QM/MM, DLPNO-CCSD(T), (RO)-DLPNO pert. Triples
   Tobias Risthaus        : Range-separated hybrids, TD-DFT gradient, RPA, STAB
   Michael Roemelt        : Original ROCIS implementation
   Masaaki Saitow         : Open-shell DLPNO-CCSD energy and density
   Barbara Sandhoefer     : DKH picture change effects
   Avijit Sen             : IP-ROCIS
   Kantharuban Sivalingam : CASSCF convergence, NEVPT2, FIC-MRCI
   Bernardo de Souza      : ESD, SOC TD-DFT
   Georgi Stoychev        : AutoAux, RI-MP2 NMR, DLPNO-MP2 response
   Willem Van den Heuvel  : Paramagnetic NMR
   Boris Wezisla          : Elementary symmetry handling
   Frank Wennmohs         : Technical directorship


 We gratefully acknowledge several colleagues who have allowed us to
 interface, adapt or use parts of their codes:
   Stefan Grimme, W. Hujo, H. Kruse, P. Pracht,  : VdW corrections, initial TS optimization,
                  C. Bannwarth, S. Ehlert          DFT functionals, gCP, sTDA/sTD-DF
   Ed Valeev, F. Pavosevic, A. Kumar             : LibInt (2-el integral package), F12 methods
   Garnet Chan, S. Sharma, J. Yang, R. Olivares  : DMRG
   Ulf Ekstrom                                   : XCFun DFT Library
   Mihaly Kallay                                 : mrcc  (arbitrary order and MRCC methods)
   Jiri Pittner, Ondrej Demel                    : Mk-CCSD
   Frank Weinhold                                : gennbo (NPA and NBO analysis)
   Christopher J. Cramer and Donald G. Truhlar   : smd solvation model
   Lars Goerigk                                  : TD-DFT with DH, B97 family of functionals
   V. Asgeirsson, H. Jonsson                     : NEB implementation
   FAccTs GmbH                                   : IRC, NEB, NEB-TS, DLPNO-Multilevel, CI-OPT
                                                   MM, QMMM, 2- and 3-layer-ONIOM, Crystal-QMMM,
                                                   LR-CPCM, SF, NACMEs, symmetry and pop. for TD-DFT,
                                                   nearIR, NL-DFT gradient (VV10), updates on ESD,
                                                   ML-optimized integration grids
   S Lehtola, MJT Oliveira, MAL Marques          : LibXC Library
   Liviu Ungur et al                             : ANISO software


 Your calculation uses the libint2 library for the computation of 2-el integrals
 For citations please refer to: http://libint.valeyev.net

 Your ORCA version has been built with support for libXC version: 5.1.0
 For citations please refer to: https://tddft.org/programs/libxc/

 This ORCA versions uses:
   CBLAS   interface :  Fast vector & matrix operations
   LAPACKE interface :  Fast linear algebra routines
   SCALAPACK package :  Parallel linear algebra routines
   Shared memory     :  Shared parallel matrices
   BLAS/LAPACK       :  OpenBLAS 0.3.15  USE64BITINT DYNAMIC_ARCH NO_AFFINITY Sandybridge SINGLE_THREADED
        Core in use  :  Sandybridge
   Copyright (c) 2011-2014, The OpenBLAS Project


================================================================================

----- Orbital basis set information -----
Your calculation utilizes the basis: cc-pVDZ 
       H, B-Ne : Obtained from the ccRepo (grant-hill.group.shef.ac.uk/ccrepo) Feb. 2017
                 T. H. Dunning, Jr., J. Chem. Phys. 90, 1007 (1989)
            He : Obtained from the ccRepo (grant-hill.group.shef.ac.uk/ccrepo) Feb. 2017
                 D. E. Woon, T. H. Dunning, Jr., J. Chem. Phys. 100, 2975 (1994)
  Li-Be, Na-Mg : Obtained from the ccRepo (grant-hill.group.shef.ac.uk/ccrepo) Feb. 2017
                 B. P. Prascher, D. E. Woon, K. A. Peterson, T. H. Dunning, Jr., A. K. Wilson, Theor. Chem. Acc. 128, 69 (2011)
         Al-Ar : Obtained from the ccRepo (grant-hill.group.shef.ac.uk/ccrepo) Feb. 2017
                 D. E. Woon, T. H. Dunning, Jr., J. Chem. Phys. 98, 1358 (1993)
            Ca : Obtained from the Peterson Research Group Website (tyr0.chem.wsu.edu/~kipeters) Feb. 2017
                 J. Koput, K. A. Peterson, J. Phys. Chem. 106, 9595 (2002)
         Sc-Zn : Obtained from the ccRepo (grant-hill.group.shef.ac.uk/ccrepo) Feb. 2017
                 N. B. Balabanov, K. A. Peterson, J. Chem. Phys. 123, 064107 (2005)
                 N. B. Balabanov, K. A. Peterson, J. Chem. Phys. 125, 074110 (2006)
         Ga-Kr : Obtained from the ccRepo (grant-hill.group.shef.ac.uk/ccrepo) Feb. 2017
                 A. K. Wilson, D. E. Woon, K. A. Peterson, T. H. Dunning, Jr., J. Chem. Phys. 110, 7667 (1999)

================================================================================
                                        WARNINGS
                       Please study these warnings very carefully!
================================================================================


WARNING: No MP2 level density has been requested!
         To caclulate MP2 level properties use
         %mp2 Density relaxed end
         or
         %mp2 Density unrelaxed end

WARNING: Post HF methods need fully converged wavefunctions
  ===> : Setting SCFConvForced true
         You can overwrite this default with %scf ConvForced false 


INFO   : the flag for use of the SHARK integral package has been found!

================================================================================
                                       INPUT FILE
================================================================================
NAME = /scratch/allen/tmpyp4_amber_gaff2/2.Mdgx/conf11/conf11/Conf109.orca
|  1> ! PAL2
|  2> ! mp2 cc-pvdz TightSCF  NoKeepInts
|  3> 
|  4> %scf
|  5>   MaxCore 2000
|  6> end
|  7> %mp2
|  8>   MaxCore 2000
|  9> end
| 10> * xyz 0 1
| 11>    C       -4.27800         5.66700        -1.03200
| 12>    C        1.47400         4.04100         0.05700
| 13>    C       -2.80200         4.09300         0.04900
| 14>    C       -2.90300         4.87400         1.21100
| 15>    C       -3.68200         6.01400         1.21500
| 16>    C       -5.21000         7.60300         0.15200
| 17>    C        0.13200         4.30700         0.06100
| 18>    C       -0.56900         3.05600         0.04700
| 19>    C        1.64900         2.61800         0.02300
| 20>    C       -3.51600         4.51600        -1.08300
| 21>    N       -4.35300         6.39800         0.10400
| 22>    N        0.38800         2.06700         0.02500
| 23>    N       -2.01000         0.39500        -0.07500
| 24>    N       -0.38800        -2.07400        -0.02700
| 25>    N        2.01000        -0.40100         0.06500
| 26>    C       -1.96000         2.86100         0.02400
| 27>    C       -2.62300         1.61500        -0.01800
| 28>    C       -5.57300        -4.32900         1.06600
| 29>    C       -4.07300         1.47100         0.05600
| 30>    C       -4.10600        -2.75600        -0.02600
| 31>    C       -4.99500        -2.75700        -1.11100
| 32>    C       -6.13200        -3.54200        -1.07600
| 33>    C       -7.65100        -5.11300         0.04000
| 34>    C       -4.32400         0.14100         0.03700
| 35>    C       -3.02500        -0.52000        -0.04800
| 36>    C       -4.42200        -3.56600         1.07500
| 37>    N       -6.40700        -4.31300         0.00100
| 38>    C       -2.86700        -1.92200        -0.04000
| 39>    C       -1.65000        -2.62400        -0.02700
| 40>    C        3.56800        -6.14200        -1.04000
| 41>    C       -1.47600        -4.04900        -0.03400
| 42>    C        2.80300        -4.09900        -0.00800
| 43>    C        3.65700        -4.38400         1.06900
| 44>    C        4.42700        -5.53000         1.05900
| 45>    C        5.24500        -7.58800         0.01400
| 46>    C       -0.13400        -4.31500        -0.02200
| 47>    C        0.56800        -3.06400        -0.02700
| 48>    C        2.77500        -5.01200        -1.07400
| 49>    N        4.37600        -6.39100         0.01700
| 50>    C        1.95900        -2.86900        -0.00900
| 51>    C        2.62100        -1.62200         0.00900
| 52>    C        5.54300         4.33900        -1.13000
| 53>    C        4.07000        -1.47900        -0.09400
| 54>    C        4.10400         2.75100        -0.02100
| 55>    C        5.02700         2.72900         1.03600
| 56>    C        6.16600         3.50900         0.97800
| 57>    C        7.61900         5.15300        -0.11500
| 58>    C        4.32100        -0.14800        -0.09200
| 59>    C        3.02500         0.51400         0.01500
| 60>    C        4.38700         3.58200        -1.11500
| 61>    C        2.86600         1.91600         0.01300
| 62>    N        6.41300         4.29600        -0.09500
| 63>    H       -4.83500         6.03800        -1.88300
| 64>    H        2.27400         4.76600         0.08100
| 65>    H       -2.38300         4.59400         2.11900
| 66>    H       -3.79700         6.64200         2.08800
| 67>    H       -6.19800         7.32300         0.52500
| 68>    H       -4.75100         8.33400         0.81800
| 69>    H       -5.29300         8.01500        -0.85400
| 70>    H       -0.33200         5.28200         0.06900
| 71>    H       -3.46700         3.96400        -2.01400
| 72>    H        0.18200         1.07200         0.00500
| 73>    H       -0.18300        -1.08000        -0.02100
| 74>    H       -5.86400        -4.96200         1.89500
| 75>    H       -4.79400         2.27200         0.13900
| 76>    H       -4.80000        -2.16000        -1.99400
| 77>    H       -6.84100        -3.58200        -1.89300
| 78>    H       -8.42800        -4.53600         0.54600
| 79>    H       -7.95600        -5.33700        -0.98100
| 80>    H       -7.45600        -6.03700         0.58400
| 81>    H       -5.28700        -0.34400         0.10000
| 82>    H       -3.78000        -3.60100         1.94700
| 83>    H        3.58700        -6.86800        -1.84300
| 84>    H       -2.27600        -4.77400        -0.05000
| 85>    H        3.71400        -3.72400         1.92600
| 86>    H        5.09200        -5.79500         1.87100
| 87>    H        6.20500        -7.32900        -0.43900
| 88>    H        5.39300        -7.91700         1.04200
| 89>    H        4.75900        -8.37300        -0.56400
| 90>    H        0.32900        -5.29000        -0.00800
| 91>    H        2.14600        -4.84200        -1.94000
| 92>    H        5.80800         4.98600        -1.95600
| 93>    H        4.78800        -2.28100        -0.18500
| 94>    H        4.86000         2.11400         1.91200
| 95>    H        6.90100         3.53100         1.77200
| 96>    H        7.38300         6.10900         0.35600
| 97>    H        8.41400         4.65200         0.43500
| 98>    H        7.92100         5.31000        -1.15000
| 99>    H        5.28300         0.33600        -0.17900
|100>    H        3.72000         3.63200        -1.96700
|101> *
|102> 
|103>                          ****END OF INPUT****
================================================================================

                       ****************************
                       * Single Point Calculation *
                       ****************************

---------------------------------
CARTESIAN COORDINATES (ANGSTROEM)
---------------------------------
  C     -4.278000    5.667000   -1.032000
  C      1.474000    4.041000    0.057000
  C     -2.802000    4.093000    0.049000
  C     -2.903000    4.874000    1.211000
  C     -3.682000    6.014000    1.215000
  C     -5.210000    7.603000    0.152000
  C      0.132000    4.307000    0.061000
  C     -0.569000    3.056000    0.047000
  C      1.649000    2.618000    0.023000
  C     -3.516000    4.516000   -1.083000
  N     -4.353000    6.398000    0.104000
  N      0.388000    2.067000    0.025000
  N     -2.010000    0.395000   -0.075000
  N     -0.388000   -2.074000   -0.027000
  N      2.010000   -0.401000    0.065000
  C     -1.960000    2.861000    0.024000
  C     -2.623000    1.615000   -0.018000
  C     -5.573000   -4.329000    1.066000
  C     -4.073000    1.471000    0.056000
  C     -4.106000   -2.756000   -0.026000
  C     -4.995000   -2.757000   -1.111000
  C     -6.132000   -3.542000   -1.076000
  C     -7.651000   -5.113000    0.040000
  C     -4.324000    0.141000    0.037000
  C     -3.025000   -0.520000   -0.048000
  C     -4.422000   -3.566000    1.075000
  N     -6.407000   -4.313000    0.001000
  C     -2.867000   -1.922000   -0.040000
  C     -1.650000   -2.624000   -0.027000
  C      3.568000   -6.142000   -1.040000
  C     -1.476000   -4.049000   -0.034000
  C      2.803000   -4.099000   -0.008000
  C      3.657000   -4.384000    1.069000
  C      4.427000   -5.530000    1.059000
  C      5.245000   -7.588000    0.014000
  C     -0.134000   -4.315000   -0.022000
  C      0.568000   -3.064000   -0.027000
  C      2.775000   -5.012000   -1.074000
  N      4.376000   -6.391000    0.017000
  C      1.959000   -2.869000   -0.009000
  C      2.621000   -1.622000    0.009000
  C      5.543000    4.339000   -1.130000
  C      4.070000   -1.479000   -0.094000
  C      4.104000    2.751000   -0.021000
  C      5.027000    2.729000    1.036000
  C      6.166000    3.509000    0.978000
  C      7.619000    5.153000   -0.115000
  C      4.321000   -0.148000   -0.092000
  C      3.025000    0.514000    0.015000
  C      4.387000    3.582000   -1.115000
  C      2.866000    1.916000    0.013000
  N      6.413000    4.296000   -0.095000
  H     -4.835000    6.038000   -1.883000
  H      2.274000    4.766000    0.081000
  H     -2.383000    4.594000    2.119000
  H     -3.797000    6.642000    2.088000
  H     -6.198000    7.323000    0.525000
  H     -4.751000    8.334000    0.818000
  H     -5.293000    8.015000   -0.854000
  H     -0.332000    5.282000    0.069000
  H     -3.467000    3.964000   -2.014000
  H      0.182000    1.072000    0.005000
  H     -0.183000   -1.080000   -0.021000
  H     -5.864000   -4.962000    1.895000
  H     -4.794000    2.272000    0.139000
  H     -4.800000   -2.160000   -1.994000
  H     -6.841000   -3.582000   -1.893000
  H     -8.428000   -4.536000    0.546000
  H     -7.956000   -5.337000   -0.981000
  H     -7.456000   -6.037000    0.584000
  H     -5.287000   -0.344000    0.100000
  H     -3.780000   -3.601000    1.947000
  H      3.587000   -6.868000   -1.843000
  H     -2.276000   -4.774000   -0.050000
  H      3.714000   -3.724000    1.926000
  H      5.092000   -5.795000    1.871000
  H      6.205000   -7.329000   -0.439000
  H      5.393000   -7.917000    1.042000
  H      4.759000   -8.373000   -0.564000
  H      0.329000   -5.290000   -0.008000
  H      2.146000   -4.842000   -1.940000
  H      5.808000    4.986000   -1.956000
  H      4.788000   -2.281000   -0.185000
  H      4.860000    2.114000    1.912000
  H      6.901000    3.531000    1.772000
  H      7.383000    6.109000    0.356000
  H      8.414000    4.652000    0.435000
  H      7.921000    5.310000   -1.150000
  H      5.283000    0.336000   -0.179000
  H      3.720000    3.632000   -1.967000

----------------------------
CARTESIAN COORDINATES (A.U.)
----------------------------
  NO LB      ZA    FRAG     MASS         X           Y           Z
   0 C     6.0000    0    12.011   -8.084248   10.709078   -1.950197
   1 C     6.0000    0    12.011    2.785456    7.636383    0.107714
   2 C     6.0000    0    12.011   -5.295013    7.734649    0.092597
   3 C     6.0000    0    12.011   -5.485875    9.210525    2.288458
   4 C     6.0000    0    12.011   -6.957972   11.364813    2.296017
   5 C     6.0000    0    12.011   -9.845473   14.367588    0.287238
   6 C     6.0000    0    12.011    0.249444    8.139050    0.115273
   7 C     6.0000    0    12.011   -1.075254    5.775003    0.088817
   8 C     6.0000    0    12.011    3.116158    4.947303    0.043464
   9 C     6.0000    0    12.011   -6.644277    8.534003   -2.046573
  10 N     7.0000    0    14.007   -8.225978   12.090468    0.196532
  11 N     7.0000    0    14.007    0.733214    3.906064    0.047243
  12 N     7.0000    0    14.007   -3.798350    0.746442   -0.141729
  13 N     7.0000    0    14.007   -0.733214   -3.919292   -0.051023
  14 N     7.0000    0    14.007    3.798350   -0.757780    0.122832
  15 C     6.0000    0    12.011   -3.703863    5.406506    0.045353
  16 C     6.0000    0    12.011   -4.956752    3.051908   -0.034015
  17 C     6.0000    0    12.011  -10.531444   -8.180624    2.014448
  18 C     6.0000    0    12.011   -7.696855    2.779787    0.105825
  19 C     6.0000    0    12.011   -7.759216   -5.208085   -0.049133
  20 C     6.0000    0    12.011   -9.439182   -5.209975   -2.099486
  21 C     6.0000    0    12.011  -11.587801   -6.693410   -2.033345
  22 C     6.0000    0    12.011  -14.458295   -9.662170    0.075589
  23 C     6.0000    0    12.011   -8.171176    0.266451    0.069920
  24 C     6.0000    0    12.011   -5.716422   -0.982658   -0.090707
  25 C     6.0000    0    12.011   -8.356369   -6.738763    2.031456
  26 N     7.0000    0    14.007  -12.107475   -8.150389    0.001890
  27 C     6.0000    0    12.011   -5.417845   -3.632054   -0.075589
  28 C     6.0000    0    12.011   -3.118048   -4.958641   -0.051023
  29 C     6.0000    0    12.011    6.742543  -11.606698   -1.965315
  30 C     6.0000    0    12.011   -2.789236   -7.651501   -0.064251
  31 C     6.0000    0    12.011    5.296902   -7.745987   -0.015118
  32 C     6.0000    0    12.011    6.910728   -8.284559    2.020117
  33 C     6.0000    0    12.011    8.365818  -10.450186    2.001220
  34 C     6.0000    0    12.011    9.911614  -14.339242    0.026456
  35 C     6.0000    0    12.011   -0.253223   -8.154168   -0.041574
  36 C     6.0000    0    12.011    1.073364   -5.790121   -0.051023
  37 C     6.0000    0    12.011    5.243990   -9.471307   -2.029566
  38 N     7.0000    0    14.007    8.269442  -12.077240    0.032125
  39 C     6.0000    0    12.011    3.701973   -5.421624   -0.017008
  40 C     6.0000    0    12.011    4.952972   -3.065136    0.017008
  41 C     6.0000    0    12.011   10.474752    8.199522   -2.135391
  42 C     6.0000    0    12.011    7.691185   -2.794905   -0.177634
  43 C     6.0000    0    12.011    7.755436    5.198637   -0.039684
  44 C     6.0000    0    12.011    9.499653    5.157063    1.957756
  45 C     6.0000    0    12.011   11.652051    6.631049    1.848152
  46 C     6.0000    0    12.011   14.397823    9.737759   -0.217319
  47 C     6.0000    0    12.011    8.165507   -0.279679   -0.173855
  48 C     6.0000    0    12.011    5.716422    0.971319    0.028346
  49 C     6.0000    0    12.011    8.290229    6.768999   -2.107045
  50 C     6.0000    0    12.011    5.415955    3.620715    0.024566
  51 N     7.0000    0    14.007   12.118814    8.118263   -0.179524
  52 H     1.0000    0     1.008   -9.136826   11.410166   -3.558354
  53 H     1.0000    0     1.008    4.297237    9.006435    0.153068
  54 H     1.0000    0     1.008   -4.503217    8.681402    4.004330
  55 H     1.0000    0     1.008   -7.175290   12.551561    3.945748
  56 H     1.0000    0     1.008  -11.712523   13.838464    0.992106
  57 H     1.0000    0     1.008   -8.978089   15.748978    1.545796
  58 H     1.0000    0     1.008  -10.002320   15.146155   -1.613826
  59 H     1.0000    0     1.008   -0.627389    9.981533    0.130391
  60 H     1.0000    0     1.008   -6.551681    7.490874   -3.805908
  61 H     1.0000    0     1.008    0.343930    2.025786    0.009449
  62 H     1.0000    0     1.008   -0.345820   -2.040904   -0.039684
  63 H     1.0000    0     1.008  -11.081354   -9.376821    3.581031
  64 H     1.0000    0     1.008   -9.059347    4.293458    0.262672
  65 H     1.0000    0     1.008   -9.070685   -4.081808   -3.768114
  66 H     1.0000    0     1.008  -12.927616   -6.768999   -3.577252
  67 H     1.0000    0     1.008  -15.926612   -8.571798    1.031790
  68 H     1.0000    0     1.008  -15.034661  -10.085468   -1.853821
  69 H     1.0000    0     1.008  -14.089798  -11.408277    1.103600
  70 H     1.0000    0     1.008   -9.990982   -0.650066    0.188973
  71 H     1.0000    0     1.008   -7.143165   -6.804904    3.679297
  72 H     1.0000    0     1.008    6.778448  -12.978639   -3.482765
  73 H     1.0000    0     1.008   -4.301017   -9.021553   -0.094486
  74 H     1.0000    0     1.008    7.018443   -7.037340    3.639613
  75 H     1.0000    0     1.008    9.622485  -10.950963    3.535678
  76 H     1.0000    0     1.008   11.725751  -13.849803   -0.829590
  77 H     1.0000    0     1.008   10.191293  -14.960962    1.969095
  78 H     1.0000    0     1.008    8.993207  -15.822677   -1.065806
  79 H     1.0000    0     1.008    0.621720   -9.996651   -0.015118
  80 H     1.0000    0     1.008    4.055352   -9.150054   -3.666069
  81 H     1.0000    0     1.008   10.975529    9.422175   -3.696304
  82 H     1.0000    0     1.008    9.048009   -4.310465   -0.349599
  83 H     1.0000    0     1.008    9.184069    3.994881    3.613156
  84 H     1.0000    0     1.008   13.041000    6.672623    3.348595
  85 H     1.0000    0     1.008   13.951848   11.544337    0.672743
  86 H     1.0000    0     1.008   15.900156    8.791006    0.822031
  87 H     1.0000    0     1.008   14.968521   10.034446   -2.173185
  88 H     1.0000    0     1.008    9.983423    0.634948   -0.338261
  89 H     1.0000    0     1.008    7.029781    6.863485   -3.717091

--------------------------------
INTERNAL COORDINATES (ANGSTROEM)
--------------------------------
 C      0   0   0     0.000000000000     0.00000000     0.00000000
 C      1   0   0     6.075796326409     0.00000000     0.00000000
 C      1   2   0     2.413423501999    33.50831343     0.00000000
 C      3   1   2     1.403711508822    87.93201543    94.00740532
 C      4   3   1     1.380745088711   120.15656856     0.09557216
 C      5   4   3     2.447381049203   152.50457884     1.73364067
 C      2   1   3     1.368114030335    11.43637284   327.04714491
 C      7   2   3     1.434084376876   108.05010202     0.84668783
 C      2   1   3     1.434123425651   112.13665193    39.08191526
 C      1   2   3     1.381320382822    42.38546970   311.87381965
 N      1   2   3     1.352953066444    92.66981706    87.02224571
 N      9   2   1     1.376127174356   106.58526707   347.78422382
 N     12   9   2     2.925062050624   168.53581413   171.12065651
 N     13  12   9     2.954513327098    91.55032014    11.12112580
 N     14  13  12     2.925371258490    88.43092389   359.84326247
 C      8   7   2     1.404790019896   127.24786865   181.11170171
 C     13  12   9     1.366535034311    81.72106996   188.00453233
 C     14  13  12     5.758810554272    80.56209567   166.76250791
 C     17  13  12     1.459010623676   111.08861209   183.82872609
 C     18  14  13     2.412235892279    27.27532823    36.33507194
 C     20  18  14     1.402692767501    87.95206320   148.94598259
 C     21  20  18     1.382106725257   120.14573887   359.70382047
 C     18  14  13     2.446510985056   144.15733107    82.80075377
 C     19  17  13     1.353610726908   106.29293361   359.75308708
 C     13  12   9     1.366813447402   172.21332906    33.46711076
 C     18  14  13     1.380960173213    15.08449437   309.23336894
 N     22  21  20     1.352773077792   120.73759875     0.27865223
 C     25  13  17     1.410897586645   125.60330303   182.37774668
 C     14  13  12     1.376642291955    80.24689249   177.85461986
 C     14  13  12     5.764089607215   164.51507311   312.20821879
 C     29  14  13     1.435600919476   106.58649366   178.76395472
 C     30  14  13     2.413316804732    27.10625047    82.12560436
 C     32  30  14     1.403734305344    87.90059683   149.76154742
 C     33  32  30     1.380694028378   120.14881443   359.74174632
 C     34  33  32     2.448777858443   152.49203239     2.45173620
 C     31  29  14     1.368160809262   108.16950133     0.70383075
 C     14  13  12     1.376239804685   169.26375223   353.09862627
 C     30  14  13     1.380907310430    14.68948582   353.70041132
 N     34  33  32     1.352658863128   120.85575621     0.19603406
 C     37  14  29     1.404717053360   126.01551127   180.90772073
 C     15  14  13     1.366491126938    81.61824056   183.09049352
 C      2   1   3     4.249062720177   146.90317938   160.25134537
 C     41  15  14     1.459677704153   111.05201287   175.08990246
 C     42   2   1     2.412953791518    41.78584867   208.89048717
 C     44  42   2     1.403446472082    87.95153797   233.97558675
 C     45  44  42     1.381696421071   120.11137308     0.19721020
 C     42   2   1     2.450019795838   135.97209175   119.20533627
 C     43  41  15     1.354461516618   106.26758155     0.30894352
 C     15  14  13     1.367461151185   171.87382904   332.35056460
 C     42   2   1     1.381886391857    32.59078432   257.74576636
 C      9   2   1     1.404988612053   126.98745415   168.78856135
 N     42   2   1     1.352765315936   113.57249190   146.94192546
 H      1   2   3     1.082631516260   136.02684915   220.79969802
 H      2   1   3     1.079907866440   121.71138021   208.40082194
 H      4   3   1     1.083173116358   121.03517136   179.57939078
 H      5   4   3     1.081544266316   122.80201398   179.45905906
 H      6   5   4     1.092553431188   104.47245229   100.03633142
 H      6   5   4     1.090228416434    84.67223575   209.47204739
 H      6   5   4     1.090260977931   133.92017718   322.27302101
 H      7   2  54     1.079807853278   126.66122480     1.30600390
 H     10   1   2     1.083450967972   118.76426356   236.01886654
 H     12   9   2     1.016297692608   125.29023241   180.00180175
 H     14  13  12     1.014936943854    44.97226959   359.42596618
 H     18  14  13     1.082871645210   128.03556573   234.20482432
 H     19  17  13     1.080893611786   126.41830519   178.11313280
 H     21  20  18     1.083569563987   121.05669627   180.67006309
 H     22  21  20     1.082483256222   122.73097286   180.59748951
 H     23  18  14     1.092105306278   103.92715769   234.93429879
 H     23  18  14     1.088871893291   134.19244188    12.25587044
 H     23  18  14     1.089833473518    84.85857450   125.45241208
 H     24  19  17     1.080075460327   127.28078426   178.44613241
 H     26  18  14     1.083408048706   118.76995697   244.94906660
 H     30  14  13     1.082703098730   127.99711412   279.66882698
 H     31  29  14     1.079759695488   125.22293469   180.92530585
 H     33  32  30     1.083188810873   121.01964473   180.74284758
 H     34  33  32     1.082494341787   122.70821597   180.59516895
 H     35  34  33     1.092652735319   105.73575241    97.19771933
 H     35  34  33     1.089462711615    84.05943581   206.43036958
 H     35  34  33     1.089268102902   133.08365142   318.50306270
 H     36  31  29     1.079439669458   126.61599965   178.98859863
 H     38  30  73     1.083742127999   118.77264435   359.90091293
 H     42   2   1     1.082178358682   119.31790784     3.57345592
 H     43  41  15     1.080281907652   126.36969097   182.06329380
 H     45  44  42     1.083277434455   121.10105945   179.58025624
 H     46  45  44     1.082194529648   122.72144639   179.46906377
 H     47  42   2     1.091546151109   106.65128841   315.16475048
 H     47  42   2     1.088818625851   132.46019523    94.52397119
 H     47  42   2     1.089531091801    83.63838232   206.04504406
 H     48  43  41     1.080402239909   127.23657387   181.62955349
 H     50  42   2     1.083186502870   118.77001737    94.71359229

---------------------------
INTERNAL COORDINATES (A.U.)
---------------------------
 C      0   0   0     0.000000000000     0.00000000     0.00000000
 C      1   0   0    11.481591102397     0.00000000     0.00000000
 C      1   2   0     4.560709463947    33.50831343     0.00000000
 C      3   1   2     2.652630322707    87.93201543    94.00740532
 C      4   3   1     2.609230078421   120.15656856     0.09557216
 C      5   4   3     4.624879928343   152.50457884     1.73364067
 C      2   1   3     2.585360837309    11.43637284   327.04714491
 C      7   2   3     2.710026725231   108.05010202     0.84668783
 C      2   1   3     2.710100516721   112.13665193    39.08191526
 C      1   2   3     2.610317226737    42.38546970   311.87381965
 N      1   2   3     2.556710767628    92.66981706    87.02224571
 N      9   2   1     2.600503484979   106.58526707   347.78422382
 N     12   9   2     5.527566200405   168.53581413   171.12065651
 N     13  12   9     5.583221047236    91.55032014    11.12112580
 N     14  13  12     5.528150518591    88.43092389   359.84326247
 C      8   7   2     2.654668413270   127.24786865   181.11170171
 C     13  12   9     2.582376967257    81.72106996   188.00453233
 C     14  13  12    10.882574804710    80.56209567   166.76250791
 C     17  13  12     2.757130505230   111.08861209   183.82872609
 C     18  14  13     4.558465206823    27.27532823    36.33507194
 C     20  18  14     2.650705180609    87.95206320   148.94598259
 C     21  20  18     2.611803198586   120.14573887   359.70382047
 C     18  14  13     4.623235745386   144.15733107    82.80075377
 C     19  17  13     2.557953565794   106.29293361   359.75308708
 C     13  12   9     2.582903091751   172.21332906    33.46711076
 C     18  14  13     2.609636529225    15.08449437   309.23336894
 N     22  21  20     2.556370638369   120.73759875     0.27865223
 C     25  13  17     2.666210041769   125.60330303   182.37774668
 C     14  13  12     2.601476916169    80.24689249   177.85461986
 C     14  13  12    10.892550769017   164.51507311   312.20821879
 C     29  14  13     2.712892575415   106.58649366   178.76395472
 C     30  14  13     4.560507835333    27.10625047    82.12560436
 C     32  30  14     2.652673401891    87.90059683   149.76154742
 C     33  32  30     2.609133588376   120.14881443   359.74174632
 C     34  33  32     4.627519515267   152.49203239     2.45173620
 C     31  29  14     2.585449236669   108.16950133     0.70383075
 C     14  13  12     2.600716325456   169.26375223   353.09862627
 C     30  14  13     2.609536633043    14.68948582   353.70041132
 N     34  33  32     2.556154803934   120.85575621     0.19603406
 C     37  14  29     2.654530526499   126.01551127   180.90772073
 C     15  14  13     2.582293994346    81.61824056   183.09049352
 C      2   1   3     8.029564866989   146.90317938   160.25134537
 C     41  15  14     2.758391104639   111.05201287   175.08990246
 C     42   2   1     4.559821839776    41.78584867   208.89048717
 C     44  42   2     2.652129475853    87.95153797   233.97558675
 C     45  44  42     2.611027836043   120.11137308     0.19721020
 C     42   2   1     4.629866436820   135.97209175   119.20533627
 C     43  41  15     2.559561325344   106.26758155     0.30894352
 C     15  14  13     2.584127074516   171.87382904   332.35056460
 C     42   2   1     2.611386828803    32.59078432   257.74576636
 C      9   2   1     2.655043698059   126.98745415   168.78856135
 N     42   2   1     2.556355970587   113.57249190   146.94192546
 H      1   2   3     2.045877069684   136.02684915   220.79969802
 H      2   1   3     2.040730117440   121.71138021   208.40082194
 H      4   3   1     2.046900545542   121.03517136   179.57939078
 H      5   4   3     2.043822465049   122.80201398   179.45905906
 H      6   5   4     2.064626771621   104.47245229   100.03633142
 H      6   5   4     2.060233130479    84.67223575   209.47204739
 H      6   5   4     2.060294662792   133.92017718   322.27302101
 H      7   2  54     2.040541119952   126.66122480     1.30600390
 H     10   1   2     2.047425608999   118.76426356   236.01886654
 H     12   9   2     1.920524309565   125.29023241   180.00180175
 H     14  13  12     1.917952867083    44.97226959   359.42596618
 H     18  14  13     2.046330847636   128.03556573   234.20482432
 H     19  17  13     2.042592906181   126.41830519   178.11313280
 H     21  20  18     2.047649722989   121.05669627   180.67006309
 H     22  21  20     2.045596898814   122.73097286   180.59748951
 H     23  18  14     2.063779938267   103.92715769   234.93429879
 H     23  18  14     2.057669673245   134.19244188    12.25587044
 H     23  18  14     2.059486796529    84.85857450   125.45241208
 H     24  19  17     2.041046823986   127.28078426   178.44613241
 H     26  18  14     2.047344503340   118.76995697   244.94906660
 H     30  14  13     2.046012340948   127.99711412   279.66882698
 H     31  29  14     2.040450114918   125.22293469   180.92530585
 H     33  32  30     2.046930203877   121.01964473   180.74284758
 H     34  33  32     2.045617847496   122.70821597   180.59516895
 H     35  34  33     2.064814429233   105.73575241    97.19771933
 H     35  34  33     2.058786158072    84.05943581   206.43036958
 H     35  34  33     2.058418400901   133.08365142   318.50306270
 H     36  31  29     2.039845353366   126.61599965   178.98859863
 H     38  30  73     2.047975821711   118.77264435   359.90091293
 H     42   2   1     2.045020725966   119.31790784     3.57345592
 H     43  41  15     2.041436952892   126.36969097   182.06329380
 H     45  44  42     2.047097678177   121.10105945   179.58025624
 H     46  45  44     2.045051284662   122.72144639   179.46906377
 H     47  42   2     2.062723288131   106.65128841   315.16475048
 H     47  42   2     2.057569012371   132.46019523    94.52397119
 H     47  42   2     2.058915377895    83.63838232   206.04504406
 H     48  43  41     2.041664347903   127.23657387   181.62955349
 H     50  42   2     2.046925842384   118.77001737    94.71359229

---------------------
BASIS SET INFORMATION
---------------------
There are 3 groups of distinct atoms

 Group   1 Type C   : 17s4p1d contracted to 3s2p1d pattern {881/31/1}
 Group   2 Type N   : 17s4p1d contracted to 3s2p1d pattern {881/31/1}
 Group   3 Type H   : 4s1p contracted to 2s1p pattern {31/1}

Atom   0C    basis set group =>   1
Atom   1N    basis set group =>   2
Atom   2C    basis set group =>   1
Atom   3N    basis set group =>   2
Atom   4C    basis set group =>   1
Atom   5N    basis set group =>   2
Atom   6C    basis set group =>   1
Atom   7N    basis set group =>   2
Atom   8C    basis set group =>   1
Atom   9N    basis set group =>   2
Atom  10C    basis set group =>   1
Atom  11N    basis set group =>   2
Atom  12C    basis set group =>   1
Atom  13N    basis set group =>   2
Atom  14C    basis set group =>   1
Atom  15N    basis set group =>   2
Atom  16C    basis set group =>   1
Atom  17C    basis set group =>   1
Atom  18C    basis set group =>   1
Atom  19C    basis set group =>   1
Atom  20C    basis set group =>   1
Atom  21C    basis set group =>   1
Atom  22C    basis set group =>   1
Atom  23C    basis set group =>   1
Atom  24C    basis set group =>   1
Atom  25C    basis set group =>   1
Atom  26C    basis set group =>   1
Atom  27C    basis set group =>   1
Atom  28C    basis set group =>   1
Atom  29C    basis set group =>   1
Atom  30C    basis set group =>   1
Atom  31C    basis set group =>   1
Atom  32C    basis set group =>   1
Atom  33C    basis set group =>   1
Atom  34C    basis set group =>   1
Atom  35C    basis set group =>   1
Atom  36C    basis set group =>   1
Atom  37C    basis set group =>   1
Atom  38C    basis set group =>   1
Atom  39C    basis set group =>   1
Atom  40C    basis set group =>   1
Atom  41C    basis set group =>   1
Atom  42C    basis set group =>   1
Atom  43C    basis set group =>   1
Atom  44C    basis set group =>   1
Atom  45C    basis set group =>   1
Atom  46C    basis set group =>   1
Atom  47C    basis set group =>   1
Atom  48C    basis set group =>   1
Atom  49C    basis set group =>   1
Atom  50C    basis set group =>   1
Atom  51C    basis set group =>   1
Atom  52H    basis set group =>   3
Atom  53H    basis set group =>   3
Atom  54H    basis set group =>   3
Atom  55H    basis set group =>   3
Atom  56H    basis set group =>   3
Atom  57H    basis set group =>   3
Atom  58H    basis set group =>   3
Atom  59H    basis set group =>   3
Atom  60H    basis set group =>   3
Atom  61H    basis set group =>   3
Atom  62H    basis set group =>   3
Atom  63H    basis set group =>   3
Atom  64H    basis set group =>   3
Atom  65H    basis set group =>   3
Atom  66H    basis set group =>   3
Atom  67H    basis set group =>   3
Atom  68H    basis set group =>   3
Atom  69H    basis set group =>   3
Atom  70H    basis set group =>   3
Atom  71H    basis set group =>   3
Atom  72H    basis set group =>   3
Atom  73H    basis set group =>   3
Atom  74H    basis set group =>   3
Atom  75H    basis set group =>   3
Atom  76H    basis set group =>   3
Atom  77H    basis set group =>   3
Atom  78H    basis set group =>   3
Atom  79H    basis set group =>   3
Atom  80H    basis set group =>   3
Atom  81H    basis set group =>   3
Atom  82H    basis set group =>   3
Atom  83H    basis set group =>   3
Atom  84H    basis set group =>   3
Atom  85H    basis set group =>   3
Atom  86H    basis set group =>   3
Atom  87H    basis set group =>   3
Atom  88H    basis set group =>   3
Atom  89H    basis set group =>   3


           ************************************************************
           *        Program running with 16 parallel MPI-processes    *
           *              working on a common directory               *
           ************************************************************
------------------------------------------------------------------------------
                           ORCA GTO INTEGRAL CALCULATION
------------------------------------------------------------------------------
------------------------------------------------------------------------------
                   ___                                                        
                  /   \      - P O W E R E D   B Y -                         
                 /     \                                                     
                 |  |  |   _    _      __       _____    __    __             
                 |  |  |  | |  | |    /  \     |  _  \  |  |  /  |          
                  \  \/   | |  | |   /    \    | | | |  |  | /  /          
                 / \  \   | |__| |  /  /\  \   | |_| |  |  |/  /          
                |  |  |   |  __  | /  /__\  \  |    /   |      \           
                |  |  |   | |  | | |   __   |  |    \   |  |\   \          
                \     /   | |  | | |  |  |  |  | |\  \  |  | \   \       
                 \___/    |_|  |_| |__|  |__|  |_| \__\ |__|  \__/        
                                                                              
                      - O R C A' S   B I G   F R I E N D -                    
                                      &                                       
                       - I N T E G R A L  F E E D E R -                       
                                                                              
 v1 FN, 2020, v2 2021                                                         
------------------------------------------------------------------------------


Reading SHARK input file /scratch/allen/tmpyp4_amber_gaff2/conf1/conf1/Conf109.orca.SHARKINP.tmp ... ok
----------------------
SHARK INTEGRAL PACKAGE
----------------------

Number of atoms                             ...     90
Number of basis functions                   ...   1230
Number of shells                            ...    738
Maximum angular momentum                    ...      2
Integral batch strategy                     ... SHARK/LIBINT Hybrid
RI-J (if used) integral strategy            ... SPLIT-RIJ (Revised 2003 algorithm where possible)
Printlevel                                  ...      1
Contraction scheme used                     ... PARTIAL GENERAL contraction
Coulomb Range Separation                    ... NOT USED
Exchange Range Separation                   ... NOT USED
Finite Nucleus Model                        ... NOT USED
Auxiliary Coulomb fitting basis             ... NOT available
Auxiliary J/K fitting basis                 ... NOT available
Auxiliary Correlation fitting basis         ... NOT available
Auxiliary 'external' fitting basis          ... NOT available
Integral threshold                          ...     2.500000e-11
Primitive cut-off                           ...     2.500000e-12
Primitive pair pre-selection threshold      ...     2.500000e-12

Calculating pre-screening integrals         ... done (  0.1 sec) Dimension = 738
Calculating pre-screening integrals (ORCA)  ... done (  0.3 sec) Dimension = 426
Organizing shell pair data                  ... done (  0.8 sec)
Shell pair information
Total number of shell pairs                 ...    272691
Shell pairs after pre-screening             ...     71576
Total number of primitive shell pairs       ...    422091
Primitive shell pairs kept                  ...     92335
          la=0 lb=0:  29402 shell pairs
          la=1 lb=0:  25956 shell pairs
          la=1 lb=1:   4683 shell pairs
          la=2 lb=0:   7879 shell pairs
          la=2 lb=1:   3125 shell pairs
          la=2 lb=2:    531 shell pairs

Calculating one electron integrals          ... done (  0.3 sec)
Calculating Nuclear repulsion               ... done (  0.0 sec) ENN=   6222.807456559788 Eh

SHARK setup successfully completed in   2.2 seconds

Maximum memory used throughout the entire GTOINT-calculation: 98.9 MB


           ************************************************************
           *        Program running with 16 parallel MPI-processes    *
           *              working on a common directory               *
           ************************************************************
-------------------------------------------------------------------------------
                                 ORCA SCF
-------------------------------------------------------------------------------

------------
SCF SETTINGS
------------
Hamiltonian:
 Ab initio Hamiltonian  Method          .... Hartree-Fock(GTOs)


General Settings:
 Integral files         IntName         .... /scratch/allen/tmpyp4_amber_gaff2/conf1/conf1/Conf109.orca
 Hartree-Fock type      HFTyp           .... RHF
 Total Charge           Charge          ....    0
 Multiplicity           Mult            ....    1
 Number of Electrons    NEL             ....  358
 Basis Dimension        Dim             ....  918
 Nuclear Repulsion      ENuc            ....   6222.8074565598 Eh

Convergence Acceleration:
 DIIS                   CNVDIIS         .... on
   Start iteration      DIISMaxIt       ....    12
   Startup error        DIISStart       ....  0.200000
   # of expansion vecs  DIISMaxEq       ....     5
   Bias factor          DIISBfac        ....   1.050
   Max. coefficient     DIISMaxC        ....  10.000
 Trust-Rad. Augm. Hess. CNVTRAH         .... auto
   Auto Start mean grad. ratio tolernc. ....  1.125000
   Auto Start start iteration           ....    20
   Auto Start num. interpolation iter.  ....    10
   Max. Number of Micro iterations      ....    16
   Max. Number of Macro iterations      .... Maxiter - #DIIS iter
   Number of Davidson start vectors     ....     2
   Converg. threshold I  (grad. norm)   ....   1.000e-05
   Converg. threshold II (energy diff.) ....   1.000e-08
   Grad. Scal. Fac. for Micro threshold ....   0.100
   Minimum threshold for Micro iter.    ....   0.010
   NR start threshold (gradient norm)   ....   0.001
   Initial trust radius                 ....   0.400
   Minimum AH scaling param. (alpha)    ....   1.000
   Maximum AH scaling param. (alpha)    .... 1000.000
   Orbital update algorithm             .... Taylor
   White noise on init. David. guess    .... on
   Maximum white noise                  ....   0.010
   Quad. conv. algorithm                .... NR
 SOSCF                  CNVSOSCF        .... on
   Start iteration      SOSCFMaxIt      ....   150
   Startup grad/error   SOSCFStart      ....  0.003300
 Level Shifting         CNVShift        .... on
   Level shift para.    LevelShift      ....    0.2500
   Turn off err/grad.   ShiftErr        ....    0.0010
 Zerner damping         CNVZerner       .... off
 Static damping         CNVDamp         .... on
   Fraction old density DampFac         ....    0.7000
   Max. Damping (<1)    DampMax         ....    0.9800
   Min. Damping (>=0)   DampMin         ....    0.0000
   Turn off err/grad.   DampErr         ....    0.1000
 Fernandez-Rico         CNVRico         .... off

SCF Procedure:
 Maximum # iterations   MaxIter         ....   125
 SCF integral mode      SCFMode         .... Direct
   Integral package                     .... SHARK and LIBINT hybrid scheme
 Reset frequency        DirectResetFreq ....    20
 Integral Threshold     Thresh          ....  2.500e-11 Eh
 Primitive CutOff       TCut            ....  2.500e-12 Eh

Convergence Tolerance:
 Convergence Check Mode ConvCheckMode   .... Total+1el-Energy
 Convergence forced     ConvForced      .... 1
 Energy Change          TolE            ....  1.000e-08 Eh
 1-El. energy change                    ....  1.000e-05 Eh
 Orbital Gradient       TolG            ....  1.000e-05
 Orbital Rotation angle TolX            ....  1.000e-05
 DIIS Error             TolErr          ....  5.000e-07


Diagonalization of the overlap matrix:
Smallest eigenvalue                        ... 2.261e-04
Time for diagonalization                   ...    0.397 sec
Threshold for overlap eigenvalues          ... 1.000e-08
Number of eigenvalues below threshold      ... 0
Time for construction of square roots      ...    0.245 sec
Total time needed                          ...    0.647 sec

Time for model grid setup =    1.066 sec

------------------------------
INITIAL GUESS: MODEL POTENTIAL
------------------------------
Loading Hartree-Fock densities                     ... done
Calculating cut-offs                               ... done
Initializing the effective Hamiltonian             ... done
Setting up the integral package (SHARK)            ... done
Starting the Coulomb interaction                   ... done (   1.2 sec)
Reading the grid                                   ... done
Mapping shells                                     ... done
Starting the XC term evaluation                    ... done (   0.2 sec)
Transforming the Hamiltonian                       ... done (   0.2 sec)
Diagonalizing the Hamiltonian                      ... done (   0.3 sec)
Back transforming the eigenvectors                 ... done (   0.1 sec)
Now organizing SCF variables                       ... done
                      ------------------
                      INITIAL GUESS DONE (   3.1 sec)
                      ------------------
--------------
SCF ITERATIONS
--------------
ITER       Energy         Delta-E        Max-DP      RMS-DP      [F,P]     Damp
               ***  Starting incremental Fock matrix formation  ***
  0  -2121.6553203346   0.000000000000 0.06923003  0.00121090  0.2341814 0.7000
  1  -2122.3236743466  -0.668354012038 0.05258077  0.00098149  0.1448169 0.7000
                               ***Turning on DIIS***
  2  -2122.7390414029  -0.415367056312 0.11670234  0.00222080  0.0804411 0.0000
  3  -2117.6906289291   5.048412473867 0.03293065  0.00068668  0.0444453 0.0000
  4  -2123.4026605602  -5.712031631119 0.00889862  0.00022965  0.0070609 0.0000
  5  -2123.5850462840  -0.182385723827 0.00514319  0.00013692  0.0049964 0.0000
  6  -2123.5670169962   0.018029287829 0.00350555  0.00009079  0.0020888 0.0000
  7  -2123.6727346679  -0.105717671682 0.00302304  0.00007376  0.0015853 0.0000
  8  -2123.6981133270  -0.025378659140 0.00287832  0.00007204  0.0014729 0.0000
  9  -2123.6588452015   0.039268125547 0.00243796  0.00005077  0.0011512 0.0000
 10  -2123.6788346430  -0.019989441587 0.00573483  0.00010893  0.0008656 0.0000
                      *** Initiating the SOSCF procedure ***
                           *** Shutting down DIIS ***
                      *** Re-Reading the Fockian *** 
                      *** Removing any level shift *** 
ITER      Energy       Delta-E        Grad      Rot      Max-DP    RMS-DP
 11  -2123.53321265   0.1456219917  0.000288  0.000288  0.000278  0.000007
               *** Restarting incremental Fock matrix formation ***
 12  -2123.61691725  -0.0837046017  0.000975  0.006758  0.001303  0.000035
 13  -2123.61702293  -0.0001056756  0.001152  0.029305  0.006305  0.000120
 14  -2123.61717682  -0.0001538920  0.000423  0.001806  0.000708  0.000013
 15  -2123.61719698  -0.0000201549  0.000352  0.007948  0.001267  0.000029
 16  -2123.61721574  -0.0000187636  0.000196  0.007382  0.001284  0.000028
 17  -2123.61722851  -0.0000127734  0.000316  0.010144  0.001198  0.000031
 18  -2123.61723997  -0.0000114545  0.000201  0.008697  0.001142  0.000027
 19  -2123.61724775  -0.0000077829  0.000176  0.003148  0.000533  0.000010
 20  -2123.61725010  -0.0000023494  0.000084  0.001460  0.000323  0.000006
 21  -2123.61725114  -0.0000010373  0.000068  0.000711  0.000192  0.000004
 22  -2123.61725183  -0.0000006948  0.000042  0.001232  0.000288  0.000005
 23  -2123.61725232  -0.0000004898  0.000035  0.001058  0.000180  0.000004
 24  -2123.61725251  -0.0000001916  0.000017  0.000681  0.000119  0.000002
 25  -2123.61725262  -0.0000001063  0.000017  0.000392  0.000076  0.000002
 26  -2123.61725268  -0.0000000615  0.000014  0.000413  0.000063  0.000001
 27  -2123.61725271  -0.0000000338  0.000009  0.000380  0.000054  0.000001
 28  -2123.61725274  -0.0000000215  0.000006  0.000248  0.000036  0.000001
 29  -2123.61725275  -0.0000000133  0.000005  0.000094  0.000018  0.000000
                  ***Gradient check signals convergence***
              ***Rediagonalizing the Fockian in SOSCF/NRSCF***

               *****************************************************
               *                     SUCCESS                       *
               *           SCF CONVERGED AFTER  30 CYCLES          *
               *****************************************************


----------------
TOTAL SCF ENERGY
----------------

Total Energy       :        -2123.61725275 Eh          -57786.56326 eV

Components:
Nuclear Repulsion  :         6222.80745656 Eh          169331.19952 eV
Electronic Energy  :        -8346.42470931 Eh         -227117.76278 eV
One Electron Energy:       -15287.00429994 Eh         -415980.53504 eV
Two Electron Energy:         6940.57959063 Eh          188862.77226 eV

Virial components:
Potential Energy   :        -4245.59669621 Eh         -115528.55946 eV
Kinetic Energy     :         2121.97944346 Eh           57741.99620 eV
Virial Ratio       :            2.00077183


---------------
SCF CONVERGENCE
---------------

  Last Energy change         ...   -2.4920e-09  Tolerance :   1.0000e-08
  Last MAX-Density change    ...    8.1846e-06  Tolerance :   1.0000e-07
  Last RMS-Density change    ...    1.9135e-07  Tolerance :   5.0000e-09
  Last Orbital Gradient      ...    2.2488e-06  Tolerance :   1.0000e-05
  Last Orbital Rotation      ...    4.2794e-05  Tolerance :   1.0000e-05

             **** THE GBW FILE WAS UPDATED (/scratch/allen/tmpyp4_amber_gaff2/conf1/conf1/Conf109.orca.gbw) ****
             **** DENSITY /scratch/allen/tmpyp4_amber_gaff2/conf1/conf1/Conf109.orca.scfp WAS UPDATED ****
             **** ENERGY FILE WAS UPDATED (/scratch/allen/tmpyp4_amber_gaff2/conf1/conf1/Conf109.orca.en.tmp) ****
             **** THE GBW FILE WAS UPDATED (/scratch/allen/tmpyp4_amber_gaff2/conf1/conf1/Conf109.orca.gbw) ****
             **** DENSITY /scratch/allen/tmpyp4_amber_gaff2/conf1/conf1/Conf109.orca.scfp WAS UPDATED ****
----------------
ORBITAL ENERGIES
----------------

  NO   OCC          E(Eh)            E(eV) 
   0   2.0000     -15.664150      -426.2432 
   1   2.0000     -15.638343      -425.5410 
   2   2.0000     -15.625543      -425.1926 
   3   2.0000     -15.608888      -424.7394 
   4   2.0000     -15.516926      -422.2370 
   5   2.0000     -15.512195      -422.1083 
   6   2.0000     -15.447043      -420.3354 
   7   2.0000     -15.435621      -420.0246 
   8   2.0000     -11.317602      -307.9676 
   9   2.0000     -11.314678      -307.8880 
  10   2.0000     -11.313562      -307.8577 
  11   2.0000     -11.302073      -307.5450 
  12   2.0000     -11.295799      -307.3743 
  13   2.0000     -11.293842      -307.3211 
  14   2.0000     -11.291454      -307.2561 
  15   2.0000     -11.284667      -307.0714 
  16   2.0000     -11.283673      -307.0443 
  17   2.0000     -11.280429      -306.9561 
  18   2.0000     -11.270526      -306.6866 
  19   2.0000     -11.267205      -306.5962 
  20   2.0000     -11.264526      -306.5233 
  21   2.0000     -11.251114      -306.1584 
  22   2.0000     -11.250861      -306.1515 
  23   2.0000     -11.241661      -305.9011 
  24   2.0000     -11.233556      -305.6806 
  25   2.0000     -11.232765      -305.6591 
  26   2.0000     -11.229692      -305.5755 
  27   2.0000     -11.223792      -305.4149 
  28   2.0000     -11.223661      -305.4113 
  29   2.0000     -11.214654      -305.1662 
  30   2.0000     -11.212115      -305.0972 
  31   2.0000     -11.211299      -305.0750 
  32   2.0000     -11.200353      -304.7771 
  33   2.0000     -11.200291      -304.7754 
  34   2.0000     -11.191079      -304.5247 
  35   2.0000     -11.190979      -304.5220 
  36   2.0000     -11.180805      -304.2452 
  37   2.0000     -11.180761      -304.2440 
  38   2.0000     -11.177970      -304.1680 
  39   2.0000     -11.169518      -303.9380 
  40   2.0000     -11.163358      -303.7704 
  41   2.0000     -11.162754      -303.7540 
  42   2.0000     -11.158342      -303.6339 
  43   2.0000     -11.157926      -303.6226 
  44   2.0000     -11.157146      -303.6014 
  45   2.0000     -11.155440      -303.5550 
  46   2.0000     -11.153631      -303.5057 
  47   2.0000     -11.151447      -303.4463 
  48   2.0000     -11.150546      -303.4218 
  49   2.0000     -11.146191      -303.3033 
  50   2.0000     -11.129501      -302.8491 
  51   2.0000     -11.127213      -302.7869 
  52   2.0000      -1.346073       -36.6285 
  53   2.0000      -1.324951       -36.0538 
  54   2.0000      -1.313622       -35.7455 
  55   2.0000      -1.299686       -35.3663 
  56   2.0000      -1.217083       -33.1185 
  57   2.0000      -1.209367       -32.9085 
  58   2.0000      -1.166584       -31.7444 
  59   2.0000      -1.148123       -31.2420 
  60   2.0000      -1.130257       -30.7559 
  61   2.0000      -1.112634       -30.2763 
  62   2.0000      -1.102918       -30.0119 
  63   2.0000      -1.090324       -29.6692 
  64   2.0000      -1.068438       -29.0737 
  65   2.0000      -1.048756       -28.5381 
  66   2.0000      -1.038193       -28.2507 
  67   2.0000      -1.031110       -28.0579 
  68   2.0000      -1.025330       -27.9007 
  69   2.0000      -1.013245       -27.5718 
  70   2.0000      -1.006095       -27.3772 
  71   2.0000      -0.992717       -27.0132 
  72   2.0000      -0.982055       -26.7231 
  73   2.0000      -0.974251       -26.5107 
  74   2.0000      -0.971747       -26.4426 
  75   2.0000      -0.960115       -26.1261 
  76   2.0000      -0.949297       -25.8317 
  77   2.0000      -0.947643       -25.7867 
  78   2.0000      -0.930390       -25.3172 
  79   2.0000      -0.921030       -25.0625 
  80   2.0000      -0.896439       -24.3934 
  81   2.0000      -0.888171       -24.1684 
  82   2.0000      -0.875635       -23.8272 
  83   2.0000      -0.865598       -23.5541 
  84   2.0000      -0.863198       -23.4888 
  85   2.0000      -0.855116       -23.2689 
  86   2.0000      -0.850069       -23.1316 
  87   2.0000      -0.835165       -22.7260 
  88   2.0000      -0.822348       -22.3772 
  89   2.0000      -0.796824       -21.6827 
  90   2.0000      -0.794909       -21.6306 
  91   2.0000      -0.743410       -20.2292 
  92   2.0000      -0.733042       -19.9471 
  93   2.0000      -0.726807       -19.7774 
  94   2.0000      -0.722710       -19.6659 
  95   2.0000      -0.716075       -19.4854 
  96   2.0000      -0.709914       -19.3177 
  97   2.0000      -0.704369       -19.1668 
  98   2.0000      -0.701329       -19.0841 
  99   2.0000      -0.693464       -18.8701 
 100   2.0000      -0.691705       -18.8223 
 101   2.0000      -0.682196       -18.5635 
 102   2.0000      -0.679320       -18.4852 
 103   2.0000      -0.673156       -18.3175 
 104   2.0000      -0.672441       -18.2980 
 105   2.0000      -0.668833       -18.1999 
 106   2.0000      -0.663593       -18.0573 
 107   2.0000      -0.659093       -17.9348 
 108   2.0000      -0.656376       -17.8609 
 109   2.0000      -0.655278       -17.8310 
 110   2.0000      -0.650071       -17.6893 
 111   2.0000      -0.647240       -17.6123 
 112   2.0000      -0.642549       -17.4847 
 113   2.0000      -0.636366       -17.3164 
 114   2.0000      -0.633640       -17.2422 
 115   2.0000      -0.632591       -17.2137 
 116   2.0000      -0.622701       -16.9446 
 117   2.0000      -0.616110       -16.7652 
 118   2.0000      -0.614038       -16.7088 
 119   2.0000      -0.608483       -16.5577 
 120   2.0000      -0.605868       -16.4865 
 121   2.0000      -0.600281       -16.3345 
 122   2.0000      -0.597845       -16.2682 
 123   2.0000      -0.593763       -16.1571 
 124   2.0000      -0.591501       -16.0956 
 125   2.0000      -0.584254       -15.8983 
 126   2.0000      -0.576071       -15.6757 
 127   2.0000      -0.571625       -15.5547 
 128   2.0000      -0.565749       -15.3948 
 129   2.0000      -0.562601       -15.3091 
 130   2.0000      -0.556683       -15.1481 
 131   2.0000      -0.548269       -14.9192 
 132   2.0000      -0.539970       -14.6933 
 133   2.0000      -0.534824       -14.5533 
 134   2.0000      -0.533519       -14.5178 
 135   2.0000      -0.531527       -14.4636 
 136   2.0000      -0.523895       -14.2559 
 137   2.0000      -0.521204       -14.1827 
 138   2.0000      -0.517735       -14.0883 
 139   2.0000      -0.514092       -13.9892 
 140   2.0000      -0.509259       -13.8576 
 141   2.0000      -0.506676       -13.7874 
 142   2.0000      -0.502199       -13.6655 
 143   2.0000      -0.499157       -13.5827 
 144   2.0000      -0.498216       -13.5571 
 145   2.0000      -0.496014       -13.4972 
 146   2.0000      -0.493331       -13.4242 
 147   2.0000      -0.490611       -13.3502 
 148   2.0000      -0.485731       -13.2174 
 149   2.0000      -0.465701       -12.6724 
 150   2.0000      -0.461218       -12.5504 
 151   2.0000      -0.453726       -12.3465 
 152   2.0000      -0.448495       -12.2042 
 153   2.0000      -0.442497       -12.0410 
 154   2.0000      -0.440705       -11.9922 
 155   2.0000      -0.439995       -11.9729 
 156   2.0000      -0.430836       -11.7237 
 157   2.0000      -0.423714       -11.5298 
 158   2.0000      -0.394182       -10.7262 
 159   2.0000      -0.385052       -10.4778 
 160   2.0000      -0.376086       -10.2338 
 161   2.0000      -0.373246       -10.1565 
 162   2.0000      -0.365754        -9.9527 
 163   2.0000      -0.359225        -9.7750 
 164   2.0000      -0.350173        -9.5287 
 165   2.0000      -0.339580        -9.2405 
 166   2.0000      -0.338306        -9.2058 
 167   2.0000      -0.335429        -9.1275 
 168   2.0000      -0.321482        -8.7480 
 169   2.0000      -0.299766        -8.1571 
 170   2.0000      -0.295289        -8.0352 
 171   2.0000      -0.286642        -7.7999 
 172   2.0000      -0.285216        -7.7611 
 173   2.0000      -0.259190        -7.0529 
 174   2.0000      -0.240259        -6.5378 
 175   2.0000      -0.185906        -5.0588 
 176   2.0000      -0.175584        -4.7779 
 177   2.0000      -0.062780        -1.7083 
 178   2.0000      -0.052393        -1.4257 
 179   0.0000       0.033151         0.9021 
 180   0.0000       0.066220         1.8019 
 181   0.0000       0.092130         2.5070 
 182   0.0000       0.096062         2.6140 
 183   0.0000       0.117887         3.2079 
 184   0.0000       0.134915         3.6712 
 185   0.0000       0.144431         3.9302 
 186   0.0000       0.150065         4.0835 
 187   0.0000       0.156093         4.2475 
 188   0.0000       0.162192         4.4135 
 189   0.0000       0.162832         4.4309 
 190   0.0000       0.169773         4.6197 
 191   0.0000       0.178391         4.8543 
 192   0.0000       0.189364         5.1529 
 193   0.0000       0.193239         5.2583 
 194   0.0000       0.201959         5.4956 
 195   0.0000       0.206828         5.6281 
 196   0.0000       0.209663         5.7052 
 197   0.0000       0.213582         5.8119 
 198   0.0000       0.218818         5.9543 
 199   0.0000       0.222034         6.0419 
 200   0.0000       0.225337         6.1317 
 201   0.0000       0.237327         6.4580 
 202   0.0000       0.242790         6.6066 
 203   0.0000       0.243783         6.6337 
 204   0.0000       0.251613         6.8467 
 205   0.0000       0.251897         6.8545 
 206   0.0000       0.255045         6.9401 
 207   0.0000       0.260882         7.0990 
 208   0.0000       0.262452         7.1417 
 209   0.0000       0.264427         7.1954 
 210   0.0000       0.265842         7.2339 
 211   0.0000       0.269686         7.3385 
 212   0.0000       0.271404         7.3853 
 213   0.0000       0.273016         7.4292 
 214   0.0000       0.275580         7.4989 
 215   0.0000       0.278579         7.5805 
 216   0.0000       0.279648         7.6096 
 217   0.0000       0.283587         7.7168 
 218   0.0000       0.284750         7.7484 
 219   0.0000       0.288043         7.8380 
 220   0.0000       0.290226         7.8975 
 221   0.0000       0.292602         7.9621 
 222   0.0000       0.294512         8.0141 
 223   0.0000       0.296289         8.0624 
 224   0.0000       0.298048         8.1103 
 225   0.0000       0.302219         8.2238 
 226   0.0000       0.303254         8.2520 
 227   0.0000       0.306602         8.3431 
 228   0.0000       0.308068         8.3830 
 229   0.0000       0.312705         8.5091 
 230   0.0000       0.314598         8.5606 
 231   0.0000       0.318978         8.6798 
 232   0.0000       0.324514         8.8305 
 233   0.0000       0.328486         8.9386 
 234   0.0000       0.333062         9.0631 
 235   0.0000       0.343240         9.3400 
 236   0.0000       0.358013         9.7420 
 237   0.0000       0.376774        10.2525 
 238   0.0000       0.396511        10.7896 
 239   0.0000       0.398989        10.8571 
 240   0.0000       0.403269        10.9735 
 241   0.0000       0.412548        11.2260 
 242   0.0000       0.416506        11.3337 
 243   0.0000       0.421478        11.4690 
 244   0.0000       0.423282        11.5181 
 245   0.0000       0.431589        11.7441 
 246   0.0000       0.433685        11.8012 
 247   0.0000       0.438122        11.9219 
 248   0.0000       0.442942        12.0531 
 249   0.0000       0.446417        12.1476 
 250   0.0000       0.448567        12.2061 
 251   0.0000       0.454207        12.3596 
 252   0.0000       0.457774        12.4567 
 253   0.0000       0.458074        12.4648 
 254   0.0000       0.469796        12.7838 
 255   0.0000       0.477128        12.9833 
 256   0.0000       0.484767        13.1912 
 257   0.0000       0.486188        13.2299 
 258   0.0000       0.489454        13.3187 
 259   0.0000       0.492521        13.4022 
 260   0.0000       0.499277        13.5860 
 261   0.0000       0.503342        13.6966 
 262   0.0000       0.506546        13.7838 
 263   0.0000       0.509546        13.8654 
 264   0.0000       0.512059        13.9338 
 265   0.0000       0.516536        14.0556 
 266   0.0000       0.520580        14.1657 
 267   0.0000       0.524179        14.2636 
 268   0.0000       0.534630        14.5480 
 269   0.0000       0.537231        14.6188 
 270   0.0000       0.543316        14.7844 
 271   0.0000       0.543935        14.8012 
 272   0.0000       0.545193        14.8354 
 273   0.0000       0.552922        15.0458 
 274   0.0000       0.563258        15.3270 
 275   0.0000       0.565364        15.3843 
 276   0.0000       0.573945        15.6178 
 277   0.0000       0.575804        15.6684 
 278   0.0000       0.577718        15.7205 
 279   0.0000       0.579601        15.7717 
 280   0.0000       0.586766        15.9667 
 281   0.0000       0.590625        16.0717 
 282   0.0000       0.593122        16.1397 
 283   0.0000       0.597259        16.2523 
 284   0.0000       0.600818        16.3491 
 285   0.0000       0.601336        16.3632 
 286   0.0000       0.606821        16.5124 
 287   0.0000       0.611766        16.6470 
 288   0.0000       0.613330        16.6896 
 289   0.0000       0.616332        16.7713 
 290   0.0000       0.620468        16.8838 
 291   0.0000       0.628372        17.0989 
 292   0.0000       0.631142        17.1742 
 293   0.0000       0.637272        17.3411 
 294   0.0000       0.645328        17.5603 
 295   0.0000       0.649909        17.6849 
 296   0.0000       0.651914        17.7395 
 297   0.0000       0.660151        17.9636 
 298   0.0000       0.664031        18.0692 
 299   0.0000       0.666209        18.1285 
 300   0.0000       0.668943        18.2029 
 301   0.0000       0.674182        18.3454 
 302   0.0000       0.675650        18.3854 
 303   0.0000       0.682007        18.5583 
 304   0.0000       0.683751        18.6058 
 305   0.0000       0.684555        18.6277 
 306   0.0000       0.687191        18.6994 
 307   0.0000       0.689344        18.7580 
 308   0.0000       0.694534        18.8992 
 309   0.0000       0.698312        19.0020 
 310   0.0000       0.700164        19.0524 
 311   0.0000       0.703386        19.1401 
 312   0.0000       0.708963        19.2919 
 313   0.0000       0.709936        19.3183 
 314   0.0000       0.710494        19.3335 
 315   0.0000       0.713721        19.4213 
 316   0.0000       0.718461        19.5503 
 317   0.0000       0.719615        19.5817 
 318   0.0000       0.720393        19.6029 
 319   0.0000       0.722370        19.6567 
 320   0.0000       0.725392        19.7389 
 321   0.0000       0.728102        19.8127 
 322   0.0000       0.732001        19.9188 
 323   0.0000       0.734132        19.9768 
 324   0.0000       0.737448        20.0670 
 325   0.0000       0.738526        20.0963 
 326   0.0000       0.740632        20.1536 
 327   0.0000       0.741892        20.1879 
 328   0.0000       0.747673        20.3452 
 329   0.0000       0.750796        20.4302 
 330   0.0000       0.753991        20.5171 
 331   0.0000       0.756170        20.5764 
 332   0.0000       0.757563        20.6143 
 333   0.0000       0.760499        20.6942 
 334   0.0000       0.766267        20.8512 
 335   0.0000       0.769832        20.9482 
 336   0.0000       0.774945        21.0873 
 337   0.0000       0.777066        21.1450 
 338   0.0000       0.784562        21.3490 
 339   0.0000       0.786110        21.3911 
 340   0.0000       0.789967        21.4961 
 341   0.0000       0.792438        21.5633 
 342   0.0000       0.795613        21.6497 
 343   0.0000       0.797948        21.7133 
 344   0.0000       0.803542        21.8655 
 345   0.0000       0.807330        21.9686 
 346   0.0000       0.808542        22.0015 
 347   0.0000       0.811432        22.0802 
 348   0.0000       0.815069        22.1792 
 349   0.0000       0.816407        22.2156 
 350   0.0000       0.819767        22.3070 
 351   0.0000       0.820144        22.3173 
 352   0.0000       0.825113        22.4525 
 353   0.0000       0.825712        22.4688 
 354   0.0000       0.826924        22.5017 
 355   0.0000       0.829152        22.5624 
 356   0.0000       0.831739        22.6328 
 357   0.0000       0.834831        22.7169 
 358   0.0000       0.836411        22.7599 
 359   0.0000       0.838576        22.8188 
 360   0.0000       0.840175        22.8623 
 361   0.0000       0.841979        22.9114 
 362   0.0000       0.844873        22.9902 
 363   0.0000       0.847087        23.0504 
 364   0.0000       0.850138        23.1334 
 365   0.0000       0.851903        23.1815 
 366   0.0000       0.854225        23.2446 
 367   0.0000       0.855693        23.2846 
 368   0.0000       0.859150        23.3787 
 369   0.0000       0.860531        23.4162 
 370   0.0000       0.864322        23.5194 
 371   0.0000       0.866367        23.5751 
 372   0.0000       0.874023        23.7834 
 373   0.0000       0.875762        23.8307 
 374   0.0000       0.879530        23.9332 
 375   0.0000       0.883192        24.0329 
 376   0.0000       0.886204        24.1148 
 377   0.0000       0.888337        24.1729 
 378   0.0000       0.889927        24.2161 
 379   0.0000       0.893510        24.3137 
 380   0.0000       0.897471        24.4214 
 381   0.0000       0.901165        24.5219 
 382   0.0000       0.902410        24.5558 
 383   0.0000       0.903418        24.5832 
 384   0.0000       0.905179        24.6312 
 385   0.0000       0.907512        24.6947 
 386   0.0000       0.908410        24.7191 
 387   0.0000       0.909969        24.7615 
 388   0.0000       0.914890        24.8954 
 389   0.0000       0.916200        24.9311 
 390   0.0000       0.919528        25.0216 
 391   0.0000       0.920531        25.0489 
 392   0.0000       0.922693        25.1078 
 393   0.0000       0.926757        25.2184 
 394   0.0000       0.926818        25.2200 
 395   0.0000       0.930072        25.3085 
 396   0.0000       0.931901        25.3583 
 397   0.0000       0.934830        25.4380 
 398   0.0000       0.937137        25.5008 
 399   0.0000       0.941893        25.6302 
 400   0.0000       0.944652        25.7053 
 401   0.0000       0.947393        25.7799 
 402   0.0000       0.950407        25.8619 
 403   0.0000       0.953798        25.9542 
 404   0.0000       0.956951        26.0400 
 405   0.0000       0.957066        26.0431 
 406   0.0000       0.959653        26.1135 
 407   0.0000       0.961973        26.1766 
 408   0.0000       0.966259        26.2932 
 409   0.0000       0.968929        26.3659 
 410   0.0000       0.975276        26.5386 
 411   0.0000       0.978853        26.6360 
 412   0.0000       0.984605        26.7925 
 413   0.0000       0.985276        26.8107 
 414   0.0000       0.992937        27.0192 
 415   0.0000       0.993528        27.0353 
 416   0.0000       1.001397        27.2494 
 417   0.0000       1.003963        27.3192 
 418   0.0000       1.008793        27.4506 
 419   0.0000       1.015182        27.6245 
 420   0.0000       1.023928        27.8625 
 421   0.0000       1.029269        28.0078 
 422   0.0000       1.032211        28.0879 
 423   0.0000       1.037562        28.2335 
 424   0.0000       1.043103        28.3843 
 425   0.0000       1.048052        28.5189 
 426   0.0000       1.057353        28.7720 
 427   0.0000       1.059941        28.8425 
 428   0.0000       1.067258        29.0416 
 429   0.0000       1.069753        29.1094 
 430   0.0000       1.079221        29.3671 
 431   0.0000       1.082655        29.4605 
 432   0.0000       1.087489        29.5921 
 433   0.0000       1.090624        29.6774 
 434   0.0000       1.097740        29.8710 
 435   0.0000       1.102059        29.9885 
 436   0.0000       1.105459        30.0811 
 437   0.0000       1.111240        30.2384 
 438   0.0000       1.114778        30.3346 
 439   0.0000       1.117428        30.4068 
 440   0.0000       1.119215        30.4554 
 441   0.0000       1.125818        30.6351 
 442   0.0000       1.127123        30.6706 
 443   0.0000       1.130674        30.7672 
 444   0.0000       1.134724        30.8774 
 445   0.0000       1.135370        30.8950 
 446   0.0000       1.138024        30.9672 
 447   0.0000       1.142151        31.0795 
 448   0.0000       1.142441        31.0874 
 449   0.0000       1.149604        31.2823 
 450   0.0000       1.152905        31.3721 
 451   0.0000       1.154581        31.4177 
 452   0.0000       1.157518        31.4977 
 453   0.0000       1.159200        31.5434 
 454   0.0000       1.160093        31.5677 
 455   0.0000       1.167981        31.7824 
 456   0.0000       1.173864        31.9425 
 457   0.0000       1.177259        32.0348 
 458   0.0000       1.178455        32.0674 
 459   0.0000       1.185821        32.2678 
 460   0.0000       1.186622        32.2896 
 461   0.0000       1.190958        32.4076 
 462   0.0000       1.200148        32.6577 
 463   0.0000       1.207730        32.8640 
 464   0.0000       1.209886        32.9227 
 465   0.0000       1.211838        32.9758 
 466   0.0000       1.213561        33.0227 
 467   0.0000       1.220484        33.2111 
 468   0.0000       1.222477        33.2653 
 469   0.0000       1.228000        33.4156 
 470   0.0000       1.229188        33.4479 
 471   0.0000       1.231322        33.5060 
 472   0.0000       1.238138        33.6914 
 473   0.0000       1.241015        33.7697 
 474   0.0000       1.243711        33.8431 
 475   0.0000       1.249752        34.0075 
 476   0.0000       1.250906        34.0389 
 477   0.0000       1.252074        34.0707 
 478   0.0000       1.255170        34.1549 
 479   0.0000       1.257007        34.2049 
 480   0.0000       1.259521        34.2733 
 481   0.0000       1.263000        34.3680 
 482   0.0000       1.264886        34.4193 
 483   0.0000       1.268148        34.5081 
 484   0.0000       1.270143        34.5623 
 485   0.0000       1.277461        34.7615 
 486   0.0000       1.280292        34.8385 
 487   0.0000       1.283610        34.9288 
 488   0.0000       1.289418        35.0868 
 489   0.0000       1.291042        35.1310 
 490   0.0000       1.293649        35.2020 
 491   0.0000       1.298471        35.3332 
 492   0.0000       1.304164        35.4881 
 493   0.0000       1.306619        35.5549 
 494   0.0000       1.310082        35.6492 
 495   0.0000       1.315556        35.7981 
 496   0.0000       1.318199        35.8700 
 497   0.0000       1.320813        35.9411 
 498   0.0000       1.331164        36.2228 
 499   0.0000       1.331899        36.2428 
 500   0.0000       1.333295        36.2808 
 501   0.0000       1.336889        36.3786 
 502   0.0000       1.340105        36.4661 
 503   0.0000       1.343281        36.5525 
 504   0.0000       1.345089        36.6017 
 505   0.0000       1.351427        36.7742 
[...]
      pz      :     0.021857  p :     0.079406
      px      :     0.043056
      py      :     0.014492
 77 H s       :     0.892659  s :     0.892659
      pz      :     0.047351  p :     0.078585
      px      :     0.015006
      py      :     0.016227
 78 H s       :     0.893082  s :     0.893082
      pz      :     0.025562  p :     0.078505
      px      :     0.020639
      py      :     0.032305
 79 H s       :     0.907878  s :     0.907878
      pz      :     0.022351  p :     0.087011
      px      :     0.021845
      py      :     0.042815
 80 H s       :     0.875747  s :     0.875747
      pz      :     0.038474  p :     0.083598
      px      :     0.029680
      py      :     0.015444
 81 H s       :     0.887708  s :     0.887708
      pz      :     0.037671  p :     0.083570
      px      :     0.016093
      py      :     0.029806
 82 H s       :     0.914732  s :     0.914732
      pz      :     0.022317  p :     0.087002
      px      :     0.031113
      py      :     0.033572
 83 H s       :     0.872190  s :     0.872190
      pz      :     0.039225  p :     0.083837
      px      :     0.015243
      py      :     0.029370
 84 H s       :     0.887737  s :     0.887737
      pz      :     0.035811  p :     0.084058
      px      :     0.031759
      py      :     0.016489
 85 H s       :     0.894667  s :     0.894667
      pz      :     0.022508  p :     0.079670
      px      :     0.014113
      py      :     0.043049
 86 H s       :     0.890592  s :     0.890592
      pz      :     0.024717  p :     0.078889
      px      :     0.033005
      py      :     0.021167
 87 H s       :     0.890550  s :     0.890550
      pz      :     0.047902  p :     0.078661
      px      :     0.015633
      py      :     0.015126
 88 H s       :     0.916552  s :     0.916552
      pz      :     0.022386  p :     0.086900
      px      :     0.042191
      py      :     0.022324
 89 H s       :     0.873349  s :     0.873349
      pz      :     0.037879  p :     0.083993
      px      :     0.030511
      py      :     0.015604


                      *****************************
                      * MAYER POPULATION ANALYSIS *
                      *****************************

  NA   - Mulliken gross atomic population
  ZA   - Total nuclear charge
  QA   - Mulliken gross atomic charge
  VA   - Mayer's total valence
  BVA  - Mayer's bonded valence
  FA   - Mayer's free valence

  ATOM       NA         ZA         QA         VA         BVA        FA
  0 C      5.7824     6.0000     0.2176     3.8171     3.8171     0.0000
  1 N      7.4303     7.0000    -0.4303     3.4148     3.4148    -0.0000
  2 C      6.0673     6.0000    -0.0673     3.9174     3.9174     0.0000
  3 N      7.3409     7.0000    -0.3409     3.4336     3.4336     0.0000
  4 C      6.0849     6.0000    -0.0849     3.9780     3.9780    -0.0000
  5 N      7.5638     7.0000    -0.5638     3.0769     3.0769    -0.0000
  6 C      6.0380     6.0000    -0.0380     3.9785     3.9785    -0.0000
  7 N      7.3375     7.0000    -0.3375     3.4433     3.4433     0.0000
  8 C      5.7844     6.0000     0.2156     3.8172     3.8172    -0.0000
  9 N      7.5644     7.0000    -0.5644     3.0884     3.0884    -0.0000
 10 C      5.8905     6.0000     0.1095     3.8800     3.8800     0.0000
 11 N      7.4377     7.0000    -0.4377     3.3835     3.3835    -0.0000
 12 C      6.0616     6.0000    -0.0616     3.9137     3.9137     0.0000
 13 N      7.4453     7.0000    -0.4453     3.3495     3.3495     0.0000
 14 C      5.7731     6.0000     0.2269     3.8031     3.8031    -0.0000
 15 N      7.4408     7.0000    -0.4408     3.3695     3.3695    -0.0000
 16 C      5.7543     6.0000     0.2457     3.7988     3.7988     0.0000
 17 C      6.0415     6.0000    -0.0415     3.9813     3.9813    -0.0000
 18 C      6.1835     6.0000    -0.1835     3.7136     3.7136     0.0000
 19 C      5.7740     6.0000     0.2260     3.8939     3.8939    -0.0000
 20 C      5.7996     6.0000     0.2004     3.8227     3.8227    -0.0000
 21 C      6.0681     6.0000    -0.0681     3.8988     3.8988    -0.0000
 22 C      6.0859     6.0000    -0.0859     3.9845     3.9845    -0.0000
 23 C      6.0575     6.0000    -0.0575     3.9883     3.9883    -0.0000
 24 C      5.7864     6.0000     0.2136     3.8261     3.8261    -0.0000
 25 C      5.8862     6.0000     0.1138     3.8902     3.8902     0.0000
 26 C      6.0715     6.0000    -0.0715     3.9039     3.9039    -0.0000
 27 C      5.7653     6.0000     0.2347     3.8946     3.8946     0.0000
 28 C      6.0457     6.0000    -0.0457     3.9885     3.9885     0.0000
 29 C      6.1907     6.0000    -0.1907     3.7297     3.7297    -0.0000
 30 C      5.7716     6.0000     0.2284     3.7866     3.7866    -0.0000
 31 C      5.8002     6.0000     0.1998     3.8308     3.8308    -0.0000
 32 C      6.0653     6.0000    -0.0653     3.9151     3.9151    -0.0000
 33 C      6.0921     6.0000    -0.0921     3.9859     3.9859    -0.0000
 34 C      6.0498     6.0000    -0.0498     3.9959     3.9959    -0.0000
 35 C      5.8090     6.0000     0.1910     3.8278     3.8278    -0.0000
 36 C      5.8825     6.0000     0.1175     3.9009     3.9009     0.0000
 37 C      6.0683     6.0000    -0.0683     3.9164     3.9164    -0.0000
 38 C      5.7589     6.0000     0.2411     3.7978     3.7978    -0.0000
 39 C      6.0637     6.0000    -0.0637     3.9952     3.9952    -0.0000
 40 C      6.1960     6.0000    -0.1960     3.7472     3.7472    -0.0000
 41 C      5.7823     6.0000     0.2177     3.8774     3.8774    -0.0000
 42 C      5.7920     6.0000     0.2080     3.8296     3.8296    -0.0000
 43 C      6.0754     6.0000    -0.0754     3.9046     3.9046     0.0000
 44 C      6.0891     6.0000    -0.0891     3.9849     3.9849     0.0000
 45 C      6.0458     6.0000    -0.0458     3.9937     3.9937    -0.0000
 46 C      5.8048     6.0000     0.1952     3.8230     3.8230    -0.0000
 47 C      5.8840     6.0000     0.1160     3.8949     3.8949    -0.0000
 48 C      6.0792     6.0000    -0.0792     3.9002     3.9002     0.0000
 49 C      5.7829     6.0000     0.2171     3.8751     3.8751     0.0000
 50 C      6.0592     6.0000    -0.0592     3.9899     3.9899     0.0000
 51 C      6.1903     6.0000    -0.1903     3.7380     3.7380     0.0000
 52 H      0.9340     1.0000     0.0660     0.9841     0.9841     0.0000
 53 H      1.0115     1.0000    -0.0115     1.0006     1.0006     0.0000
 54 H      0.9458     1.0000     0.0542     1.0060     1.0060    -0.0000
 55 H      0.9351     1.0000     0.0649     0.9847     0.9847    -0.0000
 56 H      0.9297     1.0000     0.0703     0.9723     0.9723    -0.0000
 57 H      0.9349     1.0000     0.0651     0.9837     0.9837     0.0000
 58 H      0.9360     1.0000     0.0640     0.9867     0.9867     0.0000
 59 H      1.0211     1.0000    -0.0211     0.9972     0.9972    -0.0000
 60 H      0.9478     1.0000     0.0522     1.0077     1.0077     0.0000
 61 H      0.8254     1.0000     0.1746     1.0431     1.0431    -0.0000
 62 H      0.8293     1.0000     0.1707     1.0434     1.0434     0.0000
 63 H      0.9439     1.0000     0.0561     0.9857     0.9857     0.0000
 64 H      1.0278     1.0000    -0.0278     0.9940     0.9940     0.0000
 65 H      0.9552     1.0000     0.0448     1.0086     1.0086     0.0000
 66 H      0.9424     1.0000     0.0576     0.9847     0.9847     0.0000
 67 H      0.9381     1.0000     0.0619     0.9718     0.9718    -0.0000
 68 H      0.9421     1.0000     0.0579     0.9866     0.9866    -0.0000
 69 H      0.9402     1.0000     0.0598     0.9831     0.9831    -0.0000
 70 H      1.0202     1.0000    -0.0202     0.9958     0.9958    -0.0000
 71 H      0.9513     1.0000     0.0487     1.0071     1.0071    -0.0000
 72 H      0.9529     1.0000     0.0471     0.9856     0.9856     0.0000
 73 H      1.0172     1.0000    -0.0172     0.9974     0.9974     0.0000
 74 H      0.9618     1.0000     0.0382     1.0096     1.0096    -0.0000
 75 H      0.9541     1.0000     0.0459     0.9862     0.9862     0.0000
 76 H      0.9458     1.0000     0.0542     0.9710     0.9710    -0.0000
 77 H      0.9478     1.0000     0.0522     0.9847     0.9847     0.0000
 78 H      0.9487     1.0000     0.0513     0.9841     0.9841     0.0000
 79 H      1.0125     1.0000    -0.0125     1.0007     1.0007     0.0000
 80 H      0.9618     1.0000     0.0382     1.0067     1.0067    -0.0000
 81 H      0.9475     1.0000     0.0525     0.9853     0.9853     0.0000
 82 H      1.0235     1.0000    -0.0235     0.9946     0.9946     0.0000
 83 H      0.9567     1.0000     0.0433     1.0100     1.0100    -0.0000
 84 H      0.9483     1.0000     0.0517     0.9859     0.9859     0.0000
 85 H      0.9429     1.0000     0.0571     0.9715     0.9715    -0.0000
 86 H      0.9434     1.0000     0.0566     0.9841     0.9841    -0.0000
 87 H      0.9441     1.0000     0.0559     0.9854     0.9854    -0.0000
 88 H      1.0267     1.0000    -0.0267     0.9927     0.9927     0.0000
 89 H      0.9571     1.0000     0.0429     1.0063     1.0063    -0.0000

  Mayer bond orders larger than 0.100000
B(  0-C ,  1-N ) :   1.1497 B(  0-C , 17-C ) :   1.5868 B(  0-C , 52-H ) :   0.9685 
B(  1-N ,  8-C ) :   1.1451 B(  1-N , 10-C ) :   0.9478 B(  2-C , 12-C ) :   1.5535 
B(  2-C , 16-C ) :   1.3017 B(  2-C , 53-H ) :   0.9785 B(  3-N , 14-C ) :   1.1887 
B(  3-N , 16-C ) :   1.1997 B(  3-N , 61-H ) :   0.8972 B(  4-C ,  6-C ) :   1.3034 
B(  4-C , 17-C ) :   1.3069 B(  4-C , 18-C ) :   1.1676 B(  5-N , 19-C ) :   1.3929 
B(  5-N , 27-C ) :   1.4265 B(  6-C ,  8-C ) :   1.5903 B(  6-C , 54-H ) :   0.9713 
B(  7-N , 30-C ) :   1.1883 B(  7-N , 38-C ) :   1.2086 B(  7-N , 62-H ) :   0.8996 
B(  8-C , 55-H ) :   0.9695 B(  9-N , 41-C ) :   1.4192 B(  9-N , 49-C ) :   1.4071 
B( 10-C , 56-H ) :   0.9763 B( 10-C , 57-H ) :   0.9818 B( 10-C , 58-H ) :   0.9824 
B( 11-N , 20-C ) :   1.1153 B( 11-N , 24-C ) :   1.1324 B( 11-N , 25-C ) :   0.9583 
B( 12-C , 14-C ) :   1.3026 B( 12-C , 59-H ) :   0.9780 B( 13-N , 31-C ) :   1.1042 
B( 13-N , 35-C ) :   1.0946 B( 13-N , 36-C ) :   0.9704 B( 14-C , 18-C ) :   1.2289 
B( 15-N , 42-C ) :   1.1216 B( 15-N , 46-C ) :   1.1047 B( 15-N , 47-C ) :   0.9635 
B( 16-C , 51-C ) :   1.2205 B( 17-C , 60-H ) :   0.9714 B( 18-C , 19-C ) :   1.2589 
B( 19-C , 21-C ) :   1.1921 B( 20-C , 28-C ) :   1.6221 B( 20-C , 63-H ) :   0.9704 
B( 21-C , 26-C ) :   1.6574 B( 21-C , 64-H ) :   0.9736 B( 22-C , 23-C ) :   1.2733 
B( 22-C , 28-C ) :   1.2803 B( 22-C , 29-C ) :   1.2384 B( 23-C , 24-C ) :   1.6222 
B( 23-C , 65-H ) :   0.9715 B( 24-C , 66-H ) :   0.9690 B( 25-C , 67-H ) :   0.9763 
B( 25-C , 68-H ) :   0.9831 B( 25-C , 69-H ) :   0.9820 B( 26-C , 27-C ) :   1.1938 
B( 26-C , 70-H ) :   0.9743 B( 27-C , 29-C ) :   1.2328 B( 28-C , 71-H ) :   0.9711 
B( 29-C , 30-C ) :   1.1978 B( 30-C , 32-C ) :   1.3279 B( 31-C , 39-C ) :   1.6556 
B( 31-C , 72-H ) :   0.9703 B( 32-C , 37-C ) :   1.5306 B( 32-C , 73-H ) :   0.9774 
B( 33-C , 34-C ) :   1.2556 B( 33-C , 39-C ) :   1.2476 B( 33-C , 40-C ) :   1.2974 
B( 34-C , 35-C ) :   1.6531 B( 34-C , 74-H ) :   0.9707 B( 35-C , 75-H ) :   0.9703 
B( 36-C , 76-H ) :   0.9759 B( 36-C , 77-H ) :   0.9823 B( 36-C , 78-H ) :   0.9835 
B( 37-C , 38-C ) :   1.3265 B( 37-C , 79-H ) :   0.9785 B( 38-C , 40-C ) :   1.1959 
B( 39-C , 80-H ) :   0.9719 B( 40-C , 41-C ) :   1.1945 B( 41-C , 43-C ) :   1.2353 
B( 42-C , 50-C ) :   1.6361 B( 42-C , 81-H ) :   0.9696 B( 43-C , 48-C ) :   1.6158 
B( 43-C , 82-H ) :   0.9745 B( 44-C , 45-C ) :   1.2760 B( 44-C , 50-C ) :   1.2602 
B( 44-C , 51-C ) :   1.2528 B( 45-C , 46-C ) :   1.6316 B( 45-C , 83-H ) :   0.9707 
B( 46-C , 84-H ) :   0.9705 B( 47-C , 85-H ) :   0.9761 B( 47-C , 86-H ) :   0.9827 
B( 47-C , 87-H ) :   0.9828 B( 48-C , 49-C ) :   1.2322 B( 48-C , 88-H ) :   0.9732 
B( 49-C , 51-C ) :   1.2035 B( 50-C , 89-H ) :   0.9717 

-------
TIMINGS
-------

Total SCF time: 0 days 0 hours 32 min 11 sec 

Total time                  ....    1931.270 sec
Sum of individual times     ....    1926.609 sec  ( 99.8%)

Fock matrix formation       ....    1902.310 sec  ( 98.5%)
Diagonalization             ....       6.876 sec  (  0.4%)
Density matrix formation    ....       0.735 sec  (  0.0%)
Population analysis         ....       0.519 sec  (  0.0%)
Initial guess               ....       2.084 sec  (  0.1%)
Orbital Transformation      ....       0.000 sec  (  0.0%)
Orbital Orthonormalization  ....       0.000 sec  (  0.0%)
DIIS solution               ....       3.530 sec  (  0.2%)
SOSCF solution              ....       9.489 sec  (  0.5%)

Maximum memory used throughout the entire SCF-calculation: 302.6 MB


           ************************************************************
           *        Program running with 16 parallel MPI-processes    *
           *              working on a common directory               *
           ************************************************************

------------------------------------------------------------------------------
                                ORCA  MP2 
------------------------------------------------------------------------------

Freezing NCore=104 chemical core electrons

----------
MP2 ENERGY (disk based algorithm)
----------

Dimension of the basis                    ...  918
Memory devoted to MP2                     ... 2000 MB   
Data format for buffers                   ... DOUBLE
Compression type for matrix containers    ... UNCOMPRESSED

-------------------------------
PARTIAL EXCHANGE TRANSFORMATION
-------------------------------

Transformation type                        ... one-operator
Generation of integrals (i,mue|j,nue)      ... ON
Generation of integrals (mue,kappa|nue,tau)... OFF
Generation of integrals (i,mue|a,nue)      ... OFF
Dimension of the basis                     ...  918
Number of internal MOs                     ...  127 (  52- 178)
Pair cutoff                                ... 2.500e-12 Eh
Number of AO pairs in the trafo            ... 421821
Total Number of distinct AO pairs          ... 421821
Memory devoted for trafo                   ... 2000.0 MB 
Max. Number of MO pairs treated together   ...  311      
Number Format for Storage                  ... Double (8 Byte)
Integral package used                      ... LIBINT

Starting integral evaluation:
    ... done with AO integral generation
Closing buffer AOK     (38.01 GB; CompressionRatio= 1.33)
Collecting buffer AOK 
Number of MO pairs included in the trafo   ... 8128
------------------------
SORTING OF (i,mue|j,nue)
------------------------

IBATCH = 1 of  2
IBATCH = 2 of  2
Closing buffer KAO     (51.03 GB; CompressionRatio= 1.00)
Collecting buffer KAO 
N(AO-Batches) Done                         ...  85460518 
N(AO-Batches) Skipped                      ...  82220781 
N(IJ)-pairs Skipped                        ...         0 
TOTAL TIME for half transformation         ...  3110.890 sec
AO-integral generation                     ...   211.860 sec
Half transformation                        ...   374.901 sec
K-integral sorting                         ...  2344.841 sec
Process 10:   Internal MO 132
Process 13:   Internal MO 156
Process  4:   Internal MO  84
Process  7:   Internal MO 108

Finished integral transformation - now doing MP2 part

Process  1:   Internal MO  60
OPERATOR COMBINATION   0   0: ij=( 52..178, 52..178)
Process  2:   Internal MO  69
Process  0:   Internal MO  54
Process  8:   Internal MO 117
Process  5:   Internal MO  93
Process  1:   Internal MO  63
Process  0:   Internal MO  57
Process  4:   Internal MO  87
Process  2:   Internal MO  72
Process  6:   Internal MO 102
Process  3:   Internal MO  78
Process 11:   Internal MO 141
Process 14:   Internal MO 165
Process  9:   Internal MO 126
Process  1:   Internal MO  66
Process  2:   Internal MO  75
Process  4:   Internal MO  90
Process  7:   Internal MO 111
Process 12:   Internal MO 150
Process  3:   Internal MO  81
Process  5:   Internal MO  96
Process  6:   Internal MO 105
Process 15:   Internal MO 174
Process  8:   Internal MO 120
Process 10:   Internal MO 135
Process  7:   Internal MO 114
Process  9:   Internal MO 129
Process  5:   Internal MO  99
Process 11:   Internal MO 144
Process 13:   Internal MO 159
Process 12:   Internal MO 153
Process 14:   Internal MO 168
Process 10:   Internal MO 138
Process  8:   Internal MO 123
Process 15:   Internal MO 177
Process 11:   Internal MO 147
Process 13:   Internal MO 162
Process 14:   Internal MO 171
-----------------------------------------------
 MP2 CORRELATION ENERGY   :     -7.285430388 Eh
-----------------------------------------------


-------
TIMINGS
-------
Total time                : 3474.285 sec
Integral trafo            : 3113.037 sec ( 89.6%)
K(i,j)                    :   21.300 sec (  0.6%)
T(i,j)                    :    2.069 sec (  0.1%)

---------------------------------------
MP2 TOTAL ENERGY:    -2130.902683140 Eh
---------------------------------------

Maximum memory used throughout the entire MP2-calculation: 2275.2 MB

-------------------------   --------------------
FINAL SINGLE POINT ENERGY     -2130.902683140047
-------------------------   --------------------


                            ***************************************
                            *     ORCA property calculations      *
                            ***************************************


  WARNING: The energy has been calculated at the MP2 level but the densities
           used in the property calculations are still SCF densities
           MP2 response densities have not been calculated 
           use %mp2 Density relaxed end
           or  %mp2 Density unrelaxed end

                                    ---------------------
                                    Active property flags
                                    ---------------------
   (+) Dipole Moment


------------------------------------------------------------------------------
                       ORCA ELECTRIC PROPERTIES CALCULATION
------------------------------------------------------------------------------

Dipole Moment Calculation                       ... on
Quadrupole Moment Calculation                   ... off
Polarizability Calculation                      ... off
GBWName                                         ... /scratch/allen/tmpyp4_amber_gaff2/conf1/conf1/Conf109.orca.gbw
Electron density                                ... /scratch/allen/tmpyp4_amber_gaff2/conf1/conf1/Conf109.orca.scfp
The origin for moment calculation is the CENTER OF MASS  = ( 0.002408, -0.002510  0.003592)

-------------
DIPOLE MOMENT
-------------
                                X             Y             Z
Electronic contribution:     -2.22253       1.79708      -0.18514
Nuclear contribution   :     -0.00967       0.17863       0.22213
                        -----------------------------------------
Total Dipole Moment    :     -2.23219       1.97572       0.03700
                        -----------------------------------------
Magnitude (a.u.)       :      2.98119
Magnitude (Debye)      :      7.57759



--------------------
Rotational spectrum 
--------------------
 
Rotational constants in cm-1:     0.001498     0.001473     0.000763 
Rotational constants in MHz :    44.902720    44.163821    22.861271 

 Dipole components along the rotational axes: 
x,y,z [a.u.] :    -2.809676     0.995982     0.035284 
x,y,z [Debye]:    -7.141628     2.531585     0.089685 

 

Timings for individual modules:

Sum of individual times         ...     5428.412 sec (=  90.474 min)
GTO integral calculation        ...        3.264 sec (=   0.054 min)   0.1 %
SCF iterations                  ...     1932.315 sec (=  32.205 min)  35.6 %
MP2 module                      ...     3492.832 sec (=  58.214 min)  64.3 %
                             ****ORCA TERMINATED NORMALLY****
TOTAL RUN TIME: 0 days 1 hours 30 minutes 31 seconds 845 msec
# of primitive gaussian functions

