
                                 *****************
                                 * O   R   C   A *
                                 *****************

                                            #,                                       
                                            ###                                      
                                            ####                                     
                                            #####                                    
                                            ######                                   
                                           ########,                                 
                                     ,,################,,,,,                         
                               ,,#################################,,                 
                          ,,##########################################,,             
                       ,#########################################, ''#####,          
                    ,#############################################,,   '####,        
                  ,##################################################,,,,####,       
                ,###########''''           ''''###############################       
              ,#####''   ,,,,##########,,,,          '''####'''          '####       
            ,##' ,,,,###########################,,,                        '##       
           ' ,,###''''                  '''############,,,                           
         ,,##''                                '''############,,,,        ,,,,,,###''
      ,#''                                            '''#######################'''  
     '                                                          ''''####''''         
             ,#######,   #######,   ,#######,      ##                                
            ,#'     '#,  ##    ##  ,#'     '#,    #''#        ######   ,####,        
            ##       ##  ##   ,#'  ##            #'  '#       #        #'  '#        
            ##       ##  #######   ##           ,######,      #####,   #    #        
            '#,     ,#'  ##    ##  '#,     ,#' ,#      #,         ##   #,  ,#        
             '#######'   ##     ##  '#######'  #'      '#     #####' # '####'        



                  #######################################################
                  #                        -***-                        #
                  #          Department of theory and spectroscopy      #
                  #    Directorship and core code : Frank Neese         #
                  #        Max Planck Institute fuer Kohlenforschung    #
                  #                Kaiser Wilhelm Platz 1               #
                  #                 D-45470 Muelheim/Ruhr               #
                  #                      Germany                        #
                  #                                                     #
                  #                  All rights reserved                #
                  #                        -***-                        #
                  #######################################################


                         Program Version 5.0.4 -  RELEASE  -


 With contributions from (in alphabetic order):
   Daniel Aravena         : Magnetic Suceptibility
   Michael Atanasov       : Ab Initio Ligand Field Theory (pilot matlab implementation)
   Alexander A. Auer      : GIAO ZORA, VPT2 properties, NMR spectrum
   Ute Becker             : Parallelization
   Giovanni Bistoni       : ED, misc. LED, open-shell LED, HFLD
   Martin Brehm           : Molecular dynamics
   Dmytro Bykov           : SCF Hessian
   Vijay G. Chilkuri      : MRCI spin determinant printing, contributions to CSF-ICE
   Dipayan Datta          : RHF DLPNO-CCSD density
   Achintya Kumar Dutta   : EOM-CC, STEOM-CC
   Dmitry Ganyushin       : Spin-Orbit,Spin-Spin,Magnetic field MRCI
   Miquel Garcia          : C-PCM and meta-GGA Hessian, CC/C-PCM, Gaussian charge scheme
   Yang Guo               : DLPNO-NEVPT2, F12-NEVPT2, CIM, IAO-localization
   Andreas Hansen         : Spin unrestricted coupled pair/coupled cluster methods
   Benjamin Helmich-Paris : MC-RPA, TRAH-SCF, COSX integrals
   Lee Huntington         : MR-EOM, pCC
   Robert Izsak           : Overlap fitted RIJCOSX, COSX-SCS-MP3, EOM
   Marcus Kettner         : VPT2
   Christian Kollmar      : KDIIS, OOCD, Brueckner-CCSD(T), CCSD density, CASPT2, CASPT2-K
   Simone Kossmann        : Meta GGA functionals, TD-DFT gradient, OOMP2, MP2 Hessian
   Martin Krupicka        : Initial AUTO-CI
   Lucas Lang             : DCDCAS
   Marvin Lechner         : AUTO-CI (C++ implementation), FIC-MRCC
   Dagmar Lenk            : GEPOL surface, SMD
   Dimitrios Liakos       : Extrapolation schemes; Compound Job, initial MDCI parallelization
   Dimitrios Manganas     : Further ROCIS development; embedding schemes
   Dimitrios Pantazis     : SARC Basis sets
   Anastasios Papadopoulos: AUTO-CI, single reference methods and gradients
   Taras Petrenko         : DFT Hessian,TD-DFT gradient, ASA, ECA, R-Raman, ABS, FL, XAS/XES, NRVS
   Peter Pinski           : DLPNO-MP2, DLPNO-MP2 Gradient
   Christoph Reimann      : Effective Core Potentials
   Marius Retegan         : Local ZFS, SOC
   Christoph Riplinger    : Optimizer, TS searches, QM/MM, DLPNO-CCSD(T), (RO)-DLPNO pert. Triples
   Tobias Risthaus        : Range-separated hybrids, TD-DFT gradient, RPA, STAB
   Michael Roemelt        : Original ROCIS implementation
   Masaaki Saitow         : Open-shell DLPNO-CCSD energy and density
   Barbara Sandhoefer     : DKH picture change effects
   Avijit Sen             : IP-ROCIS
   Kantharuban Sivalingam : CASSCF convergence, NEVPT2, FIC-MRCI
   Bernardo de Souza      : ESD, SOC TD-DFT
   Georgi Stoychev        : AutoAux, RI-MP2 NMR, DLPNO-MP2 response
   Willem Van den Heuvel  : Paramagnetic NMR
   Boris Wezisla          : Elementary symmetry handling
   Frank Wennmohs         : Technical directorship


 We gratefully acknowledge several colleagues who have allowed us to
 interface, adapt or use parts of their codes:
   Stefan Grimme, W. Hujo, H. Kruse, P. Pracht,  : VdW corrections, initial TS optimization,
                  C. Bannwarth, S. Ehlert          DFT functionals, gCP, sTDA/sTD-DF
   Ed Valeev, F. Pavosevic, A. Kumar             : LibInt (2-el integral package), F12 methods
   Garnet Chan, S. Sharma, J. Yang, R. Olivares  : DMRG
   Ulf Ekstrom                                   : XCFun DFT Library
   Mihaly Kallay                                 : mrcc  (arbitrary order and MRCC methods)
   Jiri Pittner, Ondrej Demel                    : Mk-CCSD
   Frank Weinhold                                : gennbo (NPA and NBO analysis)
   Christopher J. Cramer and Donald G. Truhlar   : smd solvation model
   Lars Goerigk                                  : TD-DFT with DH, B97 family of functionals
   V. Asgeirsson, H. Jonsson                     : NEB implementation
   FAccTs GmbH                                   : IRC, NEB, NEB-TS, DLPNO-Multilevel, CI-OPT
                                                   MM, QMMM, 2- and 3-layer-ONIOM, Crystal-QMMM,
                                                   LR-CPCM, SF, NACMEs, symmetry and pop. for TD-DFT,
                                                   nearIR, NL-DFT gradient (VV10), updates on ESD,
                                                   ML-optimized integration grids
   S Lehtola, MJT Oliveira, MAL Marques          : LibXC Library
   Liviu Ungur et al                             : ANISO software


 Your calculation uses the libint2 library for the computation of 2-el integrals
 For citations please refer to: http://libint.valeyev.net

 Your ORCA version has been built with support for libXC version: 5.1.0
 For citations please refer to: https://tddft.org/programs/libxc/

 This ORCA versions uses:
   CBLAS   interface :  Fast vector & matrix operations
   LAPACKE interface :  Fast linear algebra routines
   SCALAPACK package :  Parallel linear algebra routines
   Shared memory     :  Shared parallel matrices
   BLAS/LAPACK       :  OpenBLAS 0.3.15  USE64BITINT DYNAMIC_ARCH NO_AFFINITY Sandybridge SINGLE_THREADED
        Core in use  :  Sandybridge
   Copyright (c) 2011-2014, The OpenBLAS Project


================================================================================

----- Orbital basis set information -----
Your calculation utilizes the basis: cc-pVDZ 
       H, B-Ne : Obtained from the ccRepo (grant-hill.group.shef.ac.uk/ccrepo) Feb. 2017
                 T. H. Dunning, Jr., J. Chem. Phys. 90, 1007 (1989)
            He : Obtained from the ccRepo (grant-hill.group.shef.ac.uk/ccrepo) Feb. 2017
                 D. E. Woon, T. H. Dunning, Jr., J. Chem. Phys. 100, 2975 (1994)
  Li-Be, Na-Mg : Obtained from the ccRepo (grant-hill.group.shef.ac.uk/ccrepo) Feb. 2017
                 B. P. Prascher, D. E. Woon, K. A. Peterson, T. H. Dunning, Jr., A. K. Wilson, Theor. Chem. Acc. 128, 69 (2011)
         Al-Ar : Obtained from the ccRepo (grant-hill.group.shef.ac.uk/ccrepo) Feb. 2017
                 D. E. Woon, T. H. Dunning, Jr., J. Chem. Phys. 98, 1358 (1993)
            Ca : Obtained from the Peterson Research Group Website (tyr0.chem.wsu.edu/~kipeters) Feb. 2017
                 J. Koput, K. A. Peterson, J. Phys. Chem. 106, 9595 (2002)
         Sc-Zn : Obtained from the ccRepo (grant-hill.group.shef.ac.uk/ccrepo) Feb. 2017
                 N. B. Balabanov, K. A. Peterson, J. Chem. Phys. 123, 064107 (2005)
                 N. B. Balabanov, K. A. Peterson, J. Chem. Phys. 125, 074110 (2006)
         Ga-Kr : Obtained from the ccRepo (grant-hill.group.shef.ac.uk/ccrepo) Feb. 2017
                 A. K. Wilson, D. E. Woon, K. A. Peterson, T. H. Dunning, Jr., J. Chem. Phys. 110, 7667 (1999)

================================================================================
                                        WARNINGS
                       Please study these warnings very carefully!
================================================================================


WARNING: No MP2 level density has been requested!
         To caclulate MP2 level properties use
         %mp2 Density relaxed end
         or
         %mp2 Density unrelaxed end

WARNING: Post HF methods need fully converged wavefunctions
  ===> : Setting SCFConvForced true
         You can overwrite this default with %scf ConvForced false 


INFO   : the flag for use of the SHARK integral package has been found!

================================================================================
                                       INPUT FILE
================================================================================
NAME = /scratch/allen/tmpyp4_amber_gaff2/2.Mdgx/conf11/conf11/Conf358.orca
|  1> ! PAL2
|  2> ! mp2 cc-pvdz TightSCF  NoKeepInts
|  3> 
|  4> %scf
|  5>   MaxCore 2000
|  6> end
|  7> %mp2
|  8>   MaxCore 2000
|  9> end
| 10> * xyz 0 1
| 11>    C       -3.03700         6.49100         0.18800
| 12>    C        1.47400         4.04100         0.05700
| 13>    C       -2.80200         4.09300         0.04900
| 14>    C       -4.20100         4.01200        -0.02900
| 15>    C       -4.96500         5.16200         0.00100
| 16>    C       -5.22600         7.59300         0.10200
| 17>    C        0.13200         4.30700         0.06100
| 18>    C       -0.56900         3.05600         0.04700
| 19>    C        1.64900         2.61800         0.02300
| 20>    C       -2.23000         5.37000         0.15600
| 21>    N       -4.38200         6.37800         0.11100
| 22>    N        0.38800         2.06700         0.02500
| 23>    N       -2.01000         0.39500        -0.07500
| 24>    N       -0.38800        -2.07400        -0.02700
| 25>    N        2.01000        -0.40100         0.06500
| 26>    C       -1.96000         2.86100         0.02400
| 27>    C       -2.62300         1.61500        -0.01800
| 28>    C       -5.57300        -4.32900         1.06600
| 29>    C       -4.07300         1.47100         0.05600
| 30>    C       -4.10600        -2.75600        -0.02600
| 31>    C       -4.99500        -2.75700        -1.11100
| 32>    C       -6.13200        -3.54200        -1.07600
| 33>    C       -7.65100        -5.11300         0.04000
| 34>    C       -4.32400         0.14100         0.03700
| 35>    C       -3.02500        -0.52000        -0.04800
| 36>    C       -4.42200        -3.56600         1.07500
| 37>    N       -6.40700        -4.31300         0.00100
| 38>    C       -2.86700        -1.92200        -0.04000
| 39>    C       -1.65000        -2.62400        -0.02700
| 40>    C        3.56800        -6.14200        -1.04000
| 41>    C       -1.47600        -4.04900        -0.03400
| 42>    C        2.80300        -4.09900        -0.00800
| 43>    C        3.65700        -4.38400         1.06900
| 44>    C        4.42700        -5.53000         1.05900
| 45>    C        5.24500        -7.58800         0.01400
| 46>    C       -0.13400        -4.31500        -0.02200
| 47>    C        0.56800        -3.06400        -0.02700
| 48>    C        2.77500        -5.01200        -1.07400
| 49>    N        4.37600        -6.39100         0.01700
| 50>    C        1.95900        -2.86900        -0.00900
| 51>    C        2.62100        -1.62200         0.00900
| 52>    C        5.54300         4.33900        -1.13000
| 53>    C        4.07000        -1.47900        -0.09400
| 54>    C        4.10400         2.75100        -0.02100
| 55>    C        5.02700         2.72900         1.03600
| 56>    C        6.16600         3.50900         0.97800
| 57>    C        7.61900         5.15300        -0.11500
| 58>    C        4.32100        -0.14800        -0.09200
| 59>    C        3.02500         0.51400         0.01500
| 60>    C        4.38700         3.58200        -1.11500
| 61>    C        2.86600         1.91600         0.01300
| 62>    N        6.41300         4.29600        -0.09500
| 63>    H       -2.63900         7.49400         0.28200
| 64>    H        2.27400         4.76600         0.08100
| 65>    H       -4.70100         3.05600        -0.12300
| 66>    H       -6.04500         5.15000        -0.06500
| 67>    H       -5.41000         7.89100        -0.93300
| 68>    H       -6.16900         7.36900         0.60100
| 69>    H       -4.70300         8.38800         0.63200
| 70>    H       -0.33200         5.28200         0.06900
| 71>    H       -1.15600         5.49800         0.23400
| 72>    H        0.18200         1.07200         0.00500
| 73>    H       -0.18300        -1.08000        -0.02100
| 74>    H       -5.86400        -4.96200         1.89500
| 75>    H       -4.79400         2.27200         0.13900
| 76>    H       -4.80000        -2.16000        -1.99400
| 77>    H       -6.84100        -3.58200        -1.89300
| 78>    H       -8.42800        -4.53600         0.54600
| 79>    H       -7.95600        -5.33700        -0.98100
| 80>    H       -7.45600        -6.03700         0.58400
| 81>    H       -5.28700        -0.34400         0.10000
| 82>    H       -3.78000        -3.60100         1.94700
| 83>    H        3.58700        -6.86800        -1.84300
| 84>    H       -2.27600        -4.77400        -0.05000
| 85>    H        3.71400        -3.72400         1.92600
| 86>    H        5.09200        -5.79500         1.87100
| 87>    H        6.20500        -7.32900        -0.43900
| 88>    H        5.39300        -7.91700         1.04200
| 89>    H        4.75900        -8.37300        -0.56400
| 90>    H        0.32900        -5.29000        -0.00800
| 91>    H        2.14600        -4.84200        -1.94000
| 92>    H        5.80800         4.98600        -1.95600
| 93>    H        4.78800        -2.28100        -0.18500
| 94>    H        4.86000         2.11400         1.91200
| 95>    H        6.90100         3.53100         1.77200
| 96>    H        7.38300         6.10900         0.35600
| 97>    H        8.41400         4.65200         0.43500
| 98>    H        7.92100         5.31000        -1.15000
| 99>    H        5.28300         0.33600        -0.17900
|100>    H        3.72000         3.63200        -1.96700
|101> *
|102> 
|103>                          ****END OF INPUT****
================================================================================

                       ****************************
                       * Single Point Calculation *
                       ****************************

---------------------------------
CARTESIAN COORDINATES (ANGSTROEM)
---------------------------------
  C     -3.037000    6.491000    0.188000
  C      1.474000    4.041000    0.057000
  C     -2.802000    4.093000    0.049000
  C     -4.201000    4.012000   -0.029000
  C     -4.965000    5.162000    0.001000
  C     -5.226000    7.593000    0.102000
  C      0.132000    4.307000    0.061000
  C     -0.569000    3.056000    0.047000
  C      1.649000    2.618000    0.023000
  C     -2.230000    5.370000    0.156000
  N     -4.382000    6.378000    0.111000
  N      0.388000    2.067000    0.025000
  N     -2.010000    0.395000   -0.075000
  N     -0.388000   -2.074000   -0.027000
  N      2.010000   -0.401000    0.065000
  C     -1.960000    2.861000    0.024000
  C     -2.623000    1.615000   -0.018000
  C     -5.573000   -4.329000    1.066000
  C     -4.073000    1.471000    0.056000
  C     -4.106000   -2.756000   -0.026000
  C     -4.995000   -2.757000   -1.111000
  C     -6.132000   -3.542000   -1.076000
  C     -7.651000   -5.113000    0.040000
  C     -4.324000    0.141000    0.037000
  C     -3.025000   -0.520000   -0.048000
  C     -4.422000   -3.566000    1.075000
  N     -6.407000   -4.313000    0.001000
  C     -2.867000   -1.922000   -0.040000
  C     -1.650000   -2.624000   -0.027000
  C      3.568000   -6.142000   -1.040000
  C     -1.476000   -4.049000   -0.034000
  C      2.803000   -4.099000   -0.008000
  C      3.657000   -4.384000    1.069000
  C      4.427000   -5.530000    1.059000
  C      5.245000   -7.588000    0.014000
  C     -0.134000   -4.315000   -0.022000
  C      0.568000   -3.064000   -0.027000
  C      2.775000   -5.012000   -1.074000
  N      4.376000   -6.391000    0.017000
  C      1.959000   -2.869000   -0.009000
  C      2.621000   -1.622000    0.009000
  C      5.543000    4.339000   -1.130000
  C      4.070000   -1.479000   -0.094000
  C      4.104000    2.751000   -0.021000
  C      5.027000    2.729000    1.036000
  C      6.166000    3.509000    0.978000
  C      7.619000    5.153000   -0.115000
  C      4.321000   -0.148000   -0.092000
  C      3.025000    0.514000    0.015000
  C      4.387000    3.582000   -1.115000
  C      2.866000    1.916000    0.013000
  N      6.413000    4.296000   -0.095000
  H     -2.639000    7.494000    0.282000
  H      2.274000    4.766000    0.081000
  H     -4.701000    3.056000   -0.123000
  H     -6.045000    5.150000   -0.065000
  H     -5.410000    7.891000   -0.933000
  H     -6.169000    7.369000    0.601000
  H     -4.703000    8.388000    0.632000
  H     -0.332000    5.282000    0.069000
  H     -1.156000    5.498000    0.234000
  H      0.182000    1.072000    0.005000
  H     -0.183000   -1.080000   -0.021000
  H     -5.864000   -4.962000    1.895000
  H     -4.794000    2.272000    0.139000
  H     -4.800000   -2.160000   -1.994000
  H     -6.841000   -3.582000   -1.893000
  H     -8.428000   -4.536000    0.546000
  H     -7.956000   -5.337000   -0.981000
  H     -7.456000   -6.037000    0.584000
  H     -5.287000   -0.344000    0.100000
  H     -3.780000   -3.601000    1.947000
  H      3.587000   -6.868000   -1.843000
  H     -2.276000   -4.774000   -0.050000
  H      3.714000   -3.724000    1.926000
  H      5.092000   -5.795000    1.871000
  H      6.205000   -7.329000   -0.439000
  H      5.393000   -7.917000    1.042000
  H      4.759000   -8.373000   -0.564000
  H      0.329000   -5.290000   -0.008000
  H      2.146000   -4.842000   -1.940000
  H      5.808000    4.986000   -1.956000
  H      4.788000   -2.281000   -0.185000
  H      4.860000    2.114000    1.912000
  H      6.901000    3.531000    1.772000
  H      7.383000    6.109000    0.356000
  H      8.414000    4.652000    0.435000
  H      7.921000    5.310000   -1.150000
  H      5.283000    0.336000   -0.179000
  H      3.720000    3.632000   -1.967000

----------------------------
CARTESIAN COORDINATES (A.U.)
----------------------------
  NO LB      ZA    FRAG     MASS         X           Y           Z
   0 C     6.0000    0    12.011   -5.739098   12.266212    0.355269
   1 C     6.0000    0    12.011    2.785456    7.636383    0.107714
   2 C     6.0000    0    12.011   -5.295013    7.734649    0.092597
   3 C     6.0000    0    12.011   -7.938739    7.581581   -0.054802
   4 C     6.0000    0    12.011   -9.382490    9.754766    0.001890
   5 C     6.0000    0    12.011   -9.875709   14.348691    0.192752
   6 C     6.0000    0    12.011    0.249444    8.139050    0.115273
   7 C     6.0000    0    12.011   -1.075254    5.775003    0.088817
   8 C     6.0000    0    12.011    3.116158    4.947303    0.043464
   9 C     6.0000    0    12.011   -4.214089   10.147829    0.294797
  10 N     7.0000    0    14.007   -8.280780   12.052673    0.209760
  11 N     7.0000    0    14.007    0.733214    3.906064    0.047243
  12 N     7.0000    0    14.007   -3.798350    0.746442   -0.141729
  13 N     7.0000    0    14.007   -0.733214   -3.919292   -0.051023
  14 N     7.0000    0    14.007    3.798350   -0.757780    0.122832
  15 C     6.0000    0    12.011   -3.703863    5.406506    0.045353
  16 C     6.0000    0    12.011   -4.956752    3.051908   -0.034015
  17 C     6.0000    0    12.011  -10.531444   -8.180624    2.014448
  18 C     6.0000    0    12.011   -7.696855    2.779787    0.105825
  19 C     6.0000    0    12.011   -7.759216   -5.208085   -0.049133
  20 C     6.0000    0    12.011   -9.439182   -5.209975   -2.099486
  21 C     6.0000    0    12.011  -11.587801   -6.693410   -2.033345
  22 C     6.0000    0    12.011  -14.458295   -9.662170    0.075589
  23 C     6.0000    0    12.011   -8.171176    0.266451    0.069920
  24 C     6.0000    0    12.011   -5.716422   -0.982658   -0.090707
  25 C     6.0000    0    12.011   -8.356369   -6.738763    2.031456
  26 N     7.0000    0    14.007  -12.107475   -8.150389    0.001890
  27 C     6.0000    0    12.011   -5.417845   -3.632054   -0.075589
  28 C     6.0000    0    12.011   -3.118048   -4.958641   -0.051023
  29 C     6.0000    0    12.011    6.742543  -11.606698   -1.965315
  30 C     6.0000    0    12.011   -2.789236   -7.651501   -0.064251
  31 C     6.0000    0    12.011    5.296902   -7.745987   -0.015118
  32 C     6.0000    0    12.011    6.910728   -8.284559    2.020117
  33 C     6.0000    0    12.011    8.365818  -10.450186    2.001220
  34 C     6.0000    0    12.011    9.911614  -14.339242    0.026456
  35 C     6.0000    0    12.011   -0.253223   -8.154168   -0.041574
  36 C     6.0000    0    12.011    1.073364   -5.790121   -0.051023
  37 C     6.0000    0    12.011    5.243990   -9.471307   -2.029566
  38 N     7.0000    0    14.007    8.269442  -12.077240    0.032125
  39 C     6.0000    0    12.011    3.701973   -5.421624   -0.017008
  40 C     6.0000    0    12.011    4.952972   -3.065136    0.017008
  41 C     6.0000    0    12.011   10.474752    8.199522   -2.135391
  42 C     6.0000    0    12.011    7.691185   -2.794905   -0.177634
  43 C     6.0000    0    12.011    7.755436    5.198637   -0.039684
  44 C     6.0000    0    12.011    9.499653    5.157063    1.957756
  45 C     6.0000    0    12.011   11.652051    6.631049    1.848152
  46 C     6.0000    0    12.011   14.397823    9.737759   -0.217319
  47 C     6.0000    0    12.011    8.165507   -0.279679   -0.173855
  48 C     6.0000    0    12.011    5.716422    0.971319    0.028346
  49 C     6.0000    0    12.011    8.290229    6.768999   -2.107045
  50 C     6.0000    0    12.011    5.415955    3.620715    0.024566
  51 N     7.0000    0    14.007   12.118814    8.118263   -0.179524
  52 H     1.0000    0     1.008   -4.986987   14.161608    0.532903
  53 H     1.0000    0     1.008    4.297237    9.006435    0.153068
  54 H     1.0000    0     1.008   -8.883603    5.775003   -0.232436
  55 H     1.0000    0     1.008  -11.423394    9.732090   -0.122832
  56 H     1.0000    0     1.008  -10.223418   14.911829   -1.763114
  57 H     1.0000    0     1.008  -11.657721   13.925392    1.135725
  58 H     1.0000    0     1.008   -8.887382   15.851023    1.194307
  59 H     1.0000    0     1.008   -0.627389    9.981533    0.130391
  60 H     1.0000    0     1.008   -2.184523   10.389714    0.442196
  61 H     1.0000    0     1.008    0.343930    2.025786    0.009449
  62 H     1.0000    0     1.008   -0.345820   -2.040904   -0.039684
  63 H     1.0000    0     1.008  -11.081354   -9.376821    3.581031
  64 H     1.0000    0     1.008   -9.059347    4.293458    0.262672
  65 H     1.0000    0     1.008   -9.070685   -4.081808   -3.768114
  66 H     1.0000    0     1.008  -12.927616   -6.768999   -3.577252
  67 H     1.0000    0     1.008  -15.926612   -8.571798    1.031790
  68 H     1.0000    0     1.008  -15.034661  -10.085468   -1.853821
  69 H     1.0000    0     1.008  -14.089798  -11.408277    1.103600
  70 H     1.0000    0     1.008   -9.990982   -0.650066    0.188973
  71 H     1.0000    0     1.008   -7.143165   -6.804904    3.679297
  72 H     1.0000    0     1.008    6.778448  -12.978639   -3.482765
  73 H     1.0000    0     1.008   -4.301017   -9.021553   -0.094486
  74 H     1.0000    0     1.008    7.018443   -7.037340    3.639613
  75 H     1.0000    0     1.008    9.622485  -10.950963    3.535678
  76 H     1.0000    0     1.008   11.725751  -13.849803   -0.829590
  77 H     1.0000    0     1.008   10.191293  -14.960962    1.969095
  78 H     1.0000    0     1.008    8.993207  -15.822677   -1.065806
  79 H     1.0000    0     1.008    0.621720   -9.996651   -0.015118
  80 H     1.0000    0     1.008    4.055352   -9.150054   -3.666069
  81 H     1.0000    0     1.008   10.975529    9.422175   -3.696304
  82 H     1.0000    0     1.008    9.048009   -4.310465   -0.349599
  83 H     1.0000    0     1.008    9.184069    3.994881    3.613156
  84 H     1.0000    0     1.008   13.041000    6.672623    3.348595
  85 H     1.0000    0     1.008   13.951848   11.544337    0.672743
  86 H     1.0000    0     1.008   15.900156    8.791006    0.822031
  87 H     1.0000    0     1.008   14.968521   10.034446   -2.173185
  88 H     1.0000    0     1.008    9.983423    0.634948   -0.338261
  89 H     1.0000    0     1.008    7.029781    6.863485   -3.717091

--------------------------------
INTERNAL COORDINATES (ANGSTROEM)
--------------------------------
 C      0   0   0     0.000000000000     0.00000000     0.00000000
 C      1   0   0     5.135054235351     0.00000000     0.00000000
 C      1   2   0     2.413493318822    55.87118678     0.00000000
 C      3   1   2     1.403512023461    87.90745899   182.84265767
 C      4   3   1     1.380976466128   120.14474807     0.13032002
 C      5   4   3     2.447055986282   152.52147284     1.67675174
 C      2   1   3     1.368114030335    17.34199334     1.12567876
 C      7   2   1     1.434084376876   108.05010202   183.72860754
 C      2   1   3     1.434123425651   125.53591528   357.62747832
 C      1   2   3     1.381634539232    25.73561434     2.97418338
 N      1   2   3     1.351933060473   146.37034580   354.87837386
 N      9   2   1     1.376127174356   106.58526707     0.33468220
 N     12   9   2     2.925062050624   168.53581413   171.12065651
 N     13  12   9     2.954513327098    91.55032014    11.12112580
 N     14  13  12     2.925371258490    88.43092389   359.84326247
 C      8   7   2     1.404790019896   127.24786865   181.11170171
 C     13  12   9     1.366535034311    81.72106996   188.00453233
 C     14  13  12     5.758810554272    80.56209567   166.76250791
 C     17  13  12     1.459010623676   111.08861209   183.82872609
 C     18  14  13     2.412235892279    27.27532823    36.33507194
 C     20  18  14     1.402692767501    87.95206320   148.94598259
 C     21  20  18     1.382106725257   120.14573887   359.70382047
 C     18  14  13     2.446510985056   144.15733107    82.80075377
 C     19  17  13     1.353610726908   106.29293361   359.75308708
 C     13  12   9     1.366813447402   172.21332906    33.46711076
 C     18  14  13     1.380960173213    15.08449437   309.23336894
 N     22  21  20     1.352773077792   120.73759875     0.27865223
 C     25  13  17     1.410897586645   125.60330303   182.37774668
 C     14  13  12     1.376642291955    80.24689249   177.85461986
 C     14  13  12     5.764089607215   164.51507311   312.20821879
 C     29  14  13     1.435600919476   106.58649366   178.76395472
 C     30  14  13     2.413316804732    27.10625047    82.12560436
 C     32  30  14     1.403734305344    87.90059683   149.76154742
 C     33  32  30     1.380694028378   120.14881443   359.74174632
 C     34  33  32     2.448777858443   152.49203239     2.45173620
 C     31  29  14     1.368160809262   108.16950133     0.70383075
 C     14  13  12     1.376239804685   169.26375223   353.09862627
 C     30  14  13     1.380907310430    14.68948582   353.70041132
 N     34  33  32     1.352658863128   120.85575621     0.19603406
 C     37  14  29     1.404717053360   126.01551127   180.90772073
 C     15  14  13     1.366491126938    81.61824056   183.09049352
 C      2   1   3     4.249062720177   144.57845570   150.49756064
 C     41  15  14     1.459677704153   111.05201287   175.08990246
 C     42   2   1     2.412953791518    41.78584867   178.17117988
 C     44  42   2     1.403446472082    87.95153797   233.97558675
 C     45  44  42     1.381696421071   120.11137308     0.19721020
 C     42   2   1     2.450019795838   135.97209175    88.48602899
 C     43  41  15     1.354461516618   106.26758155     0.30894352
 C     15  14  13     1.367461151185   171.87382904   332.35056460
 C     42   2   1     1.381886391857    32.59078432   227.02645908
 C      9   2   1     1.404988612053   126.98745415   181.33901973
 N     42   2   1     1.352765315936   113.57249190   116.22261818
 H      1   2   3     1.083166192235    96.96299650   178.15998366
 H      2   1   3     1.079907866440   109.26252362   178.86257600
 H      4   3   1     1.082945982032   121.06367307   179.52888287
 H      5   4   3     1.082081327812   122.79314867   179.44387532
 H      6   5   4     1.092650447307   104.46606594   100.06416797
 H      6   5   4     1.090149531028    84.66529346   209.49531468
 H      6   5   4     1.089244692436   133.94324669   322.31724887
 H      7   2   1     1.079807853278   126.66122480     3.96702133
 H     60   7   2     0.867673325624   129.36550305   193.98771726
 H     12   9   2     1.016297692608   125.29023241   180.00180175
 H     14  13  12     1.014936943854    44.97226959   359.42596618
 H     18  14  13     1.082871645210   128.03556573   234.20482432
 H     55   4   3     0.831834719160   148.90285098    48.43956013
 H     21  20  18     1.083569563987   121.05669627   180.67006309
 H     22  21  20     1.082483256222   122.73097286   180.59748951
 H     23  18  14     1.092105306278   103.92715769   234.93429879
 H     23  18  14     1.088871893291   134.19244188    12.25587044
 H     23  18  14     1.089833473518    84.85857450   125.45241208
 H     24  19  17     1.080075460327   127.28078426   178.44613241
 H     26  18  14     1.083408048706   118.76995697   244.94906660
 H     30  14  13     1.082703098730   127.99711412   279.66882698
 H     31  29  14     1.079759695488   125.22293469   180.92530585
 H     33  32  30     1.083188810873   121.01964473   180.74284758
 H     34  33  32     1.082494341787   122.70821597   180.59516895
 H     35  34  33     1.092652735319   105.73575241    97.19771933
 H     35  34  33     1.089462711615    84.05943581   206.43036958
 H     35  34  33     1.089268102902   133.08365142   318.50306270
 H     36  31  29     1.079439669458   126.61599965   178.98859863
 H     38  30  73     1.083742127999   118.77264435   359.90091293
 H     42   2   1     1.082178358682   119.31790784   332.85414863
 H     43  41  15     1.080281907652   126.36969097   182.06329380
 H     45  44  42     1.083277434455   121.10105945   179.58025624
 H     46  45  44     1.082194529648   122.72144639   179.46906377
 H     47  42   2     1.091546151109   106.65128841   315.16475048
 H     47  42   2     1.088818625851   132.46019523    94.52397119
 H     47  42   2     1.089531091801    83.63838232   206.04504406
 H     48  43  41     1.080402239909   127.23657387   181.62955349
 H     50  42   2     1.083186502870   118.77001737    94.71359229

---------------------------
INTERNAL COORDINATES (A.U.)
---------------------------
 C      0   0   0     0.000000000000     0.00000000     0.00000000
 C      1   0   0     9.703846187646     0.00000000     0.00000000
 C      1   2   0     4.560841398623    55.87118678     0.00000000
 C      3   1   2     2.652253350007    87.90745899   182.84265767
 C      4   3   1     2.609667318373   120.14474807     0.13032002
 C      5   4   3     4.624265648446   152.52147284     1.67675174
 C      2   1   3     2.585360837309    17.34199334     1.12567876
 C      7   2   1     2.710026725231   108.05010202   183.72860754
 C      2   1   3     2.710100516721   125.53591528   357.62747832
 C      1   2   3     2.610910896316    25.73561434     2.97418338
 N      1   2   3     2.554783235688   146.37034580   354.87837386
 N      9   2   1     2.600503484979   106.58526707     0.33468220
 N     12   9   2     5.527566200405   168.53581413   171.12065651
 N     13  12   9     5.583221047236    91.55032014    11.12112580
 N     14  13  12     5.528150518591    88.43092389   359.84326247
 C      8   7   2     2.654668413270   127.24786865   181.11170171
 C     13  12   9     2.582376967257    81.72106996   188.00453233
 C     14  13  12    10.882574804710    80.56209567   166.76250791
 C     17  13  12     2.757130505230   111.08861209   183.82872609
 C     18  14  13     4.558465206823    27.27532823    36.33507194
 C     20  18  14     2.650705180609    87.95206320   148.94598259
 C     21  20  18     2.611803198586   120.14573887   359.70382047
 C     18  14  13     4.623235745386   144.15733107    82.80075377
 C     19  17  13     2.557953565794   106.29293361   359.75308708
 C     13  12   9     2.582903091751   172.21332906    33.46711076
 C     18  14  13     2.609636529225    15.08449437   309.23336894
 N     22  21  20     2.556370638369   120.73759875     0.27865223
 C     25  13  17     2.666210041769   125.60330303   182.37774668
 C     14  13  12     2.601476916169    80.24689249   177.85461986
 C     14  13  12    10.892550769017   164.51507311   312.20821879
 C     29  14  13     2.712892575415   106.58649366   178.76395472
 C     30  14  13     4.560507835333    27.10625047    82.12560436
 C     32  30  14     2.652673401891    87.90059683   149.76154742
 C     33  32  30     2.609133588376   120.14881443   359.74174632
 C     34  33  32     4.627519515267   152.49203239     2.45173620
 C     31  29  14     2.585449236669   108.16950133     0.70383075
 C     14  13  12     2.600716325456   169.26375223   353.09862627
 C     30  14  13     2.609536633043    14.68948582   353.70041132
 N     34  33  32     2.556154803934   120.85575621     0.19603406
 C     37  14  29     2.654530526499   126.01551127   180.90772073
 C     15  14  13     2.582293994346    81.61824056   183.09049352
 C      2   1   3     8.029564866989   144.57845570   150.49756064
 C     41  15  14     2.758391104639   111.05201287   175.08990246
 C     42   2   1     4.559821839776    41.78584867   178.17117988
 C     44  42   2     2.652129475853    87.95153797   233.97558675
 C     45  44  42     2.611027836043   120.11137308     0.19721020
 C     42   2   1     4.629866436820   135.97209175    88.48602899
 C     43  41  15     2.559561325344   106.26758155     0.30894352
 C     15  14  13     2.584127074516   171.87382904   332.35056460
 C     42   2   1     2.611386828803    32.59078432   227.02645908
 C      9   2   1     2.655043698059   126.98745415   181.33901973
 N     42   2   1     2.556355970587   113.57249190   116.22261818
 H      1   2   3     2.046887460846    96.96299650   178.15998366
 H      2   1   3     2.040730117440   109.26252362   178.86257600
 H      4   3   1     2.046471323872   121.06367307   179.52888287
 H      5   4   3     2.044837364195   122.79314867   179.44387532
 H      6   5   4     2.064810105517   104.46606594   100.06416797
 H      6   5   4     2.060084058665    84.66529346   209.49531468
 H      6   5   4     2.058374161531   133.94324669   322.31724887
 H      7   2   1     2.040541119952   126.66122480     3.96702133
 H     60   7   2     1.639664959139   129.36550305   193.98771726
 H     12   9   2     1.920524309565   125.29023241   180.00180175
 H     14  13  12     1.917952867083    44.97226959   359.42596618
 H     18  14  13     2.046330847636   128.03556573   234.20482432
 H     55   4   3     1.571939807900   148.90285098    48.43956013
 H     21  20  18     2.047649722989   121.05669627   180.67006309
 H     22  21  20     2.045596898814   122.73097286   180.59748951
 H     23  18  14     2.063779938267   103.92715769   234.93429879
 H     23  18  14     2.057669673245   134.19244188    12.25587044
 H     23  18  14     2.059486796529    84.85857450   125.45241208
 H     24  19  17     2.041046823986   127.28078426   178.44613241
 H     26  18  14     2.047344503340   118.76995697   244.94906660
 H     30  14  13     2.046012340948   127.99711412   279.66882698
 H     31  29  14     2.040450114918   125.22293469   180.92530585
 H     33  32  30     2.046930203877   121.01964473   180.74284758
 H     34  33  32     2.045617847496   122.70821597   180.59516895
 H     35  34  33     2.064814429233   105.73575241    97.19771933
 H     35  34  33     2.058786158072    84.05943581   206.43036958
 H     35  34  33     2.058418400901   133.08365142   318.50306270
 H     36  31  29     2.039845353366   126.61599965   178.98859863
 H     38  30  73     2.047975821711   118.77264435   359.90091293
 H     42   2   1     2.045020725966   119.31790784   332.85414863
 H     43  41  15     2.041436952892   126.36969097   182.06329380
 H     45  44  42     2.047097678177   121.10105945   179.58025624
 H     46  45  44     2.045051284662   122.72144639   179.46906377
 H     47  42   2     2.062723288131   106.65128841   315.16475048
 H     47  42   2     2.057569012371   132.46019523    94.52397119
 H     47  42   2     2.058915377895    83.63838232   206.04504406
 H     48  43  41     2.041664347903   127.23657387   181.62955349
 H     50  42   2     2.046925842384   118.77001737    94.71359229

---------------------
BASIS SET INFORMATION
---------------------
There are 3 groups of distinct atoms

 Group   1 Type C   : 17s4p1d contracted to 3s2p1d pattern {881/31/1}
 Group   2 Type N   : 17s4p1d contracted to 3s2p1d pattern {881/31/1}
 Group   3 Type H   : 4s1p contracted to 2s1p pattern {31/1}

Atom   0C    basis set group =>   1
Atom   1N    basis set group =>   2
Atom   2C    basis set group =>   1
Atom   3N    basis set group =>   2
Atom   4C    basis set group =>   1
Atom   5N    basis set group =>   2
Atom   6C    basis set group =>   1
Atom   7N    basis set group =>   2
Atom   8C    basis set group =>   1
Atom   9N    basis set group =>   2
Atom  10C    basis set group =>   1
Atom  11N    basis set group =>   2
Atom  12C    basis set group =>   1
Atom  13N    basis set group =>   2
Atom  14C    basis set group =>   1
Atom  15N    basis set group =>   2
Atom  16C    basis set group =>   1
Atom  17C    basis set group =>   1
Atom  18C    basis set group =>   1
Atom  19C    basis set group =>   1
Atom  20C    basis set group =>   1
Atom  21C    basis set group =>   1
Atom  22C    basis set group =>   1
Atom  23C    basis set group =>   1
Atom  24C    basis set group =>   1
Atom  25C    basis set group =>   1
Atom  26C    basis set group =>   1
Atom  27C    basis set group =>   1
Atom  28C    basis set group =>   1
Atom  29C    basis set group =>   1
Atom  30C    basis set group =>   1
Atom  31C    basis set group =>   1
Atom  32C    basis set group =>   1
Atom  33C    basis set group =>   1
Atom  34C    basis set group =>   1
Atom  35C    basis set group =>   1
Atom  36C    basis set group =>   1
Atom  37C    basis set group =>   1
Atom  38C    basis set group =>   1
Atom  39C    basis set group =>   1
Atom  40C    basis set group =>   1
Atom  41C    basis set group =>   1
Atom  42C    basis set group =>   1
Atom  43C    basis set group =>   1
Atom  44C    basis set group =>   1
Atom  45C    basis set group =>   1
Atom  46C    basis set group =>   1
Atom  47C    basis set group =>   1
Atom  48C    basis set group =>   1
Atom  49C    basis set group =>   1
Atom  50C    basis set group =>   1
Atom  51C    basis set group =>   1
Atom  52H    basis set group =>   3
Atom  53H    basis set group =>   3
Atom  54H    basis set group =>   3
Atom  55H    basis set group =>   3
Atom  56H    basis set group =>   3
Atom  57H    basis set group =>   3
Atom  58H    basis set group =>   3
Atom  59H    basis set group =>   3
Atom  60H    basis set group =>   3
Atom  61H    basis set group =>   3
Atom  62H    basis set group =>   3
Atom  63H    basis set group =>   3
Atom  64H    basis set group =>   3
Atom  65H    basis set group =>   3
Atom  66H    basis set group =>   3
Atom  67H    basis set group =>   3
Atom  68H    basis set group =>   3
Atom  69H    basis set group =>   3
Atom  70H    basis set group =>   3
Atom  71H    basis set group =>   3
Atom  72H    basis set group =>   3
Atom  73H    basis set group =>   3
Atom  74H    basis set group =>   3
Atom  75H    basis set group =>   3
Atom  76H    basis set group =>   3
Atom  77H    basis set group =>   3
Atom  78H    basis set group =>   3
Atom  79H    basis set group =>   3
Atom  80H    basis set group =>   3
Atom  81H    basis set group =>   3
Atom  82H    basis set group =>   3
Atom  83H    basis set group =>   3
Atom  84H    basis set group =>   3
Atom  85H    basis set group =>   3
Atom  86H    basis set group =>   3
Atom  87H    basis set group =>   3
Atom  88H    basis set group =>   3
Atom  89H    basis set group =>   3


           ************************************************************
           *        Program running with 8 parallel MPI-processes     *
           *              working on a common directory               *
           ************************************************************
------------------------------------------------------------------------------
                           ORCA GTO INTEGRAL CALCULATION
------------------------------------------------------------------------------
------------------------------------------------------------------------------
                   ___                                                        
                  /   \      - P O W E R E D   B Y -                         
                 /     \                                                     
                 |  |  |   _    _      __       _____    __    __             
                 |  |  |  | |  | |    /  \     |  _  \  |  |  /  |          
                  \  \/   | |  | |   /    \    | | | |  |  | /  /          
                 / \  \   | |__| |  /  /\  \   | |_| |  |  |/  /          
                |  |  |   |  __  | /  /__\  \  |    /   |      \           
                |  |  |   | |  | | |   __   |  |    \   |  |\   \          
                \     /   | |  | | |  |  |  |  | |\  \  |  | \   \       
                 \___/    |_|  |_| |__|  |__|  |_| \__\ |__|  \__/        
                                                                              
                      - O R C A' S   B I G   F R I E N D -                    
                                      &                                       
                       - I N T E G R A L  F E E D E R -                       
                                                                              
 v1 FN, 2020, v2 2021                                                         
------------------------------------------------------------------------------


Reading SHARK input file /scratch/chu_02/allen/tmpyp4_amber_gaff2/conf1/conf1/Conf358.orca.SHARKINP.tmp ... ok
----------------------
SHARK INTEGRAL PACKAGE
----------------------

Number of atoms                             ...     90
Number of basis functions                   ...   1230
Number of shells                            ...    738
Maximum angular momentum                    ...      2
Integral batch strategy                     ... SHARK/LIBINT Hybrid
RI-J (if used) integral strategy            ... SPLIT-RIJ (Revised 2003 algorithm where possible)
Printlevel                                  ...      1
Contraction scheme used                     ... PARTIAL GENERAL contraction
Coulomb Range Separation                    ... NOT USED
Exchange Range Separation                   ... NOT USED
Finite Nucleus Model                        ... NOT USED
Auxiliary Coulomb fitting basis             ... NOT available
Auxiliary J/K fitting basis                 ... NOT available
Auxiliary Correlation fitting basis         ... NOT available
Auxiliary 'external' fitting basis          ... NOT available
Integral threshold                          ...     2.500000e-11
Primitive cut-off                           ...     2.500000e-12
Primitive pair pre-selection threshold      ...     2.500000e-12

Calculating pre-screening integrals         ... done (  0.1 sec) Dimension = 738
Calculating pre-screening integrals (ORCA)  ... done (  0.3 sec) Dimension = 426
Organizing shell pair data                  ... done (  0.5 sec)
Shell pair information
Total number of shell pairs                 ...    272691
Shell pairs after pre-screening             ...     71737
Total number of primitive shell pairs       ...    422091
Primitive shell pairs kept                  ...     92643
          la=0 lb=0:  29442 shell pairs
          la=1 lb=0:  26044 shell pairs
          la=1 lb=1:   4699 shell pairs
          la=2 lb=0:   7893 shell pairs
          la=2 lb=1:   3130 shell pairs
          la=2 lb=2:    529 shell pairs

Calculating one electron integrals          ... done (  0.2 sec)
Calculating Nuclear repulsion               ... done (  0.0 sec) ENN=   6235.753554301485 Eh

SHARK setup successfully completed in   1.7 seconds

Maximum memory used throughout the entire GTOINT-calculation: 99.1 MB


           ************************************************************
           *        Program running with 8 parallel MPI-processes     *
           *              working on a common directory               *
           ************************************************************
-------------------------------------------------------------------------------
                                 ORCA SCF
-------------------------------------------------------------------------------

------------
SCF SETTINGS
------------
Hamiltonian:
 Ab initio Hamiltonian  Method          .... Hartree-Fock(GTOs)


General Settings:
 Integral files         IntName         .... /scratch/chu_02/allen/tmpyp4_amber_gaff2/conf1/conf1/Conf358.orca
 Hartree-Fock type      HFTyp           .... RHF
 Total Charge           Charge          ....    0
 Multiplicity           Mult            ....    1
 Number of Electrons    NEL             ....  358
 Basis Dimension        Dim             ....  918
 Nuclear Repulsion      ENuc            ....   6235.7535543015 Eh

Convergence Acceleration:
 DIIS                   CNVDIIS         .... on
   Start iteration      DIISMaxIt       ....    12
   Startup error        DIISStart       ....  0.200000
   # of expansion vecs  DIISMaxEq       ....     5
   Bias factor          DIISBfac        ....   1.050
   Max. coefficient     DIISMaxC        ....  10.000
 Trust-Rad. Augm. Hess. CNVTRAH         .... auto
   Auto Start mean grad. ratio tolernc. ....  1.125000
   Auto Start start iteration           ....    20
   Auto Start num. interpolation iter.  ....    10
   Max. Number of Micro iterations      ....    16
   Max. Number of Macro iterations      .... Maxiter - #DIIS iter
   Number of Davidson start vectors     ....     2
   Converg. threshold I  (grad. norm)   ....   1.000e-05
   Converg. threshold II (energy diff.) ....   1.000e-08
   Grad. Scal. Fac. for Micro threshold ....   0.100
   Minimum threshold for Micro iter.    ....   0.010
   NR start threshold (gradient norm)   ....   0.001
   Initial trust radius                 ....   0.400
   Minimum AH scaling param. (alpha)    ....   1.000
   Maximum AH scaling param. (alpha)    .... 1000.000
   Orbital update algorithm             .... Taylor
   White noise on init. David. guess    .... on
   Maximum white noise                  ....   0.010
   Quad. conv. algorithm                .... NR
 SOSCF                  CNVSOSCF        .... on
   Start iteration      SOSCFMaxIt      ....   150
   Startup grad/error   SOSCFStart      ....  0.003300
 Level Shifting         CNVShift        .... on
   Level shift para.    LevelShift      ....    0.2500
   Turn off err/grad.   ShiftErr        ....    0.0010
 Zerner damping         CNVZerner       .... off
 Static damping         CNVDamp         .... on
   Fraction old density DampFac         ....    0.7000
   Max. Damping (<1)    DampMax         ....    0.9800
   Min. Damping (>=0)   DampMin         ....    0.0000
   Turn off err/grad.   DampErr         ....    0.1000
 Fernandez-Rico         CNVRico         .... off

SCF Procedure:
 Maximum # iterations   MaxIter         ....   125
 SCF integral mode      SCFMode         .... Direct
   Integral package                     .... SHARK and LIBINT hybrid scheme
 Reset frequency        DirectResetFreq ....    20
 Integral Threshold     Thresh          ....  2.500e-11 Eh
 Primitive CutOff       TCut            ....  2.500e-12 Eh

Convergence Tolerance:
 Convergence Check Mode ConvCheckMode   .... Total+1el-Energy
 Convergence forced     ConvForced      .... 1
 Energy Change          TolE            ....  1.000e-08 Eh
 1-El. energy change                    ....  1.000e-05 Eh
 Orbital Gradient       TolG            ....  1.000e-05
 Orbital Rotation angle TolX            ....  1.000e-05
 DIIS Error             TolErr          ....  5.000e-07


Diagonalization of the overlap matrix:
Smallest eigenvalue                        ... 1.604e-04
Time for diagonalization                   ...    0.214 sec
Threshold for overlap eigenvalues          ... 1.000e-08
Number of eigenvalues below threshold      ... 0
Time for construction of square roots      ...    0.131 sec
Total time needed                          ...    0.349 sec

Time for model grid setup =    1.346 sec

------------------------------
INITIAL GUESS: MODEL POTENTIAL
------------------------------
Loading Hartree-Fock densities                     ... done
Calculating cut-offs                               ... done
Initializing the effective Hamiltonian             ... done
Setting up the integral package (SHARK)            ... done
Starting the Coulomb interaction                   ... done (   1.6 sec)
Reading the grid                                   ... done
Mapping shells                                     ... done
Starting the XC term evaluation                    ... done (   0.3 sec)
Transforming the Hamiltonian                       ... done (   0.1 sec)
Diagonalizing the Hamiltonian                      ... done (   0.2 sec)
Back transforming the eigenvectors                 ... done (   0.0 sec)
Now organizing SCF variables                       ... done
                      ------------------
                      INITIAL GUESS DONE (   3.7 sec)
                      ------------------
--------------
SCF ITERATIONS
--------------
ITER       Energy         Delta-E        Max-DP      RMS-DP      [F,P]     Damp
               ***  Starting incremental Fock matrix formation  ***
  0  -2121.5649182006   0.000000000000 0.07900732  0.00131781  0.2310282 0.7000
  1  -2122.2032965280  -0.638378327340 0.08862203  0.00107367  0.1434255 0.7000
                               ***Turning on DIIS***
  2  -2122.6022436503  -0.398947122374 0.15122035  0.00242598  0.0803320 0.0000
  3  -2118.0561319829   4.546111667425 0.12366359  0.00074589  0.0433729 0.0000
  4  -2123.3095694048  -5.253437421830 0.03470846  0.00024269  0.0094010 0.0000
  5  -2123.4297552218  -0.120185817084 0.01660791  0.00013779  0.0047926 0.0000
  6  -2123.4134434416   0.016311780222 0.01031071  0.00008746  0.0022701 0.0000
  7  -2123.5046378698  -0.091194428138 0.00640637  0.00006801  0.0016397 0.0000
  8  -2123.5099726707  -0.005334800911 0.00511167  0.00006482  0.0015367 0.0000
  9  -2123.4842631602   0.025709510417 0.00286462  0.00004641  0.0012375 0.0000
 10  -2123.4914227801  -0.007159619881 0.00543156  0.00009727  0.0009716 0.0000
                      *** Initiating the SOSCF procedure ***
                           *** Shutting down DIIS ***
                      *** Re-Reading the Fockian *** 
                      *** Removing any level shift *** 
ITER      Energy       Delta-E        Grad      Rot      Max-DP    RMS-DP
 11  -2123.38661356   0.1048092160  0.000185  0.000185  0.000249  0.000005
               *** Restarting incremental Fock matrix formation ***
 12  -2123.45201674  -0.0654031739  0.000943  0.006305  0.001518  0.000035
 13  -2123.45212923  -0.0001124924  0.001147  0.031249  0.006900  0.000138
 14  -2123.45231406  -0.0001848343  0.000402  0.002060  0.000632  0.000013
 15  -2123.45232930  -0.0000152391  0.000184  0.002192  0.000477  0.000013
 16  -2123.45233574  -0.0000064407  0.000129  0.001998  0.000501  0.000009
 17  -2123.45233837  -0.0000026231  0.000127  0.002018  0.000292  0.000007
 18  -2123.45233956  -0.0000011960  0.000057  0.001126  0.000209  0.000004
 19  -2123.45234031  -0.0000007465  0.000045  0.001778  0.000303  0.000006
 20  -2123.45234082  -0.0000005125  0.000027  0.001010  0.000193  0.000003
 21  -2123.45234105  -0.0000002269  0.000028  0.001244  0.000224  0.000004
 22  -2123.45234127  -0.0000002251  0.000024  0.001062  0.000162  0.000003
 23  -2123.45234141  -0.0000001339  0.000015  0.000383  0.000065  0.000001
 24  -2123.45234146  -0.0000000515  0.000008  0.000251  0.000054  0.000001
 25  -2123.45234149  -0.0000000304  0.000008  0.000124  0.000040  0.000001
 26  -2123.45234151  -0.0000000170  0.000006  0.000072  0.000027  0.000000
 27  -2123.45234151  -0.0000000040  0.000003  0.000057  0.000019  0.000000
                  ***Gradient check signals convergence***
              ***Rediagonalizing the Fockian in SOSCF/NRSCF***

               *****************************************************
               *                     SUCCESS                       *
               *           SCF CONVERGED AFTER  28 CYCLES          *
               *****************************************************


----------------
TOTAL SCF ENERGY
----------------

Total Energy       :        -2123.45234151 Eh          -57782.07580 eV

Components:
Nuclear Repulsion  :         6235.75355430 Eh          169683.48075 eV
Electronic Energy  :        -8359.20589582 Eh         -227465.55655 eV
One Electron Energy:       -15311.91811470 Eh         -416658.47441 eV
Two Electron Energy:         6952.71221888 Eh          189192.91786 eV

Virial components:
Potential Energy   :        -4246.08970742 Eh         -115541.97498 eV
Kinetic Energy     :         2122.63736591 Eh           57759.89918 eV
Virial Ratio       :            2.00038394


---------------
SCF CONVERGENCE
---------------

  Last Energy change         ...   -3.1723e-09  Tolerance :   1.0000e-08
  Last MAX-Density change    ...    9.6161e-06  Tolerance :   1.0000e-07
  Last RMS-Density change    ...    1.6514e-07  Tolerance :   5.0000e-09
  Last Orbital Gradient      ...    1.7455e-06  Tolerance :   1.0000e-05
  Last Orbital Rotation      ...    3.3699e-05  Tolerance :   1.0000e-05

             **** THE GBW FILE WAS UPDATED (/scratch/chu_02/allen/tmpyp4_amber_gaff2/conf1/conf1/Conf358.orca.gbw) ****
             **** DENSITY /scratch/chu_02/allen/tmpyp4_amber_gaff2/conf1/conf1/Conf358.orca.scfp WAS UPDATED ****
             **** ENERGY FILE WAS UPDATED (/scratch/chu_02/allen/tmpyp4_amber_gaff2/conf1/conf1/Conf358.orca.en.tmp) ****
             **** THE GBW FILE WAS UPDATED (/scratch/chu_02/allen/tmpyp4_amber_gaff2/conf1/conf1/Conf358.orca.gbw) ****
             **** DENSITY /scratch/chu_02/allen/tmpyp4_amber_gaff2/conf1/conf1/Conf358.orca.scfp WAS UPDATED ****
----------------
ORBITAL ENERGIES
----------------

  NO   OCC          E(Eh)            E(eV) 
   0   2.0000     -15.680359      -426.6843 
   1   2.0000     -15.633498      -425.4091 
   2   2.0000     -15.632385      -425.3788 
   3   2.0000     -15.587773      -424.1649 
   4   2.0000     -15.524970      -422.4559 
   5   2.0000     -15.515361      -422.1944 
   6   2.0000     -15.453987      -420.5244 
   7   2.0000     -15.439422      -420.1280 
   8   2.0000     -11.329803      -308.2996 
   9   2.0000     -11.328919      -308.2755 
  10   2.0000     -11.328275      -308.2580 
  11   2.0000     -11.299029      -307.4622 
  12   2.0000     -11.298722      -307.4539 
  13   2.0000     -11.292621      -307.2878 
  14   2.0000     -11.291763      -307.2645 
  15   2.0000     -11.286894      -307.1320 
  16   2.0000     -11.286149      -307.1117 
  17   2.0000     -11.282563      -307.0141 
  18   2.0000     -11.269238      -306.6516 
  19   2.0000     -11.263724      -306.5015 
  20   2.0000     -11.262720      -306.4742 
  21   2.0000     -11.250866      -306.1516 
  22   2.0000     -11.247274      -306.0539 
  23   2.0000     -11.237300      -305.7825 
  24   2.0000     -11.237138      -305.7781 
  25   2.0000     -11.230751      -305.6043 
  26   2.0000     -11.230157      -305.5881 
  27   2.0000     -11.230081      -305.5860 
  28   2.0000     -11.229931      -305.5820 
  29   2.0000     -11.210975      -305.0661 
  30   2.0000     -11.209572      -305.0280 
  31   2.0000     -11.193394      -304.5877 
  32   2.0000     -11.192076      -304.5519 
  33   2.0000     -11.191560      -304.5378 
  34   2.0000     -11.188769      -304.4619 
  35   2.0000     -11.187999      -304.4409 
  36   2.0000     -11.187252      -304.4206 
  37   2.0000     -11.174730      -304.0799 
  38   2.0000     -11.171911      -304.0032 
  39   2.0000     -11.171122      -303.9817 
  40   2.0000     -11.171037      -303.9794 
  41   2.0000     -11.168273      -303.9042 
  42   2.0000     -11.166216      -303.8482 
  43   2.0000     -11.162198      -303.7389 
  44   2.0000     -11.160880      -303.7030 
  45   2.0000     -11.157027      -303.5981 
  46   2.0000     -11.156286      -303.5780 
  47   2.0000     -11.150661      -303.4249 
  48   2.0000     -11.147115      -303.3284 
  49   2.0000     -11.135557      -303.0139 
  50   2.0000     -11.129303      -302.8437 
  51   2.0000     -11.117210      -302.5147 
  52   2.0000      -1.360856       -37.0308 
  53   2.0000      -1.320812       -35.9411 
  54   2.0000      -1.320091       -35.9215 
  55   2.0000      -1.279974       -34.8299 
  56   2.0000      -1.226111       -33.3642 
  57   2.0000      -1.210303       -32.9340 
  58   2.0000      -1.173711       -31.9383 
  59   2.0000      -1.150680       -31.3116 
  60   2.0000      -1.144031       -31.1307 
  61   2.0000      -1.110266       -30.2119 
  62   2.0000      -1.109016       -30.1779 
  63   2.0000      -1.082502       -29.4564 
  64   2.0000      -1.076902       -29.3040 
  65   2.0000      -1.045022       -28.4365 
  66   2.0000      -1.044706       -28.4279 
  67   2.0000      -1.041359       -28.3368 
  68   2.0000      -1.014922       -27.6174 
  69   2.0000      -1.014464       -27.6050 
  70   2.0000      -1.009044       -27.4575 
  71   2.0000      -0.993515       -27.0349 
  72   2.0000      -0.985525       -26.8175 
  73   2.0000      -0.981958       -26.7204 
  74   2.0000      -0.973929       -26.5020 
  75   2.0000      -0.962401       -26.1883 
  76   2.0000      -0.954997       -25.9868 
  77   2.0000      -0.946509       -25.7558 
  78   2.0000      -0.939353       -25.5611 
  79   2.0000      -0.916585       -24.9415 
  80   2.0000      -0.910979       -24.7890 
  81   2.0000      -0.898381       -24.4462 
  82   2.0000      -0.877439       -23.8763 
  83   2.0000      -0.872055       -23.7298 
  84   2.0000      -0.871174       -23.7059 
  85   2.0000      -0.861504       -23.4427 
  86   2.0000      -0.845057       -22.9952 
  87   2.0000      -0.838048       -22.8044 
  88   2.0000      -0.829395       -22.5690 
  89   2.0000      -0.796322       -21.6690 
  90   2.0000      -0.789091       -21.4722 
  91   2.0000      -0.774219       -21.0676 
  92   2.0000      -0.753367       -20.5002 
  93   2.0000      -0.734130       -19.9767 
  94   2.0000      -0.728488       -19.8232 
  95   2.0000      -0.726435       -19.7673 
  96   2.0000      -0.720376       -19.6024 
  97   2.0000      -0.718101       -19.5405 
  98   2.0000      -0.714204       -19.4345 
  99   2.0000      -0.699675       -19.0391 
 100   2.0000      -0.698428       -19.0052 
 101   2.0000      -0.694536       -18.8993 
 102   2.0000      -0.685606       -18.6563 
 103   2.0000      -0.684677       -18.6310 
 104   2.0000      -0.678911       -18.4741 
 105   2.0000      -0.674579       -18.3562 
 106   2.0000      -0.673047       -18.3145 
 107   2.0000      -0.660800       -17.9813 
 108   2.0000      -0.658207       -17.9107 
 109   2.0000      -0.652741       -17.7620 
 110   2.0000      -0.652242       -17.7484 
 111   2.0000      -0.646566       -17.5940 
 112   2.0000      -0.645876       -17.5752 
 113   2.0000      -0.638012       -17.3612 
 114   2.0000      -0.635362       -17.2891 
 115   2.0000      -0.628600       -17.1051 
 116   2.0000      -0.623196       -16.9580 
 117   2.0000      -0.620337       -16.8802 
 118   2.0000      -0.613056       -16.6821 
 119   2.0000      -0.612048       -16.6547 
 120   2.0000      -0.612005       -16.6535 
 121   2.0000      -0.611683       -16.6447 
 122   2.0000      -0.601424       -16.3656 
 123   2.0000      -0.589298       -16.0356 
 124   2.0000      -0.581400       -15.8207 
 125   2.0000      -0.581015       -15.8102 
 126   2.0000      -0.580363       -15.7925 
 127   2.0000      -0.571384       -15.5482 
 128   2.0000      -0.566731       -15.4215 
 129   2.0000      -0.560068       -15.2402 
 130   2.0000      -0.555417       -15.1137 
 131   2.0000      -0.548034       -14.9128 
 132   2.0000      -0.542837       -14.7713 
 133   2.0000      -0.540278       -14.7017 
 134   2.0000      -0.538541       -14.6544 
 135   2.0000      -0.536202       -14.5908 
 136   2.0000      -0.531661       -14.4672 
 137   2.0000      -0.518038       -14.0965 
 138   2.0000      -0.516930       -14.0664 
 139   2.0000      -0.514270       -13.9940 
 140   2.0000      -0.512245       -13.9389 
 141   2.0000      -0.509897       -13.8750 
 142   2.0000      -0.507866       -13.8197 
 143   2.0000      -0.504954       -13.7405 
 144   2.0000      -0.502317       -13.6687 
 145   2.0000      -0.495362       -13.4795 
 146   2.0000      -0.488396       -13.2899 
 147   2.0000      -0.481023       -13.0893 
 148   2.0000      -0.476507       -12.9664 
 149   2.0000      -0.467971       -12.7341 
 150   2.0000      -0.466197       -12.6859 
 151   2.0000      -0.456476       -12.4214 
 152   2.0000      -0.451638       -12.2897 
 153   2.0000      -0.445181       -12.1140 
 154   2.0000      -0.437879       -11.9153 
 155   2.0000      -0.427614       -11.6360 
 156   2.0000      -0.409355       -11.1391 
 157   2.0000      -0.391152       -10.6438 
 158   2.0000      -0.388275       -10.5655 
 159   2.0000      -0.385847       -10.4994 
 160   2.0000      -0.378582       -10.3017 
 161   2.0000      -0.373220       -10.1558 
 162   2.0000      -0.360389        -9.8067 
 163   2.0000      -0.356524        -9.7015 
 164   2.0000      -0.356021        -9.6878 
 165   2.0000      -0.342011        -9.3066 
 166   2.0000      -0.337620        -9.1871 
 167   2.0000      -0.324758        -8.8371 
 168   2.0000      -0.320735        -8.7276 
 169   2.0000      -0.305349        -8.3090 
 170   2.0000      -0.299320        -8.1449 
 171   2.0000      -0.285820        -7.7776 
 172   2.0000      -0.278125        -7.5682 
 173   2.0000      -0.263592        -7.1727 
 174   2.0000      -0.241903        -6.5825 
 175   2.0000      -0.189979        -5.1696 
 176   2.0000      -0.181406        -4.9363 
 177   2.0000      -0.080261        -2.1840 
 178   2.0000      -0.059866        -1.6290 
 179   0.0000       0.028398         0.7727 
 180   0.0000       0.065267         1.7760 
 181   0.0000       0.090115         2.4522 
 182   0.0000       0.105899         2.8817 
 183   0.0000       0.116947         3.1823 
 184   0.0000       0.137095         3.7305 
 185   0.0000       0.139309         3.7908 
 186   0.0000       0.140663         3.8276 
 187   0.0000       0.164541         4.4774 
 188   0.0000       0.165294         4.4979 
 189   0.0000       0.165476         4.5028 
 190   0.0000       0.174879         4.7587 
 191   0.0000       0.180089         4.9005 
 192   0.0000       0.183496         4.9932 
 193   0.0000       0.189599         5.1593 
 194   0.0000       0.204950         5.5770 
 195   0.0000       0.205398         5.5892 
 196   0.0000       0.208377         5.6702 
 197   0.0000       0.208484         5.6731 
 198   0.0000       0.216281         5.8853 
 199   0.0000       0.228253         6.2111 
 200   0.0000       0.233488         6.3535 
 201   0.0000       0.234675         6.3858 
 202   0.0000       0.239086         6.5059 
 203   0.0000       0.239610         6.5201 
 204   0.0000       0.246035         6.6950 
 205   0.0000       0.254814         6.9338 
 206   0.0000       0.256437         6.9780 
 207   0.0000       0.257677         7.0118 
 208   0.0000       0.259195         7.0531 
 209   0.0000       0.260543         7.0897 
 210   0.0000       0.264433         7.1956 
 211   0.0000       0.265395         7.2218 
 212   0.0000       0.268526         7.3070 
 213   0.0000       0.269628         7.3370 
 214   0.0000       0.273430         7.4404 
 215   0.0000       0.275816         7.5053 
 216   0.0000       0.278539         7.5794 
 217   0.0000       0.282539         7.6883 
 218   0.0000       0.286691         7.8013 
 219   0.0000       0.287883         7.8337 
 220   0.0000       0.289874         7.8879 
 221   0.0000       0.292354         7.9554 
 222   0.0000       0.294845         8.0231 
 223   0.0000       0.296886         8.0787 
 224   0.0000       0.297052         8.0832 
 225   0.0000       0.301155         8.1948 
 226   0.0000       0.305339         8.3087 
 227   0.0000       0.308000         8.3811 
 228   0.0000       0.317644         8.6435 
 229   0.0000       0.324564         8.8318 
 230   0.0000       0.328682         8.9439 
 231   0.0000       0.335533         9.1303 
 232   0.0000       0.342910         9.3311 
 233   0.0000       0.357228         9.7207 
 234   0.0000       0.371670        10.1137 
 235   0.0000       0.373576        10.1655 
 236   0.0000       0.385080        10.4786 
 237   0.0000       0.390916        10.6374 
 238   0.0000       0.396719        10.7953 
 239   0.0000       0.403163        10.9706 
 240   0.0000       0.404591        11.0095 
 241   0.0000       0.410911        11.1814 
 242   0.0000       0.412704        11.2302 
 243   0.0000       0.419566        11.4170 
 244   0.0000       0.429447        11.6858 
 245   0.0000       0.435046        11.8382 
 246   0.0000       0.440243        11.9796 
 247   0.0000       0.441005        12.0004 
 248   0.0000       0.441769        12.0211 
 249   0.0000       0.449457        12.2304 
 250   0.0000       0.452388        12.3101 
 251   0.0000       0.459953        12.5159 
 252   0.0000       0.467659        12.7256 
 253   0.0000       0.471019        12.8171 
 254   0.0000       0.471826        12.8390 
 255   0.0000       0.474075        12.9002 
 256   0.0000       0.476046        12.9539 
 257   0.0000       0.482235        13.1223 
 258   0.0000       0.488531        13.2936 
 259   0.0000       0.494838        13.4652 
 260   0.0000       0.504098        13.7172 
 261   0.0000       0.504798        13.7362 
 262   0.0000       0.506046        13.7702 
 263   0.0000       0.512382        13.9426 
 264   0.0000       0.515771        14.0348 
 265   0.0000       0.521012        14.1775 
 266   0.0000       0.524805        14.2807 
 267   0.0000       0.528266        14.3748 
 268   0.0000       0.535190        14.5633 
 269   0.0000       0.541841        14.7442 
 270   0.0000       0.547489        14.8979 
 271   0.0000       0.555453        15.1146 
 272   0.0000       0.558276        15.1915 
 273   0.0000       0.561699        15.2846 
 274   0.0000       0.563125        15.3234 
 275   0.0000       0.568763        15.4768 
 276   0.0000       0.573557        15.6073 
 277   0.0000       0.577980        15.7276 
 278   0.0000       0.580858        15.8059 
 279   0.0000       0.585959        15.9447 
 280   0.0000       0.590990        16.0816 
 281   0.0000       0.593663        16.1544 
 282   0.0000       0.595301        16.1990 
 283   0.0000       0.596954        16.2440 
 284   0.0000       0.597829        16.2678 
 285   0.0000       0.602730        16.4011 
 286   0.0000       0.604853        16.4589 
 287   0.0000       0.609819        16.5940 
 288   0.0000       0.617670        16.8077 
 289   0.0000       0.622640        16.9429 
 290   0.0000       0.625721        17.0267 
 291   0.0000       0.630326        17.1520 
 292   0.0000       0.634330        17.2610 
 293   0.0000       0.636722        17.3261 
 294   0.0000       0.645822        17.5737 
 295   0.0000       0.649999        17.6874 
 296   0.0000       0.654376        17.8065 
 297   0.0000       0.658297        17.9132 
 298   0.0000       0.660662        17.9775 
 299   0.0000       0.664673        18.0867 
 300   0.0000       0.670246        18.2383 
 301   0.0000       0.675072        18.3697 
 302   0.0000       0.679014        18.4769 
 303   0.0000       0.680233        18.5101 
 304   0.0000       0.682228        18.5644 
 305   0.0000       0.685533        18.6543 
 306   0.0000       0.689161        18.7530 
 307   0.0000       0.693473        18.8704 
 308   0.0000       0.695039        18.9130 
 309   0.0000       0.700924        19.0731 
 310   0.0000       0.702807        19.1243 
 311   0.0000       0.705189        19.1892 
 312   0.0000       0.708362        19.2755 
 313   0.0000       0.710844        19.3431 
 314   0.0000       0.711003        19.3474 
 315   0.0000       0.715392        19.4668 
 316   0.0000       0.716690        19.5021 
 317   0.0000       0.718942        19.5634 
 318   0.0000       0.726442        19.7675 
 319   0.0000       0.727535        19.7972 
 320   0.0000       0.728066        19.8117 
 321   0.0000       0.729728        19.8569 
 322   0.0000       0.731072        19.8935 
 323   0.0000       0.732905        19.9434 
 324   0.0000       0.737061        20.0565 
 325   0.0000       0.742541        20.2056 
 326   0.0000       0.744266        20.2525 
 327   0.0000       0.747868        20.3505 
 328   0.0000       0.753235        20.4966 
 329   0.0000       0.754732        20.5373 
 330   0.0000       0.758675        20.6446 
 331   0.0000       0.764658        20.8074 
 332   0.0000       0.766377        20.8542 
 333   0.0000       0.768234        20.9047 
 334   0.0000       0.770955        20.9788 
 335   0.0000       0.775655        21.1067 
 336   0.0000       0.777298        21.1513 
 337   0.0000       0.781999        21.2793 
 338   0.0000       0.787095        21.4179 
 339   0.0000       0.790081        21.4992 
 340   0.0000       0.792162        21.5558 
 341   0.0000       0.796459        21.6728 
 342   0.0000       0.797723        21.7071 
 343   0.0000       0.802637        21.8409 
 344   0.0000       0.805548        21.9201 
 345   0.0000       0.808396        21.9976 
 346   0.0000       0.811070        22.0703 
 347   0.0000       0.815349        22.1868 
 348   0.0000       0.815810        22.1993 
 349   0.0000       0.816849        22.2276 
 350   0.0000       0.821235        22.3469 
 351   0.0000       0.823375        22.4052 
 352   0.0000       0.827178        22.5087 
 353   0.0000       0.828658        22.5489 
 354   0.0000       0.830970        22.6118 
 355   0.0000       0.833069        22.6689 
 356   0.0000       0.834436        22.7061 
 357   0.0000       0.835780        22.7427 
 358   0.0000       0.838746        22.8235 
 359   0.0000       0.841909        22.9095 
 360   0.0000       0.842868        22.9356 
 361   0.0000       0.843581        22.9550 
 362   0.0000       0.846243        23.0274 
 363   0.0000       0.850415        23.1410 
 364   0.0000       0.851007        23.1571 
 365   0.0000       0.856591        23.3090 
 366   0.0000       0.862113        23.4593 
 367   0.0000       0.864034        23.5116 
 368   0.0000       0.865124        23.5412 
 369   0.0000       0.869033        23.6476 
 370   0.0000       0.870257        23.6809 
 371   0.0000       0.875892        23.8342 
 372   0.0000       0.876178        23.8420 
 373   0.0000       0.878652        23.9093 
 374   0.0000       0.881865        23.9968 
 375   0.0000       0.883382        24.0380 
 376   0.0000       0.890441        24.2301 
 377   0.0000       0.892258        24.2796 
 378   0.0000       0.894293        24.3349 
 379   0.0000       0.895285        24.3619 
 380   0.0000       0.897682        24.4272 
 381   0.0000       0.898082        24.4380 
 382   0.0000       0.901072        24.5194 
 383   0.0000       0.903207        24.5775 
 384   0.0000       0.906146        24.6575 
 385   0.0000       0.907908        24.7054 
 386   0.0000       0.910069        24.7642 
 387   0.0000       0.913395        24.8548 
 388   0.0000       0.916389        24.9362 
 389   0.0000       0.919601        25.0236 
 390   0.0000       0.919983        25.0340 
 391   0.0000       0.926178        25.2026 
 392   0.0000       0.927026        25.2257 
 393   0.0000       0.928937        25.2777 
 394   0.0000       0.930966        25.3329 
 395   0.0000       0.934223        25.4215 
 396   0.0000       0.937551        25.5121 
 397   0.0000       0.941851        25.6291 
 398   0.0000       0.946516        25.7560 
 399   0.0000       0.947877        25.7930 
 400   0.0000       0.949825        25.8461 
 401   0.0000       0.953269        25.9398 
 402   0.0000       0.957003        26.0414 
 403   0.0000       0.957858        26.0646 
 404   0.0000       0.961677        26.1685 
 405   0.0000       0.964186        26.2368 
 406   0.0000       0.970576        26.4107 
 407   0.0000       0.979393        26.6506 
 408   0.0000       0.982535        26.7361 
 409   0.0000       0.987178        26.8625 
 410   0.0000       0.990319        26.9480 
 411   0.0000       0.995246        27.0820 
 412   0.0000       0.999001        27.1842 
 413   0.0000       1.006226        27.3808 
 414   0.0000       1.012573        27.5535 
 415   0.0000       1.015323        27.6283 
 416   0.0000       1.017764        27.6948 
 417   0.0000       1.026070        27.9208 
 418   0.0000       1.029557        28.0157 
 419   0.0000       1.032646        28.0997 
 420   0.0000       1.034336        28.1457 
 421   0.0000       1.042495        28.3677 
 422   0.0000       1.051197        28.6045 
 423   0.0000       1.054218        28.6867 
 424   0.0000       1.056266        28.7424 
 425   0.0000       1.073611        29.2144 
 426   0.0000       1.077424        29.3182 
 427   0.0000       1.079764        29.3819 
 428   0.0000       1.082300        29.4509 
 429   0.0000       1.085197        29.5297 
 430   0.0000       1.089578        29.6489 
 431   0.0000       1.095465        29.8091 
 432   0.0000       1.099384        29.9158 
 433   0.0000       1.105118        30.0718 
 434   0.0000       1.107260        30.1301 
 435   0.0000       1.113096        30.2889 
 436   0.0000       1.115899        30.3652 
 437   0.0000       1.119913        30.4744 
 438   0.0000       1.121726        30.5237 
 439   0.0000       1.123987        30.5853 
 440   0.0000       1.127701        30.6863 
 441   0.0000       1.131127        30.7795 
 442   0.0000       1.135328        30.8938 
 443   0.0000       1.138044        30.9678 
 444   0.0000       1.138613        30.9832 
 445   0.0000       1.141268        31.0555 
 446   0.0000       1.147735        31.2315 
 447   0.0000       1.150453        31.3054 
 448   0.0000       1.154417        31.4133 
 449   0.0000       1.159788        31.5594 
 450   0.0000       1.160584        31.5811 
 451   0.0000       1.165593        31.7174 
 452   0.0000       1.167351        31.7652 
 453   0.0000       1.168536        31.7975 
 454   0.0000       1.174138        31.9499 
 455   0.0000       1.178894        32.0793 
 456   0.0000       1.183294        32.1991 
 457   0.0000       1.194547        32.5053 
 458   0.0000       1.197617        32.5888 
 459   0.0000       1.200264        32.6608 
 460   0.0000       1.203336        32.7444 
 461   0.0000       1.207063        32.8459 
 462   0.0000       1.209144        32.9025 
 463   0.0000       1.211886        32.9771 
 464   0.0000       1.214116        33.0378 
 465   0.0000       1.216149        33.0931 
 466   0.0000       1.220943        33.2236 
 467   0.0000       1.228177        33.4204 
 468   0.0000       1.231384        33.5077 
 469   0.0000       1.234643        33.5963 
 470   0.0000       1.235991        33.6330 
 471   0.0000       1.240504        33.7558 
 472   0.0000       1.242790        33.8180 
 473   0.0000       1.244115        33.8541 
 474   0.0000       1.248028        33.9606 
 475   0.0000       1.249597        34.0033 
 476   0.0000       1.254101        34.1258 
 477   0.0000       1.255281        34.1579 
 478   0.0000       1.260463        34.2989 
 479   0.0000       1.263322        34.3767 
 480   0.0000       1.266984        34.4764 
 481   0.0000       1.270259        34.5655 
 482   0.0000       1.271695        34.6046 
 483   0.0000       1.274788        34.6888 
 484   0.0000       1.278793        34.7977 
 485   0.0000       1.284002        34.9395 
 486   0.0000       1.288166        35.0528 
 487   0.0000       1.290874        35.1265 
 488   0.0000       1.292071        35.1590 
 489   0.0000       1.296943        35.2916 
 490   0.0000       1.301433        35.4138 
 491   0.0000       1.302289        35.4371 
 492   0.0000       1.306912        35.5629 
 493   0.0000       1.309639        35.6371 
 494   0.0000       1.315029        35.7838 
 495   0.0000       1.319684        35.9104 
 496   0.0000       1.321140        35.9500 
 497   0.0000       1.326148        36.0863 
 498   0.0000       1.328946        36.1624 
 499   0.0000       1.334360        36.3098 
 500   0.0000       1.337198        36.3870 
 501   0.0000       1.339094        36.4386 
 502   0.0000       1.342131        36.5213 
 503   0.0000       1.348725        36.7007 
 504   0.0000       1.349222        36.7142 
 505   0.0000       1.351268        36.7699 
 506   0.0000       1.353349        36.8265 
 507   0.0000       1.357133        36.9295 
 508   0.0000       1.361217        37.0406 
[...]
      pz      :     0.022124  p :     0.079784
      px      :     0.043617
      py      :     0.014043
 77 H s       :     0.884400  s :     0.884400
      pz      :     0.047985  p :     0.079302
      px      :     0.015024
      py      :     0.016293
 78 H s       :     0.884734  s :     0.884734
      pz      :     0.025888  p :     0.079275
      px      :     0.020453
      py      :     0.032934
 79 H s       :     0.910859  s :     0.910859
      pz      :     0.021790  p :     0.086286
      px      :     0.021656
      py      :     0.042841
 80 H s       :     0.864230  s :     0.864230
      pz      :     0.039403  p :     0.084845
      px      :     0.030293
      py      :     0.015150
 81 H s       :     0.886654  s :     0.886654
      pz      :     0.037838  p :     0.084138
      px      :     0.016174
      py      :     0.030125
 82 H s       :     0.916047  s :     0.916047
      pz      :     0.021956  p :     0.086729
      px      :     0.031660
      py      :     0.033113
 83 H s       :     0.873336  s :     0.873336
      pz      :     0.039284  p :     0.084122
      px      :     0.015273
      py      :     0.029565
 84 H s       :     0.886564  s :     0.886564
      pz      :     0.035773  p :     0.083417
      px      :     0.031701
      py      :     0.015942
 85 H s       :     0.892714  s :     0.892714
      pz      :     0.022492  p :     0.079789
      px      :     0.014064
      py      :     0.043233
 86 H s       :     0.890923  s :     0.890923
      pz      :     0.024733  p :     0.078834
      px      :     0.032986
      py      :     0.021115
 87 H s       :     0.889737  s :     0.889737
      pz      :     0.048029  p :     0.078751
      px      :     0.015585
      py      :     0.015138
 88 H s       :     0.910515  s :     0.910515
      pz      :     0.021606  p :     0.087014
      px      :     0.042950
      py      :     0.022457
 89 H s       :     0.870839  s :     0.870839
      pz      :     0.037976  p :     0.083874
      px      :     0.030519
      py      :     0.015379


                      *****************************
                      * MAYER POPULATION ANALYSIS *
                      *****************************

  NA   - Mulliken gross atomic population
  ZA   - Total nuclear charge
  QA   - Mulliken gross atomic charge
  VA   - Mayer's total valence
  BVA  - Mayer's bonded valence
  FA   - Mayer's free valence

  ATOM       NA         ZA         QA         VA         BVA        FA
  0 C      5.7699     6.0000     0.2301     3.8523     3.8523     0.0000
  1 N      7.4547     7.0000    -0.4547     3.3511     3.3511    -0.0000
  2 C      6.0701     6.0000    -0.0701     3.9245     3.9245     0.0000
  3 N      7.3413     7.0000    -0.3413     3.4554     3.4554     0.0000
  4 C      6.1087     6.0000    -0.1087     4.1777     4.1777    -0.0000
  5 N      7.5692     7.0000    -0.5692     3.0955     3.0955    -0.0000
  6 C      6.0994     6.0000    -0.0994     3.9137     3.9137    -0.0000
  7 N      7.3412     7.0000    -0.3412     3.4320     3.4320    -0.0000
  8 C      5.7816     6.0000     0.2184     3.8515     3.8515     0.0000
  9 N      7.5623     7.0000    -0.5623     3.0768     3.0768    -0.0000
 10 C      5.8806     6.0000     0.1194     3.9092     3.9092    -0.0000
 11 N      7.4386     7.0000    -0.4386     3.3776     3.3776     0.0000
 12 C      6.0514     6.0000    -0.0514     3.8134     3.8134     0.0000
 13 N      7.4292     7.0000    -0.4292     3.4291     3.4291     0.0000
 14 C      5.7898     6.0000     0.2102     3.8136     3.8136     0.0000
 15 N      7.4408     7.0000    -0.4408     3.3732     3.3732     0.0000
 16 C      5.7646     6.0000     0.2354     3.7772     3.7772    -0.0000
 17 C      6.1149     6.0000    -0.1149     3.9431     3.9431    -0.0000
 18 C      6.1661     6.0000    -0.1661     3.7422     3.7422     0.0000
 19 C      5.7956     6.0000     0.2044     3.8838     3.8838    -0.0000
 20 C      5.7863     6.0000     0.2137     3.8291     3.8291    -0.0000
 21 C      6.0439     6.0000    -0.0439     3.7952     3.7952     0.0000
 22 C      6.0902     6.0000    -0.0902     3.9826     3.9826    -0.0000
 23 C      6.0396     6.0000    -0.0396     3.9927     3.9927     0.0000
 24 C      5.8069     6.0000     0.1931     3.8211     3.8211     0.0000
 25 C      5.8853     6.0000     0.1147     3.8917     3.8917     0.0000
 26 C      6.0910     6.0000    -0.0910     3.9083     3.9083    -0.0000
 27 C      5.7821     6.0000     0.2179     3.8616     3.8616    -0.0000
 28 C      6.0619     6.0000    -0.0619     3.9889     3.9889    -0.0000
 29 C      6.1841     6.0000    -0.1841     3.7480     3.7480     0.0000
 30 C      5.7539     6.0000     0.2461     3.7997     3.7997    -0.0000
 31 C      5.7696     6.0000     0.2304     3.8168     3.8168    -0.0000
 32 C      6.0615     6.0000    -0.0615     3.9233     3.9233    -0.0000
 33 C      6.0597     6.0000    -0.0597     3.9709     3.9709     0.0000
 34 C      6.0514     6.0000    -0.0514     3.9832     3.9832     0.0000
 35 C      5.7708     6.0000     0.2292     3.8163     3.8163     0.0000
 36 C      5.8919     6.0000     0.1081     3.8745     3.8745     0.0000
 37 C      6.0644     6.0000    -0.0644     3.9177     3.9177    -0.0000
 38 C      5.7692     6.0000     0.2308     3.8012     3.8012    -0.0000
 39 C      6.0574     6.0000    -0.0574     3.9829     3.9829     0.0000
 40 C      6.1817     6.0000    -0.1817     3.7260     3.7260     0.0000
 41 C      5.7737     6.0000     0.2263     3.8880     3.8880     0.0000
 42 C      5.8026     6.0000     0.1974     3.8254     3.8254    -0.0000
 43 C      6.0726     6.0000    -0.0726     3.8999     3.8999    -0.0000
 44 C      6.0895     6.0000    -0.0895     3.9851     3.9851    -0.0000
 45 C      6.0618     6.0000    -0.0618     3.9917     3.9917    -0.0000
 46 C      5.7878     6.0000     0.2122     3.8285     3.8285    -0.0000
 47 C      5.8847     6.0000     0.1153     3.8927     3.8927     0.0000
 48 C      6.0663     6.0000    -0.0663     3.9095     3.9095     0.0000
 49 C      5.7621     6.0000     0.2379     3.8964     3.8964     0.0000
 50 C      6.0459     6.0000    -0.0459     3.9902     3.9902    -0.0000
 51 C      6.1933     6.0000    -0.1933     3.7386     3.7386    -0.0000
 52 H      0.9671     1.0000     0.0329     0.9857     0.9857    -0.0000
 53 H      1.0186     1.0000    -0.0186     0.9993     0.9993    -0.0000
 54 H      0.9538     1.0000     0.0462     1.0088     1.0088    -0.0000
 55 H      0.9681     1.0000     0.0319     0.9864     0.9864     0.0000
 56 H      0.9508     1.0000     0.0492     0.9695     0.9695     0.0000
 57 H      0.9521     1.0000     0.0479     0.9824     0.9824     0.0000
 58 H      0.9540     1.0000     0.0460     0.9845     0.9845    -0.0000
 59 H      1.0211     1.0000    -0.0211     0.9763     0.9763    -0.0000
 60 H      0.9422     1.0000     0.0578     0.9620     0.9620    -0.0000
 61 H      0.8290     1.0000     0.1710     1.0424     1.0424     0.0000
 62 H      0.8245     1.0000     0.1755     1.0436     1.0436    -0.0000
 63 H      0.9449     1.0000     0.0551     0.9853     0.9853    -0.0000
 64 H      1.0376     1.0000    -0.0376     0.9915     0.9915     0.0000
 65 H      0.9534     1.0000     0.0466     1.0101     1.0101     0.0000
 66 H      0.9447     1.0000     0.0553     0.9855     0.9855    -0.0000
 67 H      0.9377     1.0000     0.0623     0.9719     0.9719     0.0000
 68 H      0.9429     1.0000     0.0571     0.9868     0.9868     0.0000
 69 H      0.9438     1.0000     0.0562     0.9828     0.9828    -0.0000
 70 H      1.0303     1.0000    -0.0303     0.9943     0.9943     0.0000
 71 H      0.9553     1.0000     0.0447     1.0058     1.0058    -0.0000
 72 H      0.9284     1.0000     0.0716     0.9835     0.9835    -0.0000
 73 H      1.0079     1.0000    -0.0079     1.0010     1.0010    -0.0000
 74 H      0.9393     1.0000     0.0607     1.0100     1.0100    -0.0000
 75 H      0.9289     1.0000     0.0711     0.9838     0.9838     0.0000
 76 H      0.9247     1.0000     0.0753     0.9721     0.9721     0.0000
 77 H      0.9318     1.0000     0.0682     0.9855     0.9855     0.0000
 78 H      0.9324     1.0000     0.0676     0.9854     0.9854    -0.0000
 79 H      1.0168     1.0000    -0.0168     0.9974     0.9974    -0.0000
 80 H      0.9383     1.0000     0.0617     1.0072     1.0072     0.0000
 81 H      0.9453     1.0000     0.0547     0.9856     0.9856    -0.0000
 82 H      1.0249     1.0000    -0.0249     0.9935     0.9935    -0.0000
 83 H      0.9579     1.0000     0.0421     1.0083     1.0083     0.0000
 84 H      0.9456     1.0000     0.0544     0.9852     0.9852    -0.0000
 85 H      0.9389     1.0000     0.0611     0.9716     0.9716    -0.0000
 86 H      0.9443     1.0000     0.0557     0.9839     0.9839    -0.0000
 87 H      0.9426     1.0000     0.0574     0.9857     0.9857     0.0000
 88 H      1.0143     1.0000    -0.0143     0.9968     0.9968     0.0000
 89 H      0.9525     1.0000     0.0475     1.0075     1.0075    -0.0000

  Mayer bond orders larger than 0.100000
B(  0-C ,  1-N ) :   1.1042 B(  0-C , 17-C ) :   1.7258 B(  0-C , 52-H ) :   0.9594 
B(  1-N ,  8-C ) :   1.0910 B(  1-N , 10-C ) :   0.9776 B(  2-C , 12-C ) :   1.4834 
B(  2-C , 16-C ) :   1.3788 B(  2-C , 53-H ) :   0.9710 B(  3-N , 14-C ) :   1.2257 
B(  3-N , 16-C ) :   1.1778 B(  3-N , 61-H ) :   0.8976 B(  4-C ,  6-C ) :   1.2268 
B(  4-C , 17-C ) :   1.2272 B(  4-C , 18-C ) :   1.4859 B(  5-N , 19-C ) :   1.4613 
B(  5-N , 27-C ) :   1.3681 B(  6-C ,  8-C ) :   1.7314 B(  6-C , 54-H ) :   0.8426 
B(  7-N , 30-C ) :   1.1952 B(  7-N , 38-C ) :   1.1892 B(  7-N , 62-H ) :   0.8968 
B(  8-C , 55-H ) :   0.9594 B(  9-N , 41-C ) :   1.3950 B(  9-N , 49-C ) :   1.4244 
B( 10-C , 56-H ) :   0.9777 B( 10-C , 57-H ) :   0.9826 B( 10-C , 58-H ) :   0.9835 
B( 11-N , 20-C ) :   1.1310 B( 11-N , 24-C ) :   1.1063 B( 11-N , 25-C ) :   0.9604 
B( 12-C , 14-C ) :   1.3626 B( 12-C , 59-H ) :   0.9075 B( 13-N , 31-C ) :   1.1620 
B( 13-N , 35-C ) :   1.1616 B( 13-N , 36-C ) :   0.9410 B( 14-C , 18-C ) :   1.1157 
B( 15-N , 42-C ) :   1.1079 B( 15-N , 46-C ) :   1.1255 B( 15-N , 47-C ) :   0.9610 
B( 16-C , 51-C ) :   1.1678 B( 17-C , 60-H ) :   0.8653 B( 18-C , 19-C ) :   1.1126 
B( 19-C , 21-C ) :   1.2559 B( 20-C , 28-C ) :   1.6291 B( 20-C , 63-H ) :   0.9702 
B( 21-C , 26-C ) :   1.5745 B( 21-C , 64-H ) :   0.8888 B( 22-C , 23-C ) :   1.2893 
B( 22-C , 28-C ) :   1.2633 B( 22-C , 29-C ) :   1.2282 B( 23-C , 24-C ) :   1.6205 
B( 23-C , 65-H ) :   0.9703 B( 24-C , 66-H ) :   0.9696 B( 25-C , 67-H ) :   0.9760 
B( 25-C , 68-H ) :   0.9828 B( 25-C , 69-H ) :   0.9824 B( 26-C , 27-C ) :   1.2679 
B( 26-C , 70-H ) :   0.9653 B( 27-C , 29-C ) :   1.2040 B( 28-C , 71-H ) :   0.9720 
B( 29-C , 30-C ) :   1.2477 B( 30-C , 32-C ) :   1.2781 B( 31-C , 39-C ) :   1.5868 
B( 31-C , 72-H ) :   0.9681 B( 32-C , 37-C ) :   1.5805 B( 32-C , 73-H ) :   0.9786 
B( 33-C , 34-C ) :   1.3072 B( 33-C , 39-C ) :   1.3051 B( 33-C , 40-C ) :   1.1751 
B( 34-C , 35-C ) :   1.5847 B( 34-C , 74-H ) :   0.9696 B( 35-C , 75-H ) :   0.9681 
B( 36-C , 76-H ) :   0.9768 B( 36-C , 77-H ) :   0.9816 B( 36-C , 78-H ) :   0.9823 
B( 37-C , 38-C ) :   1.2845 B( 37-C , 79-H ) :   0.9764 B( 38-C , 40-C ) :   1.2346 
B( 39-C , 80-H ) :   0.9705 B( 40-C , 41-C ) :   1.2506 B( 41-C , 43-C ) :   1.1837 
B( 42-C , 50-C ) :   1.6324 B( 42-C , 81-H ) :   0.9696 B( 43-C , 48-C ) :   1.6694 
B( 43-C , 82-H ) :   0.9721 B( 44-C , 45-C ) :   1.2636 B( 44-C , 50-C ) :   1.2731 
B( 44-C , 51-C ) :   1.2593 B( 45-C , 46-C ) :   1.6339 B( 45-C , 83-H ) :   0.9718 
B( 46-C , 84-H ) :   0.9700 B( 47-C , 85-H ) :   0.9762 B( 47-C , 86-H ) :   0.9829 
B( 47-C , 87-H ) :   0.9824 B( 48-C , 49-C ) :   1.1870 B( 48-C , 88-H ) :   0.9748 
B( 49-C , 51-C ) :   1.2472 B( 50-C , 89-H ) :   0.9708 B( 54-H , 64-H ) :   0.1369 
B( 59-H , 60-H ) :   0.1063 

-------
TIMINGS
-------

Total SCF time: 0 days 0 hours 36 min 39 sec 

Total time                  ....    2199.050 sec
Sum of individual times     ....    2196.301 sec  ( 99.9%)

Fock matrix formation       ....    2180.731 sec  ( 99.2%)
Diagonalization             ....       4.318 sec  (  0.2%)
Density matrix formation    ....       0.426 sec  (  0.0%)
Population analysis         ....       0.230 sec  (  0.0%)
Initial guess               ....       2.375 sec  (  0.1%)
Orbital Transformation      ....       0.000 sec  (  0.0%)
Orbital Orthonormalization  ....       0.000 sec  (  0.0%)
DIIS solution               ....       2.244 sec  (  0.1%)
SOSCF solution              ....       4.630 sec  (  0.2%)

Maximum memory used throughout the entire SCF-calculation: 304.3 MB


           ************************************************************
           *        Program running with 8 parallel MPI-processes     *
           *              working on a common directory               *
           ************************************************************

------------------------------------------------------------------------------
                                ORCA  MP2 
------------------------------------------------------------------------------

Freezing NCore=104 chemical core electrons

----------
MP2 ENERGY (disk based algorithm)
----------

Dimension of the basis                    ...  918
Memory devoted to MP2                     ... 7000 MB   
Data format for buffers                   ... DOUBLE
Compression type for matrix containers    ... UNCOMPRESSED

-------------------------------
PARTIAL EXCHANGE TRANSFORMATION
-------------------------------

Transformation type                        ... one-operator
Generation of integrals (i,mue|j,nue)      ... ON
Generation of integrals (mue,kappa|nue,tau)... OFF
Generation of integrals (i,mue|a,nue)      ... OFF
Dimension of the basis                     ...  918
Number of internal MOs                     ...  127 (  52- 178)
Pair cutoff                                ... 2.500e-12 Eh
Number of AO pairs in the trafo            ... 421821
Total Number of distinct AO pairs          ... 421821
Memory devoted for trafo                   ... 7000.0 MB 
Max. Number of MO pairs treated together   ... 1088      
Number Format for Storage                  ... Double (8 Byte)
Integral package used                      ... LIBINT

Starting integral evaluation:
    ... done with AO integral generation
Closing buffer AOK     (38.22 GB; CompressionRatio= 1.33)
Collecting buffer AOK 
Number of MO pairs included in the trafo   ... 8128
------------------------
SORTING OF (i,mue|j,nue)
------------------------

IBATCH = 1 of  1
Closing buffer KAO     (51.03 GB; CompressionRatio= 1.00)
Collecting buffer KAO 
N(AO-Batches) Done                         ... 174779698 
N(AO-Batches) Skipped                      ... 167767349 
N(IJ)-pairs Skipped                        ...         0 
TOTAL TIME for half transformation         ...   763.555 sec
AO-integral generation                     ...   192.891 sec
Half transformation                        ...   338.490 sec
K-integral sorting                         ...    58.216 sec

Finished integral transformation - now doing MP2 part

OPERATOR COMBINATION   0   0: ij=( 52..178, 52..178)
Process 5:   Internal MO 132
Process 2:   Internal MO  84
Process 0:   Internal MO  54
Process 0:   Internal MO  57
Process 1:   Internal MO  69
Process 0:   Internal MO  60
Process 4:   Internal MO 117
Process 0:   Internal MO  63
Process 1:   Internal MO  72
Process 3:   Internal MO 102
Process 2:   Internal MO  87
Process 0:   Internal MO  66
Process 7:   Internal MO 165
Process 1:   Internal MO  75
Process 6:   Internal MO 150
Process 2:   Internal MO  90
Process 1:   Internal MO  78
Process 5:   Internal MO 135
Process 3:   Internal MO 105
Process 4:   Internal MO 120
Process 1:   Internal MO  81
Process 2:   Internal MO  93
Process 3:   Internal MO 108
Process 2:   Internal MO  96
Process 7:   Internal MO 168
Process 4:   Internal MO 123
Process 6:   Internal MO 153
Process 5:   Internal MO 138
Process 2:   Internal MO  99
Process 3:   Internal MO 111
Process 4:   Internal MO 126
Process 5:   Internal MO 141
Process 3:   Internal MO 114
Process 6:   Internal MO 156
Process 7:   Internal MO 171
Process 4:   Internal MO 129
Process 5:   Internal MO 144
Process 6:   Internal MO 159
Process 7:   Internal MO 174
Process 5:   Internal MO 147
Process 6:   Internal MO 162
Process 7:   Internal MO 177
-----------------------------------------------
 MP2 CORRELATION ENERGY   :     -7.292783825 Eh
-----------------------------------------------


-------
TIMINGS
-------
Total time                :  872.721 sec
Integral trafo            :  770.100 sec ( 88.2%)
K(i,j)                    :    6.656 sec (  0.8%)
T(i,j)                    :    0.082 sec (  0.0%)

---------------------------------------
MP2 TOTAL ENERGY:    -2130.745125340 Eh
---------------------------------------

Maximum memory used throughout the entire MP2-calculation: 6735.8 MB

-------------------------   --------------------
FINAL SINGLE POINT ENERGY     -2130.745125339833
-------------------------   --------------------


                            ***************************************
                            *     ORCA property calculations      *
                            ***************************************


  WARNING: The energy has been calculated at the MP2 level but the densities
           used in the property calculations are still SCF densities
           MP2 response densities have not been calculated 
           use %mp2 Density relaxed end
           or  %mp2 Density unrelaxed end

                                    ---------------------
                                    Active property flags
                                    ---------------------
   (+) Dipole Moment


------------------------------------------------------------------------------
                       ORCA ELECTRIC PROPERTIES CALCULATION
------------------------------------------------------------------------------

Dipole Moment Calculation                       ... on
Quadrupole Moment Calculation                   ... off
Polarizability Calculation                      ... off
GBWName                                         ... /scratch/chu_02/allen/tmpyp4_amber_gaff2/conf1/conf1/Conf358.orca.gbw
Electron density                                ... /scratch/chu_02/allen/tmpyp4_amber_gaff2/conf1/conf1/Conf358.orca.scfp
The origin for moment calculation is the CENTER OF MASS  = (-0.001341, -0.005008  0.001880)

-------------
DIPOLE MOMENT
-------------
                                X             Y             Z
Electronic contribution:      2.93112      -4.31581      -0.07679
Nuclear contribution   :     -0.03189       0.16565       0.09407
                        -----------------------------------------
Total Dipole Moment    :      2.89923      -4.15016       0.01729
                        -----------------------------------------
Magnitude (a.u.)       :      5.06257
Magnitude (Debye)      :     12.86804



--------------------
Rotational spectrum 
--------------------
 
Rotational constants in cm-1:     0.001504     0.001478     0.000760 
Rotational constants in MHz :    45.075151    44.298901    22.780715 

 Dipole components along the rotational axes: 
x,y,z [a.u.] :     3.570912    -3.588570     0.020440 
x,y,z [Debye]:     9.076536    -9.121420     0.051953 

 

Timings for individual modules:

Sum of individual times         ...     3077.036 sec (=  51.284 min)
GTO integral calculation        ...        3.044 sec (=   0.051 min)   0.1 %
SCF iterations                  ...     2200.263 sec (=  36.671 min)  71.5 %
MP2 module                      ...      873.729 sec (=  14.562 min)  28.4 %
                             ****ORCA TERMINATED NORMALLY****
TOTAL RUN TIME: 0 days 0 hours 51 minutes 18 seconds 515 msec
# of primitive gaussian functions

