
                                 *****************
                                 * O   R   C   A *
                                 *****************

                                            #,                                       
                                            ###                                      
                                            ####                                     
                                            #####                                    
                                            ######                                   
                                           ########,                                 
                                     ,,################,,,,,                         
                               ,,#################################,,                 
                          ,,##########################################,,             
                       ,#########################################, ''#####,          
                    ,#############################################,,   '####,        
                  ,##################################################,,,,####,       
                ,###########''''           ''''###############################       
              ,#####''   ,,,,##########,,,,          '''####'''          '####       
            ,##' ,,,,###########################,,,                        '##       
           ' ,,###''''                  '''############,,,                           
         ,,##''                                '''############,,,,        ,,,,,,###''
      ,#''                                            '''#######################'''  
     '                                                          ''''####''''         
             ,#######,   #######,   ,#######,      ##                                
            ,#'     '#,  ##    ##  ,#'     '#,    #''#        ######   ,####,        
            ##       ##  ##   ,#'  ##            #'  '#       #        #'  '#        
            ##       ##  #######   ##           ,######,      #####,   #    #        
            '#,     ,#'  ##    ##  '#,     ,#' ,#      #,         ##   #,  ,#        
             '#######'   ##     ##  '#######'  #'      '#     #####' # '####'        



                  #######################################################
                  #                        -***-                        #
                  #          Department of theory and spectroscopy      #
                  #    Directorship and core code : Frank Neese         #
                  #        Max Planck Institute fuer Kohlenforschung    #
                  #                Kaiser Wilhelm Platz 1               #
                  #                 D-45470 Muelheim/Ruhr               #
                  #                      Germany                        #
                  #                                                     #
                  #                  All rights reserved                #
                  #                        -***-                        #
                  #######################################################


                         Program Version 5.0.4 -  RELEASE  -


 With contributions from (in alphabetic order):
   Daniel Aravena         : Magnetic Suceptibility
   Michael Atanasov       : Ab Initio Ligand Field Theory (pilot matlab implementation)
   Alexander A. Auer      : GIAO ZORA, VPT2 properties, NMR spectrum
   Ute Becker             : Parallelization
   Giovanni Bistoni       : ED, misc. LED, open-shell LED, HFLD
   Martin Brehm           : Molecular dynamics
   Dmytro Bykov           : SCF Hessian
   Vijay G. Chilkuri      : MRCI spin determinant printing, contributions to CSF-ICE
   Dipayan Datta          : RHF DLPNO-CCSD density
   Achintya Kumar Dutta   : EOM-CC, STEOM-CC
   Dmitry Ganyushin       : Spin-Orbit,Spin-Spin,Magnetic field MRCI
   Miquel Garcia          : C-PCM and meta-GGA Hessian, CC/C-PCM, Gaussian charge scheme
   Yang Guo               : DLPNO-NEVPT2, F12-NEVPT2, CIM, IAO-localization
   Andreas Hansen         : Spin unrestricted coupled pair/coupled cluster methods
   Benjamin Helmich-Paris : MC-RPA, TRAH-SCF, COSX integrals
   Lee Huntington         : MR-EOM, pCC
   Robert Izsak           : Overlap fitted RIJCOSX, COSX-SCS-MP3, EOM
   Marcus Kettner         : VPT2
   Christian Kollmar      : KDIIS, OOCD, Brueckner-CCSD(T), CCSD density, CASPT2, CASPT2-K
   Simone Kossmann        : Meta GGA functionals, TD-DFT gradient, OOMP2, MP2 Hessian
   Martin Krupicka        : Initial AUTO-CI
   Lucas Lang             : DCDCAS
   Marvin Lechner         : AUTO-CI (C++ implementation), FIC-MRCC
   Dagmar Lenk            : GEPOL surface, SMD
   Dimitrios Liakos       : Extrapolation schemes; Compound Job, initial MDCI parallelization
   Dimitrios Manganas     : Further ROCIS development; embedding schemes
   Dimitrios Pantazis     : SARC Basis sets
   Anastasios Papadopoulos: AUTO-CI, single reference methods and gradients
   Taras Petrenko         : DFT Hessian,TD-DFT gradient, ASA, ECA, R-Raman, ABS, FL, XAS/XES, NRVS
   Peter Pinski           : DLPNO-MP2, DLPNO-MP2 Gradient
   Christoph Reimann      : Effective Core Potentials
   Marius Retegan         : Local ZFS, SOC
   Christoph Riplinger    : Optimizer, TS searches, QM/MM, DLPNO-CCSD(T), (RO)-DLPNO pert. Triples
   Tobias Risthaus        : Range-separated hybrids, TD-DFT gradient, RPA, STAB
   Michael Roemelt        : Original ROCIS implementation
   Masaaki Saitow         : Open-shell DLPNO-CCSD energy and density
   Barbara Sandhoefer     : DKH picture change effects
   Avijit Sen             : IP-ROCIS
   Kantharuban Sivalingam : CASSCF convergence, NEVPT2, FIC-MRCI
   Bernardo de Souza      : ESD, SOC TD-DFT
   Georgi Stoychev        : AutoAux, RI-MP2 NMR, DLPNO-MP2 response
   Willem Van den Heuvel  : Paramagnetic NMR
   Boris Wezisla          : Elementary symmetry handling
   Frank Wennmohs         : Technical directorship


 We gratefully acknowledge several colleagues who have allowed us to
 interface, adapt or use parts of their codes:
   Stefan Grimme, W. Hujo, H. Kruse, P. Pracht,  : VdW corrections, initial TS optimization,
                  C. Bannwarth, S. Ehlert          DFT functionals, gCP, sTDA/sTD-DF
   Ed Valeev, F. Pavosevic, A. Kumar             : LibInt (2-el integral package), F12 methods
   Garnet Chan, S. Sharma, J. Yang, R. Olivares  : DMRG
   Ulf Ekstrom                                   : XCFun DFT Library
   Mihaly Kallay                                 : mrcc  (arbitrary order and MRCC methods)
   Jiri Pittner, Ondrej Demel                    : Mk-CCSD
   Frank Weinhold                                : gennbo (NPA and NBO analysis)
   Christopher J. Cramer and Donald G. Truhlar   : smd solvation model
   Lars Goerigk                                  : TD-DFT with DH, B97 family of functionals
   V. Asgeirsson, H. Jonsson                     : NEB implementation
   FAccTs GmbH                                   : IRC, NEB, NEB-TS, DLPNO-Multilevel, CI-OPT
                                                   MM, QMMM, 2- and 3-layer-ONIOM, Crystal-QMMM,
                                                   LR-CPCM, SF, NACMEs, symmetry and pop. for TD-DFT,
                                                   nearIR, NL-DFT gradient (VV10), updates on ESD,
                                                   ML-optimized integration grids
   S Lehtola, MJT Oliveira, MAL Marques          : LibXC Library
   Liviu Ungur et al                             : ANISO software


 Your calculation uses the libint2 library for the computation of 2-el integrals
 For citations please refer to: http://libint.valeyev.net

 Your ORCA version has been built with support for libXC version: 5.1.0
 For citations please refer to: https://tddft.org/programs/libxc/

 This ORCA versions uses:
   CBLAS   interface :  Fast vector & matrix operations
   LAPACKE interface :  Fast linear algebra routines
   SCALAPACK package :  Parallel linear algebra routines
   Shared memory     :  Shared parallel matrices
   BLAS/LAPACK       :  OpenBLAS 0.3.15  USE64BITINT DYNAMIC_ARCH NO_AFFINITY Sandybridge SINGLE_THREADED
        Core in use  :  Sandybridge
   Copyright (c) 2011-2014, The OpenBLAS Project


================================================================================

----- Orbital basis set information -----
Your calculation utilizes the basis: cc-pVDZ 
       H, B-Ne : Obtained from the ccRepo (grant-hill.group.shef.ac.uk/ccrepo) Feb. 2017
                 T. H. Dunning, Jr., J. Chem. Phys. 90, 1007 (1989)
            He : Obtained from the ccRepo (grant-hill.group.shef.ac.uk/ccrepo) Feb. 2017
                 D. E. Woon, T. H. Dunning, Jr., J. Chem. Phys. 100, 2975 (1994)
  Li-Be, Na-Mg : Obtained from the ccRepo (grant-hill.group.shef.ac.uk/ccrepo) Feb. 2017
                 B. P. Prascher, D. E. Woon, K. A. Peterson, T. H. Dunning, Jr., A. K. Wilson, Theor. Chem. Acc. 128, 69 (2011)
         Al-Ar : Obtained from the ccRepo (grant-hill.group.shef.ac.uk/ccrepo) Feb. 2017
                 D. E. Woon, T. H. Dunning, Jr., J. Chem. Phys. 98, 1358 (1993)
            Ca : Obtained from the Peterson Research Group Website (tyr0.chem.wsu.edu/~kipeters) Feb. 2017
                 J. Koput, K. A. Peterson, J. Phys. Chem. 106, 9595 (2002)
         Sc-Zn : Obtained from the ccRepo (grant-hill.group.shef.ac.uk/ccrepo) Feb. 2017
                 N. B. Balabanov, K. A. Peterson, J. Chem. Phys. 123, 064107 (2005)
                 N. B. Balabanov, K. A. Peterson, J. Chem. Phys. 125, 074110 (2006)
         Ga-Kr : Obtained from the ccRepo (grant-hill.group.shef.ac.uk/ccrepo) Feb. 2017
                 A. K. Wilson, D. E. Woon, K. A. Peterson, T. H. Dunning, Jr., J. Chem. Phys. 110, 7667 (1999)

================================================================================
                                        WARNINGS
                       Please study these warnings very carefully!
================================================================================


WARNING: No MP2 level density has been requested!
         To caclulate MP2 level properties use
         %mp2 Density relaxed end
         or
         %mp2 Density unrelaxed end

WARNING: Post HF methods need fully converged wavefunctions
  ===> : Setting SCFConvForced true
         You can overwrite this default with %scf ConvForced false 


INFO   : the flag for use of the SHARK integral package has been found!

================================================================================
                                       INPUT FILE
================================================================================
NAME = /scratch/allen/tmpyp4_amber_gaff2/2.Mdgx/conf11/conf11/Conf43.orca
|  1> ! PAL2
|  2> ! mp2 cc-pvdz TightSCF  NoKeepInts
|  3> 
|  4> %scf
|  5>   MaxCore 2000
|  6> end
|  7> %mp2
|  8>   MaxCore 2000
|  9> end
| 10> * xyz 0 1
| 11>    C       -3.27000         6.34900        -0.67000
| 12>    C        1.47400         4.04100         0.05700
| 13>    C       -2.80200         4.09300         0.04900
| 14>    C       -3.94900         4.16600         0.85400
| 15>    C       -4.71400         5.31500         0.86900
| 16>    C       -5.23000         7.59000         0.12600
| 17>    C        0.13200         4.30700         0.06100
| 18>    C       -0.56900         3.05600         0.04700
| 19>    C        1.64900         2.61800         0.02300
| 20>    C       -2.47600         5.21900        -0.72300
| 21>    N       -4.36900         6.38700         0.11700
| 22>    N        0.38800         2.06700         0.02500
| 23>    N       -2.01000         0.39500        -0.07500
| 24>    N       -0.38800        -2.07400        -0.02700
| 25>    N        2.01000        -0.40100         0.06500
| 26>    C       -1.96000         2.86100         0.02400
| 27>    C       -2.62300         1.61500        -0.01800
| 28>    C       -5.57300        -4.32900         1.06600
| 29>    C       -4.07300         1.47100         0.05600
| 30>    C       -4.10600        -2.75600        -0.02600
| 31>    C       -4.99500        -2.75700        -1.11100
| 32>    C       -6.13200        -3.54200        -1.07600
| 33>    C       -7.65100        -5.11300         0.04000
| 34>    C       -4.32400         0.14100         0.03700
| 35>    C       -3.02500        -0.52000        -0.04800
| 36>    C       -4.42200        -3.56600         1.07500
| 37>    N       -6.40700        -4.31300         0.00100
| 38>    C       -2.86700        -1.92200        -0.04000
| 39>    C       -1.65000        -2.62400        -0.02700
| 40>    C        3.56800        -6.14200        -1.04000
| 41>    C       -1.47600        -4.04900        -0.03400
| 42>    C        2.80300        -4.09900        -0.00800
| 43>    C        3.65700        -4.38400         1.06900
| 44>    C        4.42700        -5.53000         1.05900
| 45>    C        5.24500        -7.58800         0.01400
| 46>    C       -0.13400        -4.31500        -0.02200
| 47>    C        0.56800        -3.06400        -0.02700
| 48>    C        2.77500        -5.01200        -1.07400
| 49>    N        4.37600        -6.39100         0.01700
| 50>    C        1.95900        -2.86900        -0.00900
| 51>    C        2.62100        -1.62200         0.00900
| 52>    C        5.54300         4.33900        -1.13000
| 53>    C        4.07000        -1.47900        -0.09400
| 54>    C        4.10400         2.75100        -0.02100
| 55>    C        5.02700         2.72900         1.03600
| 56>    C        6.16600         3.50900         0.97800
| 57>    C        7.61900         5.15300        -0.11500
| 58>    C        4.32100        -0.14800        -0.09200
| 59>    C        3.02500         0.51400         0.01500
| 60>    C        4.38700         3.58200        -1.11500
| 61>    C        2.86600         1.91600         0.01300
| 62>    N        6.41300         4.29600        -0.09500
| 63>    H       -3.05000         7.24400        -1.23800
| 64>    H        2.27400         4.76600         0.08100
| 65>    H       -4.25800         3.32600         1.46400
| 66>    H       -5.61100         5.41500         1.46600
| 67>    H       -6.02800         7.46200        -0.60900
| 68>    H       -5.65500         7.71000         1.12300
| 69>    H       -4.62300         8.45800        -0.12800
| 70>    H       -0.33200         5.28200         0.06900
| 71>    H       -1.59500         5.23000        -1.35300
| 72>    H        0.18200         1.07200         0.00500
| 73>    H       -0.18300        -1.08000        -0.02100
| 74>    H       -5.86400        -4.96200         1.89500
| 75>    H       -4.79400         2.27200         0.13900
| 76>    H       -4.80000        -2.16000        -1.99400
| 77>    H       -6.84100        -3.58200        -1.89300
| 78>    H       -8.42800        -4.53600         0.54600
| 79>    H       -7.95600        -5.33700        -0.98100
| 80>    H       -7.45600        -6.03700         0.58400
| 81>    H       -5.28700        -0.34400         0.10000
| 82>    H       -3.78000        -3.60100         1.94700
| 83>    H        3.58700        -6.86800        -1.84300
| 84>    H       -2.27600        -4.77400        -0.05000
| 85>    H        3.71400        -3.72400         1.92600
| 86>    H        5.09200        -5.79500         1.87100
| 87>    H        6.20500        -7.32900        -0.43900
| 88>    H        5.39300        -7.91700         1.04200
| 89>    H        4.75900        -8.37300        -0.56400
| 90>    H        0.32900        -5.29000        -0.00800
| 91>    H        2.14600        -4.84200        -1.94000
| 92>    H        5.80800         4.98600        -1.95600
| 93>    H        4.78800        -2.28100        -0.18500
| 94>    H        4.86000         2.11400         1.91200
| 95>    H        6.90100         3.53100         1.77200
| 96>    H        7.38300         6.10900         0.35600
| 97>    H        8.41400         4.65200         0.43500
| 98>    H        7.92100         5.31000        -1.15000
| 99>    H        5.28300         0.33600        -0.17900
|100>    H        3.72000         3.63200        -1.96700
|101> *
|102> 
|103>                          ****END OF INPUT****
================================================================================

                       ****************************
                       * Single Point Calculation *
                       ****************************

---------------------------------
CARTESIAN COORDINATES (ANGSTROEM)
---------------------------------
  C     -3.270000    6.349000   -0.670000
  C      1.474000    4.041000    0.057000
  C     -2.802000    4.093000    0.049000
  C     -3.949000    4.166000    0.854000
  C     -4.714000    5.315000    0.869000
  C     -5.230000    7.590000    0.126000
  C      0.132000    4.307000    0.061000
  C     -0.569000    3.056000    0.047000
  C      1.649000    2.618000    0.023000
  C     -2.476000    5.219000   -0.723000
  N     -4.369000    6.387000    0.117000
  N      0.388000    2.067000    0.025000
  N     -2.010000    0.395000   -0.075000
  N     -0.388000   -2.074000   -0.027000
  N      2.010000   -0.401000    0.065000
  C     -1.960000    2.861000    0.024000
  C     -2.623000    1.615000   -0.018000
  C     -5.573000   -4.329000    1.066000
  C     -4.073000    1.471000    0.056000
  C     -4.106000   -2.756000   -0.026000
  C     -4.995000   -2.757000   -1.111000
  C     -6.132000   -3.542000   -1.076000
  C     -7.651000   -5.113000    0.040000
  C     -4.324000    0.141000    0.037000
  C     -3.025000   -0.520000   -0.048000
  C     -4.422000   -3.566000    1.075000
  N     -6.407000   -4.313000    0.001000
  C     -2.867000   -1.922000   -0.040000
  C     -1.650000   -2.624000   -0.027000
  C      3.568000   -6.142000   -1.040000
  C     -1.476000   -4.049000   -0.034000
  C      2.803000   -4.099000   -0.008000
  C      3.657000   -4.384000    1.069000
  C      4.427000   -5.530000    1.059000
  C      5.245000   -7.588000    0.014000
  C     -0.134000   -4.315000   -0.022000
  C      0.568000   -3.064000   -0.027000
  C      2.775000   -5.012000   -1.074000
  N      4.376000   -6.391000    0.017000
  C      1.959000   -2.869000   -0.009000
  C      2.621000   -1.622000    0.009000
  C      5.543000    4.339000   -1.130000
  C      4.070000   -1.479000   -0.094000
  C      4.104000    2.751000   -0.021000
  C      5.027000    2.729000    1.036000
  C      6.166000    3.509000    0.978000
  C      7.619000    5.153000   -0.115000
  C      4.321000   -0.148000   -0.092000
  C      3.025000    0.514000    0.015000
  C      4.387000    3.582000   -1.115000
  C      2.866000    1.916000    0.013000
  N      6.413000    4.296000   -0.095000
  H     -3.050000    7.244000   -1.238000
  H      2.274000    4.766000    0.081000
  H     -4.258000    3.326000    1.464000
  H     -5.611000    5.415000    1.466000
  H     -6.028000    7.462000   -0.609000
  H     -5.655000    7.710000    1.123000
  H     -4.623000    8.458000   -0.128000
  H     -0.332000    5.282000    0.069000
  H     -1.595000    5.230000   -1.353000
  H      0.182000    1.072000    0.005000
  H     -0.183000   -1.080000   -0.021000
  H     -5.864000   -4.962000    1.895000
  H     -4.794000    2.272000    0.139000
  H     -4.800000   -2.160000   -1.994000
  H     -6.841000   -3.582000   -1.893000
  H     -8.428000   -4.536000    0.546000
  H     -7.956000   -5.337000   -0.981000
  H     -7.456000   -6.037000    0.584000
  H     -5.287000   -0.344000    0.100000
  H     -3.780000   -3.601000    1.947000
  H      3.587000   -6.868000   -1.843000
  H     -2.276000   -4.774000   -0.050000
  H      3.714000   -3.724000    1.926000
  H      5.092000   -5.795000    1.871000
  H      6.205000   -7.329000   -0.439000
  H      5.393000   -7.917000    1.042000
  H      4.759000   -8.373000   -0.564000
  H      0.329000   -5.290000   -0.008000
  H      2.146000   -4.842000   -1.940000
  H      5.808000    4.986000   -1.956000
  H      4.788000   -2.281000   -0.185000
  H      4.860000    2.114000    1.912000
  H      6.901000    3.531000    1.772000
  H      7.383000    6.109000    0.356000
  H      8.414000    4.652000    0.435000
  H      7.921000    5.310000   -1.150000
  H      5.283000    0.336000   -0.179000
  H      3.720000    3.632000   -1.967000

----------------------------
CARTESIAN COORDINATES (A.U.)
----------------------------
  NO LB      ZA    FRAG     MASS         X           Y           Z
   0 C     6.0000    0    12.011   -6.179404   11.997871   -1.266117
   1 C     6.0000    0    12.011    2.785456    7.636383    0.107714
   2 C     6.0000    0    12.011   -5.295013    7.734649    0.092597
   3 C     6.0000    0    12.011   -7.462529    7.872599    1.613826
   4 C     6.0000    0    12.011   -8.908169   10.043894    1.642172
   5 C     6.0000    0    12.011   -9.883268   14.343021    0.238105
   6 C     6.0000    0    12.011    0.249444    8.139050    0.115273
   7 C     6.0000    0    12.011   -1.075254    5.775003    0.088817
   8 C     6.0000    0    12.011    3.116158    4.947303    0.043464
   9 C     6.0000    0    12.011   -4.678962    9.862481   -1.366272
  10 N     7.0000    0    14.007   -8.256213   12.069681    0.221098
  11 N     7.0000    0    14.007    0.733214    3.906064    0.047243
  12 N     7.0000    0    14.007   -3.798350    0.746442   -0.141729
  13 N     7.0000    0    14.007   -0.733214   -3.919292   -0.051023
  14 N     7.0000    0    14.007    3.798350   -0.757780    0.122832
  15 C     6.0000    0    12.011   -3.703863    5.406506    0.045353
  16 C     6.0000    0    12.011   -4.956752    3.051908   -0.034015
  17 C     6.0000    0    12.011  -10.531444   -8.180624    2.014448
  18 C     6.0000    0    12.011   -7.696855    2.779787    0.105825
  19 C     6.0000    0    12.011   -7.759216   -5.208085   -0.049133
  20 C     6.0000    0    12.011   -9.439182   -5.209975   -2.099486
  21 C     6.0000    0    12.011  -11.587801   -6.693410   -2.033345
  22 C     6.0000    0    12.011  -14.458295   -9.662170    0.075589
  23 C     6.0000    0    12.011   -8.171176    0.266451    0.069920
  24 C     6.0000    0    12.011   -5.716422   -0.982658   -0.090707
  25 C     6.0000    0    12.011   -8.356369   -6.738763    2.031456
  26 N     7.0000    0    14.007  -12.107475   -8.150389    0.001890
  27 C     6.0000    0    12.011   -5.417845   -3.632054   -0.075589
  28 C     6.0000    0    12.011   -3.118048   -4.958641   -0.051023
  29 C     6.0000    0    12.011    6.742543  -11.606698   -1.965315
  30 C     6.0000    0    12.011   -2.789236   -7.651501   -0.064251
  31 C     6.0000    0    12.011    5.296902   -7.745987   -0.015118
  32 C     6.0000    0    12.011    6.910728   -8.284559    2.020117
  33 C     6.0000    0    12.011    8.365818  -10.450186    2.001220
  34 C     6.0000    0    12.011    9.911614  -14.339242    0.026456
  35 C     6.0000    0    12.011   -0.253223   -8.154168   -0.041574
  36 C     6.0000    0    12.011    1.073364   -5.790121   -0.051023
  37 C     6.0000    0    12.011    5.243990   -9.471307   -2.029566
  38 N     7.0000    0    14.007    8.269442  -12.077240    0.032125
  39 C     6.0000    0    12.011    3.701973   -5.421624   -0.017008
  40 C     6.0000    0    12.011    4.952972   -3.065136    0.017008
  41 C     6.0000    0    12.011   10.474752    8.199522   -2.135391
  42 C     6.0000    0    12.011    7.691185   -2.794905   -0.177634
  43 C     6.0000    0    12.011    7.755436    5.198637   -0.039684
  44 C     6.0000    0    12.011    9.499653    5.157063    1.957756
  45 C     6.0000    0    12.011   11.652051    6.631049    1.848152
  46 C     6.0000    0    12.011   14.397823    9.737759   -0.217319
  47 C     6.0000    0    12.011    8.165507   -0.279679   -0.173855
  48 C     6.0000    0    12.011    5.716422    0.971319    0.028346
  49 C     6.0000    0    12.011    8.290229    6.768999   -2.107045
  50 C     6.0000    0    12.011    5.415955    3.620715    0.024566
  51 N     7.0000    0    14.007   12.118814    8.118263   -0.179524
  52 H     1.0000    0     1.008   -5.763665   13.689176   -2.339481
  53 H     1.0000    0     1.008    4.297237    9.006435    0.153068
  54 H     1.0000    0     1.008   -8.046454    6.285229    2.766559
  55 H     1.0000    0     1.008  -10.603253   10.232867    2.770339
  56 H     1.0000    0     1.008  -11.391269   14.101136   -1.150843
  57 H     1.0000    0     1.008  -10.686401   14.569788    2.122162
  58 H     1.0000    0     1.008   -8.736204   15.983304   -0.241885
  59 H     1.0000    0     1.008   -0.627389    9.981533    0.130391
  60 H     1.0000    0     1.008   -3.014113    9.883268   -2.556799
  61 H     1.0000    0     1.008    0.343930    2.025786    0.009449
  62 H     1.0000    0     1.008   -0.345820   -2.040904   -0.039684
  63 H     1.0000    0     1.008  -11.081354   -9.376821    3.581031
  64 H     1.0000    0     1.008   -9.059347    4.293458    0.262672
  65 H     1.0000    0     1.008   -9.070685   -4.081808   -3.768114
  66 H     1.0000    0     1.008  -12.927616   -6.768999   -3.577252
  67 H     1.0000    0     1.008  -15.926612   -8.571798    1.031790
  68 H     1.0000    0     1.008  -15.034661  -10.085468   -1.853821
  69 H     1.0000    0     1.008  -14.089798  -11.408277    1.103600
  70 H     1.0000    0     1.008   -9.990982   -0.650066    0.188973
  71 H     1.0000    0     1.008   -7.143165   -6.804904    3.679297
  72 H     1.0000    0     1.008    6.778448  -12.978639   -3.482765
  73 H     1.0000    0     1.008   -4.301017   -9.021553   -0.094486
  74 H     1.0000    0     1.008    7.018443   -7.037340    3.639613
  75 H     1.0000    0     1.008    9.622485  -10.950963    3.535678
  76 H     1.0000    0     1.008   11.725751  -13.849803   -0.829590
  77 H     1.0000    0     1.008   10.191293  -14.960962    1.969095
  78 H     1.0000    0     1.008    8.993207  -15.822677   -1.065806
  79 H     1.0000    0     1.008    0.621720   -9.996651   -0.015118
  80 H     1.0000    0     1.008    4.055352   -9.150054   -3.666069
  81 H     1.0000    0     1.008   10.975529    9.422175   -3.696304
  82 H     1.0000    0     1.008    9.048009   -4.310465   -0.349599
  83 H     1.0000    0     1.008    9.184069    3.994881    3.613156
  84 H     1.0000    0     1.008   13.041000    6.672623    3.348595
  85 H     1.0000    0     1.008   13.951848   11.544337    0.672743
  86 H     1.0000    0     1.008   15.900156    8.791006    0.822031
  87 H     1.0000    0     1.008   14.968521   10.034446   -2.173185
  88 H     1.0000    0     1.008    9.983423    0.634948   -0.338261
  89 H     1.0000    0     1.008    7.029781    6.863485   -3.717091

--------------------------------
INTERNAL COORDINATES (ANGSTROEM)
--------------------------------
 C      0   0   0     0.000000000000     0.00000000     0.00000000
 C      1   0   0     5.325498004882     0.00000000     0.00000000
 C      1   2   0     2.413611609187    51.79474156     0.00000000
 C      3   1   2     1.403197420180    87.92395325   145.86440309
 C      4   3   1     1.380453186457   120.16691244     0.15184421
 C      5   4   3     2.448250395691   152.49059772     1.59022120
 C      2   1   3     1.368114030335    16.73062106   347.96651634
 C      7   2   1     1.434084376876   108.05010202   150.41390207
 C      2   1   3     1.434123425651   122.37717646    22.56014390
 C      1   2   3     1.382079954272    30.58537100   326.07195522
 N      1   2   3     1.352262548472   131.04872819    48.11166318
 N      9   2   1     1.376127174356   106.58526707   349.32943171
 N     12   9   2     2.925062050624   168.53581413   171.12065651
 N     13  12   9     2.954513327098    91.55032014    11.12112580
 N     14  13  12     2.925371258490    88.43092389   359.84326247
 C      8   7   2     1.404790019896   127.24786865   181.11170171
 C     13  12   9     1.366535034311    81.72106996   188.00453233
 C     14  13  12     5.758810554272    80.56209567   166.76250791
 C     17  13  12     1.459010623676   111.08861209   183.82872609
 C     18  14  13     2.412235892279    27.27532823    36.33507194
 C     20  18  14     1.402692767501    87.95206320   148.94598259
 C     21  20  18     1.382106725257   120.14573887   359.70382047
 C     18  14  13     2.446510985056   144.15733107    82.80075377
 C     19  17  13     1.353610726908   106.29293361   359.75308708
 C     13  12   9     1.366813447402   172.21332906    33.46711076
 C     18  14  13     1.380960173213    15.08449437   309.23336894
 N     22  21  20     1.352773077792   120.73759875     0.27865223
 C     25  13  17     1.410897586645   125.60330303   182.37774668
 C     14  13  12     1.376642291955    80.24689249   177.85461986
 C     14  13  12     5.764089607215   164.51507311   312.20821879
 C     29  14  13     1.435600919476   106.58649366   178.76395472
 C     30  14  13     2.413316804732    27.10625047    82.12560436
 C     32  30  14     1.403734305344    87.90059683   149.76154742
 C     33  32  30     1.380694028378   120.14881443   359.74174632
 C     34  33  32     2.448777858443   152.49203239     2.45173620
 C     31  29  14     1.368160809262   108.16950133     0.70383075
 C     14  13  12     1.376239804685   169.26375223   353.09862627
 C     30  14  13     1.380907310430    14.68948582   353.70041132
 N     34  33  32     1.352658863128   120.85575621     0.19603406
 C     37  14  29     1.404717053360   126.01551127   180.90772073
 C     15  14  13     1.366491126938    81.61824056   183.09049352
 C      2   1   3     4.249062720177   141.67708260   156.93097457
 C     41  15  14     1.459677704153   111.05201287   175.08990246
 C     42   2   1     2.412953791518    41.78584867   193.55440350
 C     44  42   2     1.403446472082    87.95153797   233.97558675
 C     45  44  42     1.381696421071   120.11137308     0.19721020
 C     42   2   1     2.450019795838   135.97209175   103.86925260
 C     43  41  15     1.354461516618   106.26758155     0.30894352
 C     15  14  13     1.367461151185   171.87382904   332.35056460
 C     42   2   1     1.381886391857    32.59078432   242.40968269
 C      9   2   1     1.404988612053   126.98745415   170.33376924
 N     42   2   1     1.352765315936   113.57249190   131.60584180
 H      1   2   3     1.082612118905   104.41136049   194.84241947
 H      2   1   3     1.079907866440   111.83856945   194.13572418
 H      4   3   1     1.083134802321   121.06033212   179.47132975
 H      5   4   3     1.082135850991   122.83814332   179.42115744
 H      6   5   4     1.092434437392   104.43403479   100.15791416
 H      6   5   4     1.090428356198    84.65959262   209.54967323
 H      6   5   4     1.089214854838   133.93387357   322.37478083
 H      7   2   1     1.079807853278   126.66122480   330.65231585
 H     10   1   2     1.083135263944   118.76936997   300.51007597
 H     12   9   2     1.016297692608   125.29023241   180.00180175
 H     14  13  12     1.014936943854    44.97226959   359.42596618
 H     18  14  13     1.082871645210   128.03556573   234.20482432
 H     19  17  13     1.080893611786   126.41830519   178.11313280
 H     21  20  18     1.083569563987   121.05669627   180.67006309
 H     22  21  20     1.082483256222   122.73097286   180.59748951
 H     23  18  14     1.092105306278   103.92715769   234.93429879
 H     23  18  14     1.088871893291   134.19244188    12.25587044
 H     23  18  14     1.089833473518    84.85857450   125.45241208
 H     24  19  17     1.080075460327   127.28078426   178.44613241
 H     26  18  14     1.083408048706   118.76995697   244.94906660
 H     30  14  13     1.082703098730   127.99711412   279.66882698
 H     31  29  14     1.079759695488   125.22293469   180.92530585
 H     33  32  30     1.083188810873   121.01964473   180.74284758
 H     34  33  32     1.082494341787   122.70821597   180.59516895
 H     35  34  33     1.092652735319   105.73575241    97.19771933
 H     35  34  33     1.089462711615    84.05943581   206.43036958
 H     35  34  33     1.089268102902   133.08365142   318.50306270
 H     36  31  29     1.079439669458   126.61599965   178.98859863
 H     38  30  73     1.083742127999   118.77264435   359.90091293
 H     42   2   1     1.082178358682   119.31790784   348.23737225
 H     43  41  15     1.080281907652   126.36969097   182.06329380
 H     45  44  42     1.083277434455   121.10105945   179.58025624
 H     46  45  44     1.082194529648   122.72144639   179.46906377
 H     47  42   2     1.091546151109   106.65128841   315.16475048
 H     47  42   2     1.088818625851   132.46019523    94.52397119
 H     47  42   2     1.089531091801    83.63838232   206.04504406
 H     48  43  41     1.080402239909   127.23657387   181.62955349
 H     50  42   2     1.083186502870   118.77001737    94.71359229

---------------------------
INTERNAL COORDINATES (A.U.)
---------------------------
 C      0   0   0     0.000000000000     0.00000000     0.00000000
 C      1   0   0    10.063732755971     0.00000000     0.00000000
 C      1   2   0     4.561064935016    51.79474156     0.00000000
 C      3   1   2     2.651658835965    87.92395325   145.86440309
 C      4   3   1     2.608678463103   120.16691244     0.15184421
 C      5   4   3     4.626522755120   152.49059772     1.59022120
 C      2   1   3     2.585360837309    16.73062106   347.96651634
 C      7   2   1     2.710026725231   108.05010202   150.41390207
 C      2   1   3     2.710100516721   122.37717646    22.56014390
 C      1   2   3     2.611752608756    30.58537100   326.07195522
 N      1   2   3     2.555405877770   131.04872819    48.11166318
 N      9   2   1     2.600503484979   106.58526707   349.32943171
 N     12   9   2     5.527566200405   168.53581413   171.12065651
 N     13  12   9     5.583221047236    91.55032014    11.12112580
 N     14  13  12     5.528150518591    88.43092389   359.84326247
 C      8   7   2     2.654668413270   127.24786865   181.11170171
 C     13  12   9     2.582376967257    81.72106996   188.00453233
 C     14  13  12    10.882574804710    80.56209567   166.76250791
 C     17  13  12     2.757130505230   111.08861209   183.82872609
 C     18  14  13     4.558465206823    27.27532823    36.33507194
 C     20  18  14     2.650705180609    87.95206320   148.94598259
 C     21  20  18     2.611803198586   120.14573887   359.70382047
 C     18  14  13     4.623235745386   144.15733107    82.80075377
 C     19  17  13     2.557953565794   106.29293361   359.75308708
 C     13  12   9     2.582903091751   172.21332906    33.46711076
 C     18  14  13     2.609636529225    15.08449437   309.23336894
 N     22  21  20     2.556370638369   120.73759875     0.27865223
 C     25  13  17     2.666210041769   125.60330303   182.37774668
 C     14  13  12     2.601476916169    80.24689249   177.85461986
 C     14  13  12    10.892550769017   164.51507311   312.20821879
 C     29  14  13     2.712892575415   106.58649366   178.76395472
 C     30  14  13     4.560507835333    27.10625047    82.12560436
 C     32  30  14     2.652673401891    87.90059683   149.76154742
 C     33  32  30     2.609133588376   120.14881443   359.74174632
 C     34  33  32     4.627519515267   152.49203239     2.45173620
 C     31  29  14     2.585449236669   108.16950133     0.70383075
 C     14  13  12     2.600716325456   169.26375223   353.09862627
 C     30  14  13     2.609536633043    14.68948582   353.70041132
 N     34  33  32     2.556154803934   120.85575621     0.19603406
 C     37  14  29     2.654530526499   126.01551127   180.90772073
 C     15  14  13     2.582293994346    81.61824056   183.09049352
 C      2   1   3     8.029564866989   141.67708260   156.93097457
 C     41  15  14     2.758391104639   111.05201287   175.08990246
 C     42   2   1     4.559821839776    41.78584867   193.55440350
 C     44  42   2     2.652129475853    87.95153797   233.97558675
 C     45  44  42     2.611027836043   120.11137308     0.19721020
 C     42   2   1     4.629866436820   135.97209175   103.86925260
 C     43  41  15     2.559561325344   106.26758155     0.30894352
 C     15  14  13     2.584127074516   171.87382904   332.35056460
 C     42   2   1     2.611386828803    32.59078432   242.40968269
 C      9   2   1     2.655043698059   126.98745415   170.33376924
 N     42   2   1     2.556355970587   113.57249190   131.60584180
 H      1   2   3     2.045840413995   104.41136049   194.84241947
 H      2   1   3     2.040730117440   111.83856945   194.13572418
 H      4   3   1     2.046828142507   121.06033212   179.47132975
 H      5   4   3     2.044940398071   122.83814332   179.42115744
 H      6   5   4     2.064401905935   104.43403479   100.15791416
 H      6   5   4     2.060610961876    84.65959262   209.54967323
 H      6   5   4     2.058317776643   133.93387357   322.37478083
 H      7   2   1     2.040541119952   126.66122480   330.65231585
 H     10   1   2     2.046829014848   118.76936997   300.51007597
 H     12   9   2     1.920524309565   125.29023241   180.00180175
 H     14  13  12     1.917952867083    44.97226959   359.42596618
 H     18  14  13     2.046330847636   128.03556573   234.20482432
 H     19  17  13     2.042592906181   126.41830519   178.11313280
 H     21  20  18     2.047649722989   121.05669627   180.67006309
 H     22  21  20     2.045596898814   122.73097286   180.59748951
 H     23  18  14     2.063779938267   103.92715769   234.93429879
 H     23  18  14     2.057669673245   134.19244188    12.25587044
 H     23  18  14     2.059486796529    84.85857450   125.45241208
 H     24  19  17     2.041046823986   127.28078426   178.44613241
 H     26  18  14     2.047344503340   118.76995697   244.94906660
 H     30  14  13     2.046012340948   127.99711412   279.66882698
 H     31  29  14     2.040450114918   125.22293469   180.92530585
 H     33  32  30     2.046930203877   121.01964473   180.74284758
 H     34  33  32     2.045617847496   122.70821597   180.59516895
 H     35  34  33     2.064814429233   105.73575241    97.19771933
 H     35  34  33     2.058786158072    84.05943581   206.43036958
 H     35  34  33     2.058418400901   133.08365142   318.50306270
 H     36  31  29     2.039845353366   126.61599965   178.98859863
 H     38  30  73     2.047975821711   118.77264435   359.90091293
 H     42   2   1     2.045020725966   119.31790784   348.23737225
 H     43  41  15     2.041436952892   126.36969097   182.06329380
 H     45  44  42     2.047097678177   121.10105945   179.58025624
 H     46  45  44     2.045051284662   122.72144639   179.46906377
 H     47  42   2     2.062723288131   106.65128841   315.16475048
 H     47  42   2     2.057569012371   132.46019523    94.52397119
 H     47  42   2     2.058915377895    83.63838232   206.04504406
 H     48  43  41     2.041664347903   127.23657387   181.62955349
 H     50  42   2     2.046925842384   118.77001737    94.71359229

---------------------
BASIS SET INFORMATION
---------------------
There are 3 groups of distinct atoms

 Group   1 Type C   : 17s4p1d contracted to 3s2p1d pattern {881/31/1}
 Group   2 Type N   : 17s4p1d contracted to 3s2p1d pattern {881/31/1}
 Group   3 Type H   : 4s1p contracted to 2s1p pattern {31/1}

Atom   0C    basis set group =>   1
Atom   1N    basis set group =>   2
Atom   2C    basis set group =>   1
Atom   3N    basis set group =>   2
Atom   4C    basis set group =>   1
Atom   5N    basis set group =>   2
Atom   6C    basis set group =>   1
Atom   7N    basis set group =>   2
Atom   8C    basis set group =>   1
Atom   9N    basis set group =>   2
Atom  10C    basis set group =>   1
Atom  11N    basis set group =>   2
Atom  12C    basis set group =>   1
Atom  13N    basis set group =>   2
Atom  14C    basis set group =>   1
Atom  15N    basis set group =>   2
Atom  16C    basis set group =>   1
Atom  17C    basis set group =>   1
Atom  18C    basis set group =>   1
Atom  19C    basis set group =>   1
Atom  20C    basis set group =>   1
Atom  21C    basis set group =>   1
Atom  22C    basis set group =>   1
Atom  23C    basis set group =>   1
Atom  24C    basis set group =>   1
Atom  25C    basis set group =>   1
Atom  26C    basis set group =>   1
Atom  27C    basis set group =>   1
Atom  28C    basis set group =>   1
Atom  29C    basis set group =>   1
Atom  30C    basis set group =>   1
Atom  31C    basis set group =>   1
Atom  32C    basis set group =>   1
Atom  33C    basis set group =>   1
Atom  34C    basis set group =>   1
Atom  35C    basis set group =>   1
Atom  36C    basis set group =>   1
Atom  37C    basis set group =>   1
Atom  38C    basis set group =>   1
Atom  39C    basis set group =>   1
Atom  40C    basis set group =>   1
Atom  41C    basis set group =>   1
Atom  42C    basis set group =>   1
Atom  43C    basis set group =>   1
Atom  44C    basis set group =>   1
Atom  45C    basis set group =>   1
Atom  46C    basis set group =>   1
Atom  47C    basis set group =>   1
Atom  48C    basis set group =>   1
Atom  49C    basis set group =>   1
Atom  50C    basis set group =>   1
Atom  51C    basis set group =>   1
Atom  52H    basis set group =>   3
Atom  53H    basis set group =>   3
Atom  54H    basis set group =>   3
Atom  55H    basis set group =>   3
Atom  56H    basis set group =>   3
Atom  57H    basis set group =>   3
Atom  58H    basis set group =>   3
Atom  59H    basis set group =>   3
Atom  60H    basis set group =>   3
Atom  61H    basis set group =>   3
Atom  62H    basis set group =>   3
Atom  63H    basis set group =>   3
Atom  64H    basis set group =>   3
Atom  65H    basis set group =>   3
Atom  66H    basis set group =>   3
Atom  67H    basis set group =>   3
Atom  68H    basis set group =>   3
Atom  69H    basis set group =>   3
Atom  70H    basis set group =>   3
Atom  71H    basis set group =>   3
Atom  72H    basis set group =>   3
Atom  73H    basis set group =>   3
Atom  74H    basis set group =>   3
Atom  75H    basis set group =>   3
Atom  76H    basis set group =>   3
Atom  77H    basis set group =>   3
Atom  78H    basis set group =>   3
Atom  79H    basis set group =>   3
Atom  80H    basis set group =>   3
Atom  81H    basis set group =>   3
Atom  82H    basis set group =>   3
Atom  83H    basis set group =>   3
Atom  84H    basis set group =>   3
Atom  85H    basis set group =>   3
Atom  86H    basis set group =>   3
Atom  87H    basis set group =>   3
Atom  88H    basis set group =>   3
Atom  89H    basis set group =>   3


           ************************************************************
           *        Program running with 16 parallel MPI-processes    *
           *              working on a common directory               *
           ************************************************************
------------------------------------------------------------------------------
                           ORCA GTO INTEGRAL CALCULATION
------------------------------------------------------------------------------
------------------------------------------------------------------------------
                   ___                                                        
                  /   \      - P O W E R E D   B Y -                         
                 /     \                                                     
                 |  |  |   _    _      __       _____    __    __             
                 |  |  |  | |  | |    /  \     |  _  \  |  |  /  |          
                  \  \/   | |  | |   /    \    | | | |  |  | /  /          
                 / \  \   | |__| |  /  /\  \   | |_| |  |  |/  /          
                |  |  |   |  __  | /  /__\  \  |    /   |      \           
                |  |  |   | |  | | |   __   |  |    \   |  |\   \          
                \     /   | |  | | |  |  |  |  | |\  \  |  | \   \       
                 \___/    |_|  |_| |__|  |__|  |_| \__\ |__|  \__/        
                                                                              
                      - O R C A' S   B I G   F R I E N D -                    
                                      &                                       
                       - I N T E G R A L  F E E D E R -                       
                                                                              
 v1 FN, 2020, v2 2021                                                         
------------------------------------------------------------------------------


Reading SHARK input file /scratch/allen/tmpyp4_amber_gaff2/conf1/conf1/Conf43.orca.SHARKINP.tmp ... ok
----------------------
SHARK INTEGRAL PACKAGE
----------------------

Number of atoms                             ...     90
Number of basis functions                   ...   1230
Number of shells                            ...    738
Maximum angular momentum                    ...      2
Integral batch strategy                     ... SHARK/LIBINT Hybrid
RI-J (if used) integral strategy            ... SPLIT-RIJ (Revised 2003 algorithm where possible)
Printlevel                                  ...      1
Contraction scheme used                     ... PARTIAL GENERAL contraction
Coulomb Range Separation                    ... NOT USED
Exchange Range Separation                   ... NOT USED
Finite Nucleus Model                        ... NOT USED
Auxiliary Coulomb fitting basis             ... NOT available
Auxiliary J/K fitting basis                 ... NOT available
Auxiliary Correlation fitting basis         ... NOT available
Auxiliary 'external' fitting basis          ... NOT available
Integral threshold                          ...     2.500000e-11
Primitive cut-off                           ...     2.500000e-12
Primitive pair pre-selection threshold      ...     2.500000e-12

Calculating pre-screening integrals         ... done (  0.1 sec) Dimension = 738
Calculating pre-screening integrals (ORCA)  ... done (  0.3 sec) Dimension = 426
Organizing shell pair data                  ... done (  0.5 sec)
Shell pair information
Total number of shell pairs                 ...    272691
Shell pairs after pre-screening             ...     71644
Total number of primitive shell pairs       ...    422091
Primitive shell pairs kept                  ...     92444
          la=0 lb=0:  29421 shell pairs
          la=1 lb=0:  25986 shell pairs
          la=1 lb=1:   4708 shell pairs
          la=2 lb=0:   7877 shell pairs
          la=2 lb=1:   3122 shell pairs
          la=2 lb=2:    530 shell pairs

Calculating one electron integrals          ... done (  0.2 sec)
Calculating Nuclear repulsion               ... done (  0.0 sec) ENN=   6228.856729251643 Eh

SHARK setup successfully completed in   1.7 seconds

Maximum memory used throughout the entire GTOINT-calculation: 99.0 MB


           ************************************************************
           *        Program running with 16 parallel MPI-processes    *
           *              working on a common directory               *
           ************************************************************
-------------------------------------------------------------------------------
                                 ORCA SCF
-------------------------------------------------------------------------------

------------
SCF SETTINGS
------------
Hamiltonian:
 Ab initio Hamiltonian  Method          .... Hartree-Fock(GTOs)


General Settings:
 Integral files         IntName         .... /scratch/allen/tmpyp4_amber_gaff2/conf1/conf1/Conf43.orca
 Hartree-Fock type      HFTyp           .... RHF
 Total Charge           Charge          ....    0
 Multiplicity           Mult            ....    1
 Number of Electrons    NEL             ....  358
 Basis Dimension        Dim             ....  918
 Nuclear Repulsion      ENuc            ....   6228.8567292516 Eh

Convergence Acceleration:
 DIIS                   CNVDIIS         .... on
   Start iteration      DIISMaxIt       ....    12
   Startup error        DIISStart       ....  0.200000
   # of expansion vecs  DIISMaxEq       ....     5
   Bias factor          DIISBfac        ....   1.050
   Max. coefficient     DIISMaxC        ....  10.000
 Trust-Rad. Augm. Hess. CNVTRAH         .... auto
   Auto Start mean grad. ratio tolernc. ....  1.125000
   Auto Start start iteration           ....    20
   Auto Start num. interpolation iter.  ....    10
   Max. Number of Micro iterations      ....    16
   Max. Number of Macro iterations      .... Maxiter - #DIIS iter
   Number of Davidson start vectors     ....     2
   Converg. threshold I  (grad. norm)   ....   1.000e-05
   Converg. threshold II (energy diff.) ....   1.000e-08
   Grad. Scal. Fac. for Micro threshold ....   0.100
   Minimum threshold for Micro iter.    ....   0.010
   NR start threshold (gradient norm)   ....   0.001
   Initial trust radius                 ....   0.400
   Minimum AH scaling param. (alpha)    ....   1.000
   Maximum AH scaling param. (alpha)    .... 1000.000
   Orbital update algorithm             .... Taylor
   White noise on init. David. guess    .... on
   Maximum white noise                  ....   0.010
   Quad. conv. algorithm                .... NR
 SOSCF                  CNVSOSCF        .... on
   Start iteration      SOSCFMaxIt      ....   150
   Startup grad/error   SOSCFStart      ....  0.003300
 Level Shifting         CNVShift        .... on
   Level shift para.    LevelShift      ....    0.2500
   Turn off err/grad.   ShiftErr        ....    0.0010
 Zerner damping         CNVZerner       .... off
 Static damping         CNVDamp         .... on
   Fraction old density DampFac         ....    0.7000
   Max. Damping (<1)    DampMax         ....    0.9800
   Min. Damping (>=0)   DampMin         ....    0.0000
   Turn off err/grad.   DampErr         ....    0.1000
 Fernandez-Rico         CNVRico         .... off

SCF Procedure:
 Maximum # iterations   MaxIter         ....   125
 SCF integral mode      SCFMode         .... Direct
   Integral package                     .... SHARK and LIBINT hybrid scheme
 Reset frequency        DirectResetFreq ....    20
 Integral Threshold     Thresh          ....  2.500e-11 Eh
 Primitive CutOff       TCut            ....  2.500e-12 Eh

Convergence Tolerance:
 Convergence Check Mode ConvCheckMode   .... Total+1el-Energy
 Convergence forced     ConvForced      .... 1
 Energy Change          TolE            ....  1.000e-08 Eh
 1-El. energy change                    ....  1.000e-05 Eh
 Orbital Gradient       TolG            ....  1.000e-05
 Orbital Rotation angle TolX            ....  1.000e-05
 DIIS Error             TolErr          ....  5.000e-07


Diagonalization of the overlap matrix:
Smallest eigenvalue                        ... 2.225e-04
Time for diagonalization                   ...    0.385 sec
Threshold for overlap eigenvalues          ... 1.000e-08
Number of eigenvalues below threshold      ... 0
Time for construction of square roots      ...    0.188 sec
Total time needed                          ...    0.578 sec

Time for model grid setup =    1.007 sec

------------------------------
INITIAL GUESS: MODEL POTENTIAL
------------------------------
Loading Hartree-Fock densities                     ... done
Calculating cut-offs                               ... done
Initializing the effective Hamiltonian             ... done
Setting up the integral package (SHARK)            ... done
Starting the Coulomb interaction                   ... done (   1.1 sec)
Reading the grid                                   ... done
Mapping shells                                     ... done
Starting the XC term evaluation                    ... done (   0.2 sec)
Transforming the Hamiltonian                       ... done (   0.2 sec)
Diagonalizing the Hamiltonian                      ... done (   0.3 sec)
Back transforming the eigenvectors                 ... done (   0.1 sec)
Now organizing SCF variables                       ... done
                      ------------------
                      INITIAL GUESS DONE (   2.9 sec)
                      ------------------
--------------
SCF ITERATIONS
--------------
ITER       Energy         Delta-E        Max-DP      RMS-DP      [F,P]     Damp
               ***  Starting incremental Fock matrix formation  ***
  0  -2121.6862498022   0.000000000000 0.06869213  0.00121253  0.2325244 0.7000
  1  -2122.3453626070  -0.659112804815 0.05207245  0.00098571  0.1439574 0.7000
                               ***Turning on DIIS***
  2  -2122.7548476684  -0.409485061420 0.11652064  0.00223506  0.0802308 0.0000
  3  -2117.8456888191   4.909158849387 0.03173131  0.00067820  0.0440616 0.0000
  4  -2123.4226944745  -5.577005655450 0.01015063  0.00022714  0.0071758 0.0000
  5  -2123.5905641429  -0.167869668341 0.00528356  0.00013379  0.0049653 0.0000
  6  -2123.5740846878   0.016479455084 0.00350020  0.00008611  0.0019819 0.0000
  7  -2123.6750192925  -0.100934604752 0.00295743  0.00006761  0.0015406 0.0000
  8  -2123.6887507860  -0.013731493438 0.00306102  0.00006338  0.0014355 0.0000
  9  -2123.6561771441   0.032573641853 0.00244642  0.00004359  0.0011425 0.0000
 10  -2123.6672521896  -0.011075045524 0.00494278  0.00008813  0.0008786 0.0000
                      *** Initiating the SOSCF procedure ***
                           *** Shutting down DIIS ***
                      *** Re-Reading the Fockian *** 
                      *** Removing any level shift *** 
ITER      Energy       Delta-E        Grad      Rot      Max-DP    RMS-DP
 11  -2123.55527184   0.1119803539  0.000233  0.000233  0.000249  0.000006
               *** Restarting incremental Fock matrix formation ***
 12  -2123.62106457  -0.0657927344  0.000888  0.005981  0.001199  0.000031
 13  -2123.62114991  -0.0000853444  0.001037  0.028310  0.005693  0.000118
 14  -2123.62128994  -0.0001400213  0.000383  0.001744  0.000543  0.000012
 15  -2123.62130540  -0.0000154688  0.000180  0.003655  0.001010  0.000019
 16  -2123.62131567  -0.0000102612  0.000166  0.003896  0.000625  0.000014
 17  -2123.62131991  -0.0000042489  0.000162  0.002566  0.000387  0.000009
 18  -2123.62132221  -0.0000022915  0.000082  0.001264  0.000319  0.000005
 19  -2123.62132331  -0.0000011013  0.000054  0.000727  0.000171  0.000003
 20  -2123.62132365  -0.0000003460  0.000027  0.000426  0.000112  0.000002
 21  -2123.62132385  -0.0000002011  0.000028  0.000494  0.000108  0.000002
 22  -2123.62132398  -0.0000001278  0.000021  0.000571  0.000117  0.000002
 23  -2123.62132406  -0.0000000784  0.000011  0.000319  0.000058  0.000001
 24  -2123.62132410  -0.0000000351  0.000006  0.000239  0.000044  0.000001
 25  -2123.62132412  -0.0000000242  0.000007  0.000156  0.000026  0.000001
 26  -2123.62132413  -0.0000000132  0.000005  0.000159  0.000026  0.000001
 27  -2123.62132414  -0.0000000084  0.000004  0.000152  0.000024  0.000001
 28  -2123.62132415  -0.0000000035  0.000003  0.000112  0.000016  0.000000
                  ***Gradient check signals convergence***
              ***Rediagonalizing the Fockian in SOSCF/NRSCF***

               *****************************************************
               *                     SUCCESS                       *
               *           SCF CONVERGED AFTER  29 CYCLES          *
               *****************************************************


----------------
TOTAL SCF ENERGY
----------------

Total Energy       :        -2123.62132415 Eh          -57786.67405 eV

Components:
Nuclear Repulsion  :         6228.85672925 Eh          169495.80860 eV
Electronic Energy  :        -8352.47805340 Eh         -227282.48265 eV
One Electron Energy:       -15298.60621456 Eh         -416296.23919 eV
Two Electron Energy:         6946.12816116 Eh          189013.75654 eV

Virial components:
Potential Energy   :        -4245.70464167 Eh         -115531.49681 eV
Kinetic Energy     :         2122.08331751 Eh           57744.82276 eV
Virial Ratio       :            2.00072476


---------------
SCF CONVERGENCE
---------------

  Last Energy change         ...   -7.7489e-09  Tolerance :   1.0000e-08
  Last MAX-Density change    ...    7.9150e-06  Tolerance :   1.0000e-07
  Last RMS-Density change    ...    1.7547e-07  Tolerance :   5.0000e-09
  Last Orbital Gradient      ...    1.6014e-06  Tolerance :   1.0000e-05
  Last Orbital Rotation      ...    4.5153e-05  Tolerance :   1.0000e-05

             **** THE GBW FILE WAS UPDATED (/scratch/allen/tmpyp4_amber_gaff2/conf1/conf1/Conf43.orca.gbw) ****
             **** DENSITY /scratch/allen/tmpyp4_amber_gaff2/conf1/conf1/Conf43.orca.scfp WAS UPDATED ****
             **** ENERGY FILE WAS UPDATED (/scratch/allen/tmpyp4_amber_gaff2/conf1/conf1/Conf43.orca.en.tmp) ****
             **** THE GBW FILE WAS UPDATED (/scratch/allen/tmpyp4_amber_gaff2/conf1/conf1/Conf43.orca.gbw) ****
             **** DENSITY /scratch/allen/tmpyp4_amber_gaff2/conf1/conf1/Conf43.orca.scfp WAS UPDATED ****
----------------
ORBITAL ENERGIES
----------------

  NO   OCC          E(Eh)            E(eV) 
   0   2.0000     -15.662727      -426.2045 
   1   2.0000     -15.635990      -425.4769 
   2   2.0000     -15.630414      -425.3252 
   3   2.0000     -15.600161      -424.5020 
   4   2.0000     -15.523058      -422.4039 
   5   2.0000     -15.516416      -422.2231 
   6   2.0000     -15.450064      -420.4176 
   7   2.0000     -15.442529      -420.2126 
   8   2.0000     -11.317383      -307.9616 
   9   2.0000     -11.315470      -307.9096 
  10   2.0000     -11.313700      -307.8614 
  11   2.0000     -11.300562      -307.5039 
  12   2.0000     -11.297337      -307.4162 
  13   2.0000     -11.293743      -307.3184 
  14   2.0000     -11.289263      -307.1965 
  15   2.0000     -11.288921      -307.1871 
  16   2.0000     -11.286096      -307.1103 
  17   2.0000     -11.279099      -306.9199 
  18   2.0000     -11.265995      -306.5633 
  19   2.0000     -11.264477      -306.5220 
  20   2.0000     -11.262712      -306.4740 
  21   2.0000     -11.251341      -306.1646 
  22   2.0000     -11.250416      -306.1394 
  23   2.0000     -11.239521      -305.8429 
  24   2.0000     -11.235087      -305.7222 
  25   2.0000     -11.232570      -305.6538 
  26   2.0000     -11.231772      -305.6320 
  27   2.0000     -11.228538      -305.5441 
  28   2.0000     -11.228429      -305.5411 
  29   2.0000     -11.209457      -305.0248 
  30   2.0000     -11.206825      -304.9532 
  31   2.0000     -11.205898      -304.9280 
  32   2.0000     -11.204394      -304.8871 
  33   2.0000     -11.203167      -304.8537 
  34   2.0000     -11.191425      -304.5342 
  35   2.0000     -11.190766      -304.5162 
  36   2.0000     -11.183715      -304.3244 
  37   2.0000     -11.181611      -304.2671 
  38   2.0000     -11.180848      -304.2463 
  39   2.0000     -11.172502      -304.0192 
  40   2.0000     -11.169418      -303.9353 
  41   2.0000     -11.168342      -303.9060 
  42   2.0000     -11.164681      -303.8064 
  43   2.0000     -11.164225      -303.7940 
  44   2.0000     -11.162564      -303.7488 
  45   2.0000     -11.161033      -303.7072 
  46   2.0000     -11.154369      -303.5258 
  47   2.0000     -11.150657      -303.4248 
  48   2.0000     -11.150003      -303.4070 
  49   2.0000     -11.144703      -303.2628 
  50   2.0000     -11.136093      -303.0285 
  51   2.0000     -11.129611      -302.8521 
  52   2.0000      -1.345857       -36.6226 
  53   2.0000      -1.322944       -35.9991 
  54   2.0000      -1.318293       -35.8726 
  55   2.0000      -1.293001       -35.1843 
  56   2.0000      -1.222900       -33.2768 
  57   2.0000      -1.211436       -32.9648 
  58   2.0000      -1.168136       -31.7866 
  59   2.0000      -1.154281       -31.4096 
  60   2.0000      -1.131385       -30.7866 
  61   2.0000      -1.111523       -30.2461 
  62   2.0000      -1.107744       -30.1433 
  63   2.0000      -1.087485       -29.5920 
  64   2.0000      -1.068578       -29.0775 
  65   2.0000      -1.047007       -28.4905 
  66   2.0000      -1.042986       -28.3811 
  67   2.0000      -1.033325       -28.1182 
  68   2.0000      -1.020560       -27.7708 
  69   2.0000      -1.013246       -27.5718 
  70   2.0000      -1.009848       -27.4794 
  71   2.0000      -0.992915       -27.0186 
  72   2.0000      -0.986972       -26.8569 
  73   2.0000      -0.976296       -26.5664 
  74   2.0000      -0.973184       -26.4817 
  75   2.0000      -0.959731       -26.1156 
  76   2.0000      -0.950965       -25.8771 
  77   2.0000      -0.948155       -25.8006 
  78   2.0000      -0.936509       -25.4837 
  79   2.0000      -0.921594       -25.0778 
  80   2.0000      -0.899557       -24.4782 
  81   2.0000      -0.890334       -24.2272 
  82   2.0000      -0.874519       -23.7969 
  83   2.0000      -0.870656       -23.6918 
  84   2.0000      -0.865278       -23.5454 
  85   2.0000      -0.855710       -23.2850 
  86   2.0000      -0.845301       -23.0018 
  87   2.0000      -0.838313       -22.8116 
  88   2.0000      -0.822708       -22.3870 
  89   2.0000      -0.798643       -21.7322 
  90   2.0000      -0.794935       -21.6313 
  91   2.0000      -0.744526       -20.2596 
  92   2.0000      -0.737525       -20.0691 
  93   2.0000      -0.731336       -19.9007 
  94   2.0000      -0.722456       -19.6590 
  95   2.0000      -0.720883       -19.6162 
  96   2.0000      -0.713811       -19.4238 
  97   2.0000      -0.706701       -19.2303 
  98   2.0000      -0.702697       -19.1214 
  99   2.0000      -0.695673       -18.9302 
 100   2.0000      -0.693615       -18.8742 
 101   2.0000      -0.681926       -18.5562 
 102   2.0000      -0.678612       -18.4660 
 103   2.0000      -0.675849       -18.3908 
 104   2.0000      -0.673211       -18.3190 
 105   2.0000      -0.671757       -18.2794 
 106   2.0000      -0.664632       -18.0856 
 107   2.0000      -0.662563       -18.0293 
 108   2.0000      -0.655253       -17.8303 
 109   2.0000      -0.654220       -17.8022 
 110   2.0000      -0.650486       -17.7006 
 111   2.0000      -0.647284       -17.6135 
 112   2.0000      -0.642881       -17.4937 
 113   2.0000      -0.637848       -17.3567 
 114   2.0000      -0.633704       -17.2440 
 115   2.0000      -0.630661       -17.1611 
 116   2.0000      -0.625476       -17.0201 
 117   2.0000      -0.615624       -16.7520 
 118   2.0000      -0.613862       -16.7040 
 119   2.0000      -0.611241       -16.6327 
 120   2.0000      -0.610178       -16.6038 
 121   2.0000      -0.602005       -16.3814 
 122   2.0000      -0.600155       -16.3310 
 123   2.0000      -0.589218       -16.0334 
 124   2.0000      -0.586716       -15.9654 
 125   2.0000      -0.582593       -15.8532 
 126   2.0000      -0.579591       -15.7715 
 127   2.0000      -0.576601       -15.6901 
 128   2.0000      -0.563671       -15.3383 
 129   2.0000      -0.558496       -15.1975 
 130   2.0000      -0.554448       -15.0873 
 131   2.0000      -0.549079       -14.9412 
 132   2.0000      -0.541366       -14.7313 
 133   2.0000      -0.537777       -14.6336 
 134   2.0000      -0.535230       -14.5643 
 135   2.0000      -0.534326       -14.5398 
 136   2.0000      -0.525849       -14.3091 
 137   2.0000      -0.524378       -14.2691 
 138   2.0000      -0.516453       -14.0534 
 139   2.0000      -0.516324       -14.0499 
 140   2.0000      -0.511292       -13.9130 
 141   2.0000      -0.509839       -13.8734 
 142   2.0000      -0.508024       -13.8240 
 143   2.0000      -0.502427       -13.6717 
 144   2.0000      -0.501140       -13.6367 
 145   2.0000      -0.498016       -13.5517 
 146   2.0000      -0.494318       -13.4511 
 147   2.0000      -0.486872       -13.2485 
 148   2.0000      -0.485081       -13.1997 
 149   2.0000      -0.468689       -12.7537 
 150   2.0000      -0.463810       -12.6209 
 151   2.0000      -0.455944       -12.4069 
 152   2.0000      -0.448724       -12.2104 
 153   2.0000      -0.446417       -12.1476 
 154   2.0000      -0.444827       -12.1044 
 155   2.0000      -0.440897       -11.9974 
 156   2.0000      -0.432203       -11.7609 
 157   2.0000      -0.426495       -11.6055 
 158   2.0000      -0.399621       -10.8742 
 159   2.0000      -0.387195       -10.5361 
 160   2.0000      -0.378514       -10.2999 
 161   2.0000      -0.375999       -10.2314 
 162   2.0000      -0.370342       -10.0775 
 163   2.0000      -0.357886        -9.7386 
 164   2.0000      -0.354665        -9.6509 
 165   2.0000      -0.338020        -9.1980 
 166   2.0000      -0.336903        -9.1676 
 167   2.0000      -0.332751        -9.0546 
 168   2.0000      -0.327526        -8.9124 
 169   2.0000      -0.301327        -8.1995 
 170   2.0000      -0.299920        -8.1612 
 171   2.0000      -0.287332        -7.8187 
 172   2.0000      -0.284843        -7.7510 
 173   2.0000      -0.260185        -7.0800 
 174   2.0000      -0.245458        -6.6792 
 175   2.0000      -0.189390        -5.1536 
 176   2.0000      -0.179584        -4.8867 
 177   2.0000      -0.071833        -1.9547 
 178   2.0000      -0.056895        -1.5482 
 179   0.0000       0.029235         0.7955 
 180   0.0000       0.068263         1.8575 
 181   0.0000       0.092128         2.5069 
 182   0.0000       0.104574         2.8456 
 183   0.0000       0.117611         3.2004 
 184   0.0000       0.135944         3.6992 
 185   0.0000       0.140206         3.8152 
 186   0.0000       0.149834         4.0772 
 187   0.0000       0.161824         4.4035 
 188   0.0000       0.162507         4.4220 
 189   0.0000       0.164095         4.4652 
 190   0.0000       0.166576         4.5328 
 191   0.0000       0.181771         4.9462 
 192   0.0000       0.189406         5.1540 
 193   0.0000       0.192797         5.2463 
 194   0.0000       0.203894         5.5482 
 195   0.0000       0.206509         5.6194 
 196   0.0000       0.207228         5.6390 
 197   0.0000       0.209554         5.7022 
 198   0.0000       0.221812         6.0358 
 199   0.0000       0.224860         6.1187 
 200   0.0000       0.225838         6.1454 
 201   0.0000       0.238275         6.4838 
 202   0.0000       0.240649         6.5484 
 203   0.0000       0.242525         6.5994 
 204   0.0000       0.251820         6.8524 
 205   0.0000       0.254496         6.9252 
 206   0.0000       0.256281         6.9738 
 207   0.0000       0.258238         7.0270 
 208   0.0000       0.261644         7.1197 
 209   0.0000       0.262597         7.1456 
 210   0.0000       0.265276         7.2185 
 211   0.0000       0.270143         7.3510 
 212   0.0000       0.272030         7.4023 
 213   0.0000       0.272856         7.4248 
 214   0.0000       0.275387         7.4937 
 215   0.0000       0.278293         7.5727 
 216   0.0000       0.279149         7.5960 
 217   0.0000       0.281944         7.6721 
 218   0.0000       0.284383         7.7384 
 219   0.0000       0.288878         7.8608 
 220   0.0000       0.290171         7.8960 
 221   0.0000       0.293300         7.9811 
 222   0.0000       0.294333         8.0092 
 223   0.0000       0.295920         8.0524 
 224   0.0000       0.297605         8.0982 
 225   0.0000       0.298857         8.1323 
 226   0.0000       0.305743         8.3197 
 227   0.0000       0.309095         8.4109 
 228   0.0000       0.309855         8.4316 
 229   0.0000       0.319885         8.7045 
 230   0.0000       0.324120         8.8197 
 231   0.0000       0.324978         8.8431 
 232   0.0000       0.326855         8.8942 
 233   0.0000       0.331280         9.0146 
 234   0.0000       0.344234         9.3671 
 235   0.0000       0.347668         9.4605 
 236   0.0000       0.357716         9.7339 
 237   0.0000       0.381805        10.3894 
 238   0.0000       0.394867        10.7449 
 239   0.0000       0.398009        10.8304 
 240   0.0000       0.401944        10.9374 
 241   0.0000       0.415171        11.2974 
 242   0.0000       0.418911        11.3991 
 243   0.0000       0.422320        11.4919 
 244   0.0000       0.429476        11.6866 
 245   0.0000       0.431052        11.7295 
 246   0.0000       0.434254        11.8166 
 247   0.0000       0.440317        11.9816 
 248   0.0000       0.442222        12.0335 
 249   0.0000       0.444094        12.0844 
 250   0.0000       0.451358        12.2821 
 251   0.0000       0.458840        12.4857 
 252   0.0000       0.461588        12.5604 
 253   0.0000       0.464074        12.6281 
 254   0.0000       0.470831        12.8120 
 255   0.0000       0.473366        12.8809 
 256   0.0000       0.482179        13.1207 
 257   0.0000       0.483015        13.1435 
 258   0.0000       0.488816        13.3013 
 259   0.0000       0.498868        13.5749 
 260   0.0000       0.502259        13.6672 
 261   0.0000       0.505359        13.7515 
 262   0.0000       0.506728        13.7888 
 263   0.0000       0.507101        13.7989 
 264   0.0000       0.513881        13.9834 
 265   0.0000       0.519479        14.1357 
 266   0.0000       0.520135        14.1536 
 267   0.0000       0.524615        14.2755 
 268   0.0000       0.534389        14.5415 
 269   0.0000       0.537231        14.6188 
 270   0.0000       0.540752        14.7146 
 271   0.0000       0.546453        14.8697 
 272   0.0000       0.550483        14.9794 
 273   0.0000       0.555984        15.1291 
 274   0.0000       0.559767        15.2320 
 275   0.0000       0.564396        15.3580 
 276   0.0000       0.570733        15.5304 
 277   0.0000       0.574498        15.6329 
 278   0.0000       0.579774        15.7765 
 279   0.0000       0.585403        15.9296 
 280   0.0000       0.587420        15.9845 
 281   0.0000       0.591874        16.1057 
 282   0.0000       0.593411        16.1475 
 283   0.0000       0.596888        16.2422 
 284   0.0000       0.598851        16.2956 
 285   0.0000       0.600061        16.3285 
 286   0.0000       0.607271        16.5247 
 287   0.0000       0.612853        16.6766 
 288   0.0000       0.614686        16.7265 
 289   0.0000       0.616193        16.7675 
 290   0.0000       0.627105        17.0644 
 291   0.0000       0.630670        17.1614 
 292   0.0000       0.633223        17.2309 
 293   0.0000       0.636155        17.3106 
 294   0.0000       0.645118        17.5546 
 295   0.0000       0.649845        17.6832 
 296   0.0000       0.654332        17.8053 
 297   0.0000       0.657450        17.8901 
 298   0.0000       0.666415        18.1341 
 299   0.0000       0.666477        18.1358 
 300   0.0000       0.669765        18.2252 
 301   0.0000       0.670678        18.2501 
 302   0.0000       0.678819        18.4716 
 303   0.0000       0.681511        18.5449 
 304   0.0000       0.682476        18.5711 
 305   0.0000       0.685969        18.6662 
 306   0.0000       0.690384        18.7863 
 307   0.0000       0.692955        18.8563 
 308   0.0000       0.696436        18.9510 
 309   0.0000       0.698003        18.9936 
 310   0.0000       0.700152        19.0521 
 311   0.0000       0.703988        19.1565 
 312   0.0000       0.705387        19.1946 
 313   0.0000       0.710638        19.3374 
 314   0.0000       0.711444        19.3594 
 315   0.0000       0.714426        19.4405 
 316   0.0000       0.717931        19.5359 
 317   0.0000       0.718041        19.5389 
 318   0.0000       0.719145        19.5689 
 319   0.0000       0.725555        19.7434 
 320   0.0000       0.726914        19.7803 
 321   0.0000       0.728352        19.8195 
 322   0.0000       0.732966        19.9450 
 323   0.0000       0.736183        20.0326 
 324   0.0000       0.738510        20.0959 
 325   0.0000       0.740212        20.1422 
 326   0.0000       0.741548        20.1785 
 327   0.0000       0.743197        20.2234 
 328   0.0000       0.748948        20.3799 
 329   0.0000       0.749573        20.3969 
 330   0.0000       0.754528        20.5318 
 331   0.0000       0.756696        20.5908 
 332   0.0000       0.759206        20.6591 
 333   0.0000       0.761668        20.7260 
 334   0.0000       0.768367        20.9083 
 335   0.0000       0.772325        21.0160 
 336   0.0000       0.776278        21.1236 
 337   0.0000       0.779944        21.2234 
 338   0.0000       0.784811        21.3558 
 339   0.0000       0.789162        21.4742 
 340   0.0000       0.790776        21.5181 
 341   0.0000       0.795103        21.6359 
 342   0.0000       0.797950        21.7133 
 343   0.0000       0.802592        21.8396 
 344   0.0000       0.804164        21.8824 
 345   0.0000       0.806310        21.9408 
 346   0.0000       0.809070        22.0159 
 347   0.0000       0.811009        22.0687 
 348   0.0000       0.813829        22.1454 
 349   0.0000       0.818632        22.2761 
 350   0.0000       0.820901        22.3379 
 351   0.0000       0.824091        22.4247 
 352   0.0000       0.825398        22.4602 
 353   0.0000       0.826003        22.4767 
 354   0.0000       0.829037        22.5592 
 355   0.0000       0.832862        22.6633 
 356   0.0000       0.833794        22.6887 
 357   0.0000       0.835873        22.7453 
 358   0.0000       0.836709        22.7680 
 359   0.0000       0.838275        22.8106 
 360   0.0000       0.839582        22.8462 
 361   0.0000       0.843009        22.9394 
 362   0.0000       0.844601        22.9828 
 363   0.0000       0.845727        23.0134 
 364   0.0000       0.845877        23.0175 
 365   0.0000       0.852463        23.1967 
 366   0.0000       0.854408        23.2496 
 367   0.0000       0.859981        23.4013 
 368   0.0000       0.860774        23.4229 
 369   0.0000       0.863427        23.4950 
 370   0.0000       0.865043        23.5390 
 371   0.0000       0.871447        23.7133 
 372   0.0000       0.875021        23.8105 
 373   0.0000       0.877945        23.8901 
 374   0.0000       0.882337        24.0096 
 375   0.0000       0.882603        24.0168 
 376   0.0000       0.884335        24.0640 
 377   0.0000       0.888047        24.1650 
 378   0.0000       0.891006        24.2455 
 379   0.0000       0.895562        24.3695 
 380   0.0000       0.896653        24.3992 
 381   0.0000       0.898631        24.4530 
 382   0.0000       0.901596        24.5337 
 383   0.0000       0.902347        24.5541 
 384   0.0000       0.903275        24.5794 
 385   0.0000       0.905007        24.6265 
 386   0.0000       0.907561        24.6960 
 387   0.0000       0.909177        24.7400 
 388   0.0000       0.910854        24.7856 
 389   0.0000       0.916010        24.9259 
 390   0.0000       0.917573        24.9684 
 391   0.0000       0.922776        25.1100 
 392   0.0000       0.924210        25.1490 
 393   0.0000       0.924675        25.1617 
 394   0.0000       0.927185        25.2300 
 395   0.0000       0.931518        25.3479 
 396   0.0000       0.933119        25.3915 
 397   0.0000       0.934186        25.4205 
 398   0.0000       0.940425        25.5903 
 399   0.0000       0.940932        25.6041 
 400   0.0000       0.944531        25.7020 
 401   0.0000       0.946237        25.7484 
 402   0.0000       0.952659        25.9232 
 403   0.0000       0.955012        25.9872 
 404   0.0000       0.958608        26.0851 
 405   0.0000       0.959799        26.1175 
 406   0.0000       0.961215        26.1560 
 407   0.0000       0.965697        26.2779 
 408   0.0000       0.968727        26.3604 
 409   0.0000       0.974583        26.5198 
 410   0.0000       0.978836        26.6355 
 411   0.0000       0.985154        26.8074 
 412   0.0000       0.986279        26.8380 
 413   0.0000       0.989984        26.9388 
 414   0.0000       0.992153        26.9979 
 415   0.0000       0.995138        27.0791 
 416   0.0000       1.002591        27.2819 
 417   0.0000       1.007029        27.4027 
 418   0.0000       1.010745        27.5038 
 419   0.0000       1.017473        27.6868 
 420   0.0000       1.026102        27.9217 
 421   0.0000       1.028896        27.9977 
 422   0.0000       1.031379        28.0652 
 423   0.0000       1.041140        28.3309 
 424   0.0000       1.045271        28.4433 
 425   0.0000       1.047746        28.5106 
 426   0.0000       1.058105        28.7925 
 427   0.0000       1.063669        28.9439 
 428   0.0000       1.066210        29.0130 
 429   0.0000       1.075542        29.2670 
 430   0.0000       1.078009        29.3341 
 431   0.0000       1.082955        29.4687 
 432   0.0000       1.083943        29.4956 
 433   0.0000       1.091166        29.6921 
 434   0.0000       1.098875        29.9019 
 435   0.0000       1.102244        29.9936 
 436   0.0000       1.104856        30.0647 
 437   0.0000       1.112292        30.2670 
 438   0.0000       1.112879        30.2830 
 439   0.0000       1.117381        30.4055 
 440   0.0000       1.119787        30.4710 
 441   0.0000       1.123244        30.5650 
 442   0.0000       1.125505        30.6265 
 443   0.0000       1.129070        30.7236 
 444   0.0000       1.133361        30.8403 
 445   0.0000       1.135286        30.8927 
 446   0.0000       1.138886        30.9907 
 447   0.0000       1.141744        31.0684 
 448   0.0000       1.144017        31.1303 
 449   0.0000       1.148267        31.2459 
 450   0.0000       1.151256        31.3273 
 451   0.0000       1.152089        31.3499 
 452   0.0000       1.157460        31.4961 
 453   0.0000       1.159476        31.5510 
 454   0.0000       1.164665        31.6921 
 455   0.0000       1.169963        31.8363 
 456   0.0000       1.173876        31.9428 
 457   0.0000       1.175892        31.9976 
 458   0.0000       1.177303        32.0360 
 459   0.0000       1.186095        32.2753 
 460   0.0000       1.188287        32.3349 
 461   0.0000       1.195992        32.5446 
 462   0.0000       1.202638        32.7254 
 463   0.0000       1.204858        32.7858 
 464   0.0000       1.207753        32.8646 
 465   0.0000       1.210280        32.9334 
 466   0.0000       1.214370        33.0447 
 467   0.0000       1.218296        33.1515 
 468   0.0000       1.222471        33.2651 
 469   0.0000       1.225808        33.3559 
 470   0.0000       1.230031        33.4708 
 471   0.0000       1.232093        33.5270 
 472   0.0000       1.234743        33.5991 
 473   0.0000       1.236649        33.6509 
 474   0.0000       1.242811        33.8186 
 475   0.0000       1.246253        33.9123 
 476   0.0000       1.249202        33.9925 
 477   0.0000       1.250661        34.0322 
 478   0.0000       1.251339        34.0507 
 479   0.0000       1.254297        34.1311 
 480   0.0000       1.260276        34.2939 
 481   0.0000       1.264090        34.3976 
 482   0.0000       1.265683        34.4410 
 483   0.0000       1.269448        34.5434 
 484   0.0000       1.272773        34.6339 
 485   0.0000       1.277455        34.7613 
 486   0.0000       1.279630        34.8205 
 487   0.0000       1.282077        34.8871 
 488   0.0000       1.287256        35.0280 
 489   0.0000       1.290369        35.1127 
 490   0.0000       1.292560        35.1723 
 491   0.0000       1.297759        35.3138 
 492   0.0000       1.299361        35.3574 
 493   0.0000       1.308986        35.6193 
 494   0.0000       1.311081        35.6763 
 495   0.0000       1.313401        35.7394 
 496   0.0000       1.319998        35.9190 
 497   0.0000       1.323721        36.0203 
 498   0.0000       1.326726        36.1021 
 499   0.0000       1.329416        36.1752 
 500   0.0000       1.332243        36.2522 
 501   0.0000       1.337287        36.3894 
 502   0.0000       1.338968        36.4352 
 503   0.0000       1.341986        36.5173 
 504   0.0000       1.346543        36.6413 
 505   0.0000       1.351025        36.7633 
 506   0.0000       1.352948        36.8156 
 507   0.0000       1.358260        36.9601 
[...]
      pz      :     0.022056  p :     0.079691
      px      :     0.043481
      py      :     0.014153
 77 H s       :     0.886451  s :     0.886451
      pz      :     0.047830  p :     0.079121
      px      :     0.015018
      py      :     0.016273
 78 H s       :     0.886818  s :     0.886818
      pz      :     0.025807  p :     0.079076
      px      :     0.020498
      py      :     0.032772
 79 H s       :     0.910014  s :     0.910014
      pz      :     0.021939  p :     0.086484
      px      :     0.021705
      py      :     0.042840
 80 H s       :     0.867090  s :     0.867090
      pz      :     0.039171  p :     0.084521
      px      :     0.030126
      py      :     0.015223
 81 H s       :     0.887064  s :     0.887064
      pz      :     0.037787  p :     0.084030
      px      :     0.016173
      py      :     0.030069
 82 H s       :     0.915582  s :     0.915582
      pz      :     0.022007  p :     0.086781
      px      :     0.031535
      py      :     0.033239
 83 H s       :     0.873066  s :     0.873066
      pz      :     0.039274  p :     0.084049
      px      :     0.015265
      py      :     0.029510
 84 H s       :     0.886817  s :     0.886817
      pz      :     0.035783  p :     0.083557
      px      :     0.031709
      py      :     0.016065
 85 H s       :     0.893156  s :     0.893156
      pz      :     0.022495  p :     0.079772
      px      :     0.014077
      py      :     0.043200
 86 H s       :     0.890882  s :     0.890882
      pz      :     0.024729  p :     0.078843
      px      :     0.032987
      py      :     0.021127
 87 H s       :     0.890025  s :     0.890025
      pz      :     0.047990  p :     0.078723
      px      :     0.015596
      py      :     0.015137
 88 H s       :     0.911808  s :     0.911808
      pz      :     0.021772  p :     0.086982
      px      :     0.042784
      py      :     0.022426
 89 H s       :     0.871954  s :     0.871954
      pz      :     0.037914  p :     0.083835
      px      :     0.030468
      py      :     0.015452


                      *****************************
                      * MAYER POPULATION ANALYSIS *
                      *****************************

  NA   - Mulliken gross atomic population
  ZA   - Total nuclear charge
  QA   - Mulliken gross atomic charge
  VA   - Mayer's total valence
  BVA  - Mayer's bonded valence
  FA   - Mayer's free valence

  ATOM       NA         ZA         QA         VA         BVA        FA
  0 C      5.7926     6.0000     0.2074     3.8375     3.8375    -0.0000
  1 N      7.4520     7.0000    -0.4520     3.3379     3.3379    -0.0000
  2 C      6.0626     6.0000    -0.0626     3.9204     3.9204    -0.0000
  3 N      7.3360     7.0000    -0.3360     3.4547     3.4547    -0.0000
  4 C      6.0504     6.0000    -0.0504     3.9971     3.9971     0.0000
  5 N      7.5629     7.0000    -0.5629     3.0916     3.0916    -0.0000
  6 C      6.0986     6.0000    -0.0986     4.0044     4.0044     0.0000
  7 N      7.3394     7.0000    -0.3394     3.4369     3.4369    -0.0000
  8 C      5.7950     6.0000     0.2050     3.8370     3.8370    -0.0000
  9 N      7.5626     7.0000    -0.5626     3.0797     3.0797     0.0000
 10 C      5.8821     6.0000     0.1179     3.9053     3.9053    -0.0000
 11 N      7.4380     7.0000    -0.4380     3.3804     3.3804    -0.0000
 12 C      6.0826     6.0000    -0.0826     3.9143     3.9143    -0.0000
 13 N      7.4335     7.0000    -0.4335     3.4095     3.4095    -0.0000
 14 C      5.7583     6.0000     0.2417     3.7800     3.7800    -0.0000
 15 N      7.4410     7.0000    -0.4410     3.3717     3.3717    -0.0000
 16 C      5.7717     6.0000     0.2283     3.7839     3.7839    -0.0000
 17 C      6.1072     6.0000    -0.1072     4.0089     4.0089    -0.0000
 18 C      6.2086     6.0000    -0.2086     3.7715     3.7715    -0.0000
 19 C      5.7651     6.0000     0.2349     3.8590     3.8590    -0.0000
 20 C      5.7884     6.0000     0.2116     3.8279     3.8279    -0.0000
 21 C      6.0958     6.0000    -0.0958     3.9014     3.9014    -0.0000
 22 C      6.0901     6.0000    -0.0901     3.9829     3.9829     0.0000
 23 C      6.0427     6.0000    -0.0427     3.9920     3.9920    -0.0000
 24 C      5.8022     6.0000     0.1978     3.8221     3.8221    -0.0000
 25 C      5.8857     6.0000     0.1143     3.8908     3.8908     0.0000
 26 C      6.0744     6.0000    -0.0744     3.9094     3.9094    -0.0000
 27 C      5.7854     6.0000     0.2146     3.8704     3.8704    -0.0000
 28 C      6.0585     6.0000    -0.0585     3.9884     3.9884    -0.0000
 29 C      6.1811     6.0000    -0.1811     3.7421     3.7421     0.0000
 30 C      5.7577     6.0000     0.2423     3.7979     3.7979    -0.0000
 31 C      5.7770     6.0000     0.2230     3.8213     3.8213     0.0000
 32 C      6.0631     6.0000    -0.0631     3.9212     3.9212    -0.0000
 33 C      6.0684     6.0000    -0.0684     3.9776     3.9776     0.0000
 34 C      6.0506     6.0000    -0.0506     3.9869     3.9869    -0.0000
 35 C      5.7810     6.0000     0.2190     3.8202     3.8202     0.0000
 36 C      5.8895     6.0000     0.1105     3.8812     3.8812     0.0000
 37 C      6.0653     6.0000    -0.0653     3.9175     3.9175    -0.0000
 38 C      5.7666     6.0000     0.2334     3.7997     3.7997     0.0000
 39 C      6.0591     6.0000    -0.0591     3.9862     3.9862     0.0000
 40 C      6.1842     6.0000    -0.1842     3.7327     3.7327     0.0000
 41 C      5.7758     6.0000     0.2242     3.8845     3.8845     0.0000
 42 C      5.8007     6.0000     0.1993     3.8265     3.8265    -0.0000
 43 C      6.0727     6.0000    -0.0727     3.9011     3.9011    -0.0000
 44 C      6.0896     6.0000    -0.0896     3.9849     3.9849     0.0000
 45 C      6.0582     6.0000    -0.0582     3.9926     3.9926     0.0000
 46 C      5.7914     6.0000     0.2086     3.8276     3.8276    -0.0000
 47 C      5.8845     6.0000     0.1155     3.8933     3.8933     0.0000
 48 C      6.0696     6.0000    -0.0696     3.9077     3.9077    -0.0000
 49 C      5.7657     6.0000     0.2343     3.8902     3.8902     0.0000
 50 C      6.0488     6.0000    -0.0488     3.9905     3.9905    -0.0000
 51 C      6.1903     6.0000    -0.1903     3.7359     3.7359     0.0000
 52 H      0.9564     1.0000     0.0436     0.9858     0.9858    -0.0000
 53 H      1.0156     1.0000    -0.0156     0.9983     0.9983    -0.0000
 54 H      0.9476     1.0000     0.0524     1.0116     1.0116     0.0000
 55 H      0.9571     1.0000     0.0429     0.9867     0.9867    -0.0000
 56 H      0.9482     1.0000     0.0518     0.9701     0.9701     0.0000
 57 H      0.9495     1.0000     0.0505     0.9832     0.9832    -0.0000
 58 H      0.9504     1.0000     0.0496     0.9849     0.9849     0.0000
 59 H      1.0014     1.0000    -0.0014     1.0025     1.0025     0.0000
 60 H      0.9529     1.0000     0.0471     1.0108     1.0108    -0.0000
 61 H      0.8283     1.0000     0.1717     1.0421     1.0421    -0.0000
 62 H      0.8255     1.0000     0.1745     1.0435     1.0435    -0.0000
 63 H      0.9442     1.0000     0.0558     0.9853     0.9853    -0.0000
 64 H      1.0093     1.0000    -0.0093     0.9984     0.9984    -0.0000
 65 H      0.9525     1.0000     0.0475     1.0093     1.0093     0.0000
 66 H      0.9434     1.0000     0.0566     0.9853     0.9853     0.0000
 67 H      0.9375     1.0000     0.0625     0.9720     0.9720     0.0000
 68 H      0.9423     1.0000     0.0577     0.9868     0.9868     0.0000
 69 H      0.9427     1.0000     0.0573     0.9829     0.9829     0.0000
 70 H      1.0275     1.0000    -0.0275     0.9935     0.9935    -0.0000
 71 H      0.9542     1.0000     0.0458     1.0062     1.0062    -0.0000
 72 H      0.9343     1.0000     0.0657     0.9841     0.9841     0.0000
 73 H      1.0102     1.0000    -0.0102     1.0001     1.0001    -0.0000
 74 H      0.9448     1.0000     0.0552     1.0100     1.0100    -0.0000
 75 H      0.9350     1.0000     0.0650     0.9845     0.9845     0.0000
 76 H      0.9300     1.0000     0.0700     0.9720     0.9720    -0.0000
 77 H      0.9357     1.0000     0.0643     0.9853     0.9853    -0.0000
 78 H      0.9365     1.0000     0.0635     0.9851     0.9851     0.0000
 79 H      1.0155     1.0000    -0.0155     0.9982     0.9982     0.0000
 80 H      0.9440     1.0000     0.0560     1.0072     1.0072     0.0000
 81 H      0.9462     1.0000     0.0538     0.9856     0.9856     0.0000
 82 H      1.0242     1.0000    -0.0242     0.9937     0.9937    -0.0000
 83 H      0.9576     1.0000     0.0424     1.0086     1.0086    -0.0000
 84 H      0.9462     1.0000     0.0538     0.9853     0.9853     0.0000
 85 H      0.9398     1.0000     0.0602     0.9716     0.9716    -0.0000
 86 H      0.9442     1.0000     0.0558     0.9840     0.9840     0.0000
 87 H      0.9431     1.0000     0.0569     0.9856     0.9856     0.0000
 88 H      1.0169     1.0000    -0.0169     0.9959     0.9959     0.0000
 89 H      0.9548     1.0000     0.0452     1.0073     1.0073     0.0000

  Mayer bond orders larger than 0.100000
B(  0-C ,  1-N ) :   1.0978 B(  0-C , 17-C ) :   1.6832 B(  0-C , 52-H ) :   0.9685 
B(  1-N ,  8-C ) :   1.0910 B(  1-N , 10-C ) :   0.9739 B(  2-C , 12-C ) :   1.5187 
B(  2-C , 16-C ) :   1.3455 B(  2-C , 53-H ) :   0.9764 B(  3-N , 14-C ) :   1.2149 
B(  3-N , 16-C ) :   1.1925 B(  3-N , 61-H ) :   0.8990 B(  4-C ,  6-C ) :   1.2235 
B(  4-C , 17-C ) :   1.2254 B(  4-C , 18-C ) :   1.3892 B(  5-N , 19-C ) :   1.4433 
B(  5-N , 27-C ) :   1.3863 B(  6-C ,  8-C ) :   1.6890 B(  6-C , 54-H ) :   0.9646 
B(  7-N , 30-C ) :   1.1953 B(  7-N , 38-C ) :   1.1945 B(  7-N , 62-H ) :   0.8973 
B(  8-C , 55-H ) :   0.9686 B(  9-N , 41-C ) :   1.3988 B(  9-N , 49-C ) :   1.4222 
B( 10-C , 56-H ) :   0.9767 B( 10-C , 57-H ) :   0.9821 B( 10-C , 58-H ) :   0.9841 
B( 11-N , 20-C ) :   1.1290 B( 11-N , 24-C ) :   1.1124 B( 11-N , 25-C ) :   0.9594 
B( 12-C , 14-C ) :   1.3468 B( 12-C , 59-H ) :   0.9744 B( 13-N , 31-C ) :   1.1469 
B( 13-N , 35-C ) :   1.1430 B( 13-N , 36-C ) :   0.9484 B( 14-C , 18-C ) :   1.1495 
B( 15-N , 42-C ) :   1.1102 B( 15-N , 46-C ) :   1.1203 B( 15-N , 47-C ) :   0.9617 
B( 16-C , 51-C ) :   1.1800 B( 17-C , 60-H ) :   0.9664 B( 18-C , 19-C ) :   1.1579 
B( 19-C , 21-C ) :   1.2333 B( 20-C , 28-C ) :   1.6265 B( 20-C , 63-H ) :   0.9703 
B( 21-C , 26-C ) :   1.6231 B( 21-C , 64-H ) :   0.9699 B( 22-C , 23-C ) :   1.2881 
B( 22-C , 28-C ) :   1.2677 B( 22-C , 29-C ) :   1.2239 B( 23-C , 24-C ) :   1.6190 
B( 23-C , 65-H ) :   0.9705 B( 24-C , 66-H ) :   0.9694 B( 25-C , 67-H ) :   0.9761 
B( 25-C , 68-H ) :   0.9828 B( 25-C , 69-H ) :   0.9822 B( 26-C , 27-C ) :   1.2298 
B( 26-C , 70-H ) :   0.9718 B( 27-C , 29-C ) :   1.2209 B( 28-C , 71-H ) :   0.9718 
B( 29-C , 30-C ) :   1.2303 B( 30-C , 32-C ) :   1.2933 B( 31-C , 39-C ) :   1.6044 
B( 31-C , 72-H ) :   0.9687 B( 32-C , 37-C ) :   1.5653 B( 32-C , 73-H ) :   0.9783 
B( 33-C , 34-C ) :   1.2952 B( 33-C , 39-C ) :   1.2900 B( 33-C , 40-C ) :   1.2034 
B( 34-C , 35-C ) :   1.6014 B( 34-C , 74-H ) :   0.9700 B( 35-C , 75-H ) :   0.9687 
B( 36-C , 76-H ) :   0.9766 B( 36-C , 77-H ) :   0.9818 B( 36-C , 78-H ) :   0.9826 
B( 37-C , 38-C ) :   1.2969 B( 37-C , 79-H ) :   0.9770 B( 38-C , 40-C ) :   1.2228 
B( 39-C , 80-H ) :   0.9709 B( 40-C , 41-C ) :   1.2395 B( 41-C , 43-C ) :   1.1950 
B( 42-C , 50-C ) :   1.6334 B( 42-C , 81-H ) :   0.9697 B( 43-C , 48-C ) :   1.6572 
B( 43-C , 82-H ) :   0.9727 B( 44-C , 45-C ) :   1.2659 B( 44-C , 50-C ) :   1.2703 
B( 44-C , 51-C ) :   1.2588 B( 45-C , 46-C ) :   1.6343 B( 45-C , 83-H ) :   0.9716 
B( 46-C , 84-H ) :   0.9701 B( 47-C , 85-H ) :   0.9761 B( 47-C , 86-H ) :   0.9829 
B( 47-C , 87-H ) :   0.9825 B( 48-C , 49-C ) :   1.1974 B( 48-C , 88-H ) :   0.9745 
B( 49-C , 51-C ) :   1.2342 B( 50-C , 89-H ) :   0.9711 

-------
TIMINGS
-------

Total SCF time: 0 days 0 hours 22 min 58 sec 

Total time                  ....    1378.559 sec
Sum of individual times     ....    1374.785 sec  ( 99.7%)

Fock matrix formation       ....    1353.953 sec  ( 98.2%)
Diagonalization             ....       6.533 sec  (  0.5%)
Density matrix formation    ....       0.403 sec  (  0.0%)
Population analysis         ....       0.423 sec  (  0.0%)
Initial guess               ....       1.931 sec  (  0.1%)
Orbital Transformation      ....       0.000 sec  (  0.0%)
Orbital Orthonormalization  ....       0.000 sec  (  0.0%)
DIIS solution               ....       2.891 sec  (  0.2%)
SOSCF solution              ....       7.644 sec  (  0.6%)

Maximum memory used throughout the entire SCF-calculation: 302.6 MB


           ************************************************************
           *        Program running with 16 parallel MPI-processes    *
           *              working on a common directory               *
           ************************************************************

------------------------------------------------------------------------------
                                ORCA  MP2 
------------------------------------------------------------------------------

Freezing NCore=104 chemical core electrons

----------
MP2 ENERGY (disk based algorithm)
----------

Dimension of the basis                    ...  918
Memory devoted to MP2                     ... 2000 MB   
Data format for buffers                   ... DOUBLE
Compression type for matrix containers    ... UNCOMPRESSED

-------------------------------
PARTIAL EXCHANGE TRANSFORMATION
-------------------------------

Transformation type                        ... one-operator
Generation of integrals (i,mue|j,nue)      ... ON
Generation of integrals (mue,kappa|nue,tau)... OFF
Generation of integrals (i,mue|a,nue)      ... OFF
Dimension of the basis                     ...  918
Number of internal MOs                     ...  127 (  52- 178)
Pair cutoff                                ... 2.500e-12 Eh
Number of AO pairs in the trafo            ... 421821
Total Number of distinct AO pairs          ... 421821
Memory devoted for trafo                   ... 2000.0 MB 
Max. Number of MO pairs treated together   ...  311      
Number Format for Storage                  ... Double (8 Byte)
Integral package used                      ... LIBINT

Starting integral evaluation:
    ... done with AO integral generation
Closing buffer AOK     (38.24 GB; CompressionRatio= 1.33)
Collecting buffer AOK 
Number of MO pairs included in the trafo   ... 8128
------------------------
SORTING OF (i,mue|j,nue)
------------------------

IBATCH = 1 of  2
IBATCH = 2 of  2
Closing buffer KAO     (51.03 GB; CompressionRatio= 1.00)
Collecting buffer KAO 
N(AO-Batches) Done                         ...  85763036 
N(AO-Batches) Skipped                      ...  82368180 
N(IJ)-pairs Skipped                        ...         0 
TOTAL TIME for half transformation         ...  2510.713 sec
AO-integral generation                     ...   179.433 sec
Half transformation                        ...   317.022 sec
K-integral sorting                         ...  1878.389 sec
Process 10:   Internal MO 132
Process  1:   Internal MO  60
Process 13:   Internal MO 156
Process  4:   Internal MO  84
Process  7:   Internal MO 108

Finished integral transformation - now doing MP2 part

OPERATOR COMBINATION   0   0: ij=( 52..178, 52..178)
Process  0:   Internal MO  54
Process  0:   Internal MO  57
Process  8:   Internal MO 117
Process  3:   Internal MO  78
Process  1:   Internal MO  63
Process  6:   Internal MO 102
Process  5:   Internal MO  93
Process  4:   Internal MO  87
Process 14:   Internal MO 165
Process  1:   Internal MO  66
Process 11:   Internal MO 141
Process  2:   Internal MO  69
Process  3:   Internal MO  81
Process  9:   Internal MO 126
Process 12:   Internal MO 150
Process  2:   Internal MO  72
Process  7:   Internal MO 111
Process  8:   Internal MO 120
Process 10:   Internal MO 135
Process 15:   Internal MO 174
Process  5:   Internal MO  96
Process  2:   Internal MO  75
Process  4:   Internal MO  90
Process  6:   Internal MO 105
Process  7:   Internal MO 114
Process  5:   Internal MO  99
Process 13:   Internal MO 159
Process  8:   Internal MO 123
Process 14:   Internal MO 168
Process 11:   Internal MO 144
Process  9:   Internal MO 129
Process 10:   Internal MO 138
Process 12:   Internal MO 153
Process 15:   Internal MO 177
Process 11:   Internal MO 147
Process 13:   Internal MO 162
Process 14:   Internal MO 171
-----------------------------------------------
 MP2 CORRELATION ENERGY   :     -7.285259992 Eh
-----------------------------------------------


-------
TIMINGS
-------
Total time                : 2800.841 sec
Integral trafo            : 2512.672 sec ( 89.7%)
K(i,j)                    :    5.169 sec (  0.2%)
T(i,j)                    :    0.070 sec (  0.0%)

---------------------------------------
MP2 TOTAL ENERGY:    -2130.906584145 Eh
---------------------------------------

Maximum memory used throughout the entire MP2-calculation: 2275.2 MB

-------------------------   --------------------
FINAL SINGLE POINT ENERGY     -2130.906584144965
-------------------------   --------------------


                            ***************************************
                            *     ORCA property calculations      *
                            ***************************************


  WARNING: The energy has been calculated at the MP2 level but the densities
           used in the property calculations are still SCF densities
           MP2 response densities have not been calculated 
           use %mp2 Density relaxed end
           or  %mp2 Density unrelaxed end

                                    ---------------------
                                    Active property flags
                                    ---------------------
   (+) Dipole Moment


------------------------------------------------------------------------------
                       ORCA ELECTRIC PROPERTIES CALCULATION
------------------------------------------------------------------------------

Dipole Moment Calculation                       ... on
Quadrupole Moment Calculation                   ... off
Polarizability Calculation                      ... off
GBWName                                         ... /scratch/allen/tmpyp4_amber_gaff2/conf1/conf1/Conf43.orca.gbw
Electron density                                ... /scratch/allen/tmpyp4_amber_gaff2/conf1/conf1/Conf43.orca.scfp
The origin for moment calculation is the CENTER OF MASS  = (-0.000157, -0.004292  0.003657)

-------------
DIPOLE MOMENT
-------------
                                X             Y             Z
Electronic contribution:      1.71433      -2.97967      -0.12450
Nuclear contribution   :     -0.05137       0.15124       0.15155
                        -----------------------------------------
Total Dipole Moment    :      1.66296      -2.82843       0.02705
                        -----------------------------------------
Magnitude (a.u.)       :      3.28118
Magnitude (Debye)      :      8.34011



--------------------
Rotational spectrum 
--------------------
 
Rotational constants in cm-1:     0.001501     0.001476     0.000761 
Rotational constants in MHz :    44.991545    44.240057    22.818179 

 Dipole components along the rotational axes: 
x,y,z [a.u.] :     2.349636     2.290094     0.029303 
x,y,z [Debye]:     5.972299     5.820955     0.074482 

 

Timings for individual modules:

Sum of individual times         ...     4201.445 sec (=  70.024 min)
GTO integral calculation        ...        2.692 sec (=   0.045 min)   0.1 %
SCF iterations                  ...     1379.502 sec (=  22.992 min)  32.8 %
MP2 module                      ...     2819.252 sec (=  46.988 min)  67.1 %
                             ****ORCA TERMINATED NORMALLY****
TOTAL RUN TIME: 0 days 1 hours 10 minutes 4 seconds 745 msec
# of primitive gaussian functions

