
                                 *****************
                                 * O   R   C   A *
                                 *****************

                                            #,                                       
                                            ###                                      
                                            ####                                     
                                            #####                                    
                                            ######                                   
                                           ########,                                 
                                     ,,################,,,,,                         
                               ,,#################################,,                 
                          ,,##########################################,,             
                       ,#########################################, ''#####,          
                    ,#############################################,,   '####,        
                  ,##################################################,,,,####,       
                ,###########''''           ''''###############################       
              ,#####''   ,,,,##########,,,,          '''####'''          '####       
            ,##' ,,,,###########################,,,                        '##       
           ' ,,###''''                  '''############,,,                           
         ,,##''                                '''############,,,,        ,,,,,,###''
      ,#''                                            '''#######################'''  
     '                                                          ''''####''''         
             ,#######,   #######,   ,#######,      ##                                
            ,#'     '#,  ##    ##  ,#'     '#,    #''#        ######   ,####,        
            ##       ##  ##   ,#'  ##            #'  '#       #        #'  '#        
            ##       ##  #######   ##           ,######,      #####,   #    #        
            '#,     ,#'  ##    ##  '#,     ,#' ,#      #,         ##   #,  ,#        
             '#######'   ##     ##  '#######'  #'      '#     #####' # '####'        



                  #######################################################
                  #                        -***-                        #
                  #          Department of theory and spectroscopy      #
                  #    Directorship and core code : Frank Neese         #
                  #        Max Planck Institute fuer Kohlenforschung    #
                  #                Kaiser Wilhelm Platz 1               #
                  #                 D-45470 Muelheim/Ruhr               #
                  #                      Germany                        #
                  #                                                     #
                  #                  All rights reserved                #
                  #                        -***-                        #
                  #######################################################


                         Program Version 5.0.4 -  RELEASE  -


 With contributions from (in alphabetic order):
   Daniel Aravena         : Magnetic Suceptibility
   Michael Atanasov       : Ab Initio Ligand Field Theory (pilot matlab implementation)
   Alexander A. Auer      : GIAO ZORA, VPT2 properties, NMR spectrum
   Ute Becker             : Parallelization
   Giovanni Bistoni       : ED, misc. LED, open-shell LED, HFLD
   Martin Brehm           : Molecular dynamics
   Dmytro Bykov           : SCF Hessian
   Vijay G. Chilkuri      : MRCI spin determinant printing, contributions to CSF-ICE
   Dipayan Datta          : RHF DLPNO-CCSD density
   Achintya Kumar Dutta   : EOM-CC, STEOM-CC
   Dmitry Ganyushin       : Spin-Orbit,Spin-Spin,Magnetic field MRCI
   Miquel Garcia          : C-PCM and meta-GGA Hessian, CC/C-PCM, Gaussian charge scheme
   Yang Guo               : DLPNO-NEVPT2, F12-NEVPT2, CIM, IAO-localization
   Andreas Hansen         : Spin unrestricted coupled pair/coupled cluster methods
   Benjamin Helmich-Paris : MC-RPA, TRAH-SCF, COSX integrals
   Lee Huntington         : MR-EOM, pCC
   Robert Izsak           : Overlap fitted RIJCOSX, COSX-SCS-MP3, EOM
   Marcus Kettner         : VPT2
   Christian Kollmar      : KDIIS, OOCD, Brueckner-CCSD(T), CCSD density, CASPT2, CASPT2-K
   Simone Kossmann        : Meta GGA functionals, TD-DFT gradient, OOMP2, MP2 Hessian
   Martin Krupicka        : Initial AUTO-CI
   Lucas Lang             : DCDCAS
   Marvin Lechner         : AUTO-CI (C++ implementation), FIC-MRCC
   Dagmar Lenk            : GEPOL surface, SMD
   Dimitrios Liakos       : Extrapolation schemes; Compound Job, initial MDCI parallelization
   Dimitrios Manganas     : Further ROCIS development; embedding schemes
   Dimitrios Pantazis     : SARC Basis sets
   Anastasios Papadopoulos: AUTO-CI, single reference methods and gradients
   Taras Petrenko         : DFT Hessian,TD-DFT gradient, ASA, ECA, R-Raman, ABS, FL, XAS/XES, NRVS
   Peter Pinski           : DLPNO-MP2, DLPNO-MP2 Gradient
   Christoph Reimann      : Effective Core Potentials
   Marius Retegan         : Local ZFS, SOC
   Christoph Riplinger    : Optimizer, TS searches, QM/MM, DLPNO-CCSD(T), (RO)-DLPNO pert. Triples
   Tobias Risthaus        : Range-separated hybrids, TD-DFT gradient, RPA, STAB
   Michael Roemelt        : Original ROCIS implementation
   Masaaki Saitow         : Open-shell DLPNO-CCSD energy and density
   Barbara Sandhoefer     : DKH picture change effects
   Avijit Sen             : IP-ROCIS
   Kantharuban Sivalingam : CASSCF convergence, NEVPT2, FIC-MRCI
   Bernardo de Souza      : ESD, SOC TD-DFT
   Georgi Stoychev        : AutoAux, RI-MP2 NMR, DLPNO-MP2 response
   Willem Van den Heuvel  : Paramagnetic NMR
   Boris Wezisla          : Elementary symmetry handling
   Frank Wennmohs         : Technical directorship


 We gratefully acknowledge several colleagues who have allowed us to
 interface, adapt or use parts of their codes:
   Stefan Grimme, W. Hujo, H. Kruse, P. Pracht,  : VdW corrections, initial TS optimization,
                  C. Bannwarth, S. Ehlert          DFT functionals, gCP, sTDA/sTD-DF
   Ed Valeev, F. Pavosevic, A. Kumar             : LibInt (2-el integral package), F12 methods
   Garnet Chan, S. Sharma, J. Yang, R. Olivares  : DMRG
   Ulf Ekstrom                                   : XCFun DFT Library
   Mihaly Kallay                                 : mrcc  (arbitrary order and MRCC methods)
   Jiri Pittner, Ondrej Demel                    : Mk-CCSD
   Frank Weinhold                                : gennbo (NPA and NBO analysis)
   Christopher J. Cramer and Donald G. Truhlar   : smd solvation model
   Lars Goerigk                                  : TD-DFT with DH, B97 family of functionals
   V. Asgeirsson, H. Jonsson                     : NEB implementation
   FAccTs GmbH                                   : IRC, NEB, NEB-TS, DLPNO-Multilevel, CI-OPT
                                                   MM, QMMM, 2- and 3-layer-ONIOM, Crystal-QMMM,
                                                   LR-CPCM, SF, NACMEs, symmetry and pop. for TD-DFT,
                                                   nearIR, NL-DFT gradient (VV10), updates on ESD,
                                                   ML-optimized integration grids
   S Lehtola, MJT Oliveira, MAL Marques          : LibXC Library
   Liviu Ungur et al                             : ANISO software


 Your calculation uses the libint2 library for the computation of 2-el integrals
 For citations please refer to: http://libint.valeyev.net

 Your ORCA version has been built with support for libXC version: 5.1.0
 For citations please refer to: https://tddft.org/programs/libxc/

 This ORCA versions uses:
   CBLAS   interface :  Fast vector & matrix operations
   LAPACKE interface :  Fast linear algebra routines
   SCALAPACK package :  Parallel linear algebra routines
   Shared memory     :  Shared parallel matrices
   BLAS/LAPACK       :  OpenBLAS 0.3.15  USE64BITINT DYNAMIC_ARCH NO_AFFINITY Sandybridge SINGLE_THREADED
        Core in use  :  Sandybridge
   Copyright (c) 2011-2014, The OpenBLAS Project


================================================================================

----- Orbital basis set information -----
Your calculation utilizes the basis: cc-pVDZ 
       H, B-Ne : Obtained from the ccRepo (grant-hill.group.shef.ac.uk/ccrepo) Feb. 2017
                 T. H. Dunning, Jr., J. Chem. Phys. 90, 1007 (1989)
            He : Obtained from the ccRepo (grant-hill.group.shef.ac.uk/ccrepo) Feb. 2017
                 D. E. Woon, T. H. Dunning, Jr., J. Chem. Phys. 100, 2975 (1994)
  Li-Be, Na-Mg : Obtained from the ccRepo (grant-hill.group.shef.ac.uk/ccrepo) Feb. 2017
                 B. P. Prascher, D. E. Woon, K. A. Peterson, T. H. Dunning, Jr., A. K. Wilson, Theor. Chem. Acc. 128, 69 (2011)
         Al-Ar : Obtained from the ccRepo (grant-hill.group.shef.ac.uk/ccrepo) Feb. 2017
                 D. E. Woon, T. H. Dunning, Jr., J. Chem. Phys. 98, 1358 (1993)
            Ca : Obtained from the Peterson Research Group Website (tyr0.chem.wsu.edu/~kipeters) Feb. 2017
                 J. Koput, K. A. Peterson, J. Phys. Chem. 106, 9595 (2002)
         Sc-Zn : Obtained from the ccRepo (grant-hill.group.shef.ac.uk/ccrepo) Feb. 2017
                 N. B. Balabanov, K. A. Peterson, J. Chem. Phys. 123, 064107 (2005)
                 N. B. Balabanov, K. A. Peterson, J. Chem. Phys. 125, 074110 (2006)
         Ga-Kr : Obtained from the ccRepo (grant-hill.group.shef.ac.uk/ccrepo) Feb. 2017
                 A. K. Wilson, D. E. Woon, K. A. Peterson, T. H. Dunning, Jr., J. Chem. Phys. 110, 7667 (1999)

================================================================================
                                        WARNINGS
                       Please study these warnings very carefully!
================================================================================


WARNING: No MP2 level density has been requested!
         To caclulate MP2 level properties use
         %mp2 Density relaxed end
         or
         %mp2 Density unrelaxed end

WARNING: Post HF methods need fully converged wavefunctions
  ===> : Setting SCFConvForced true
         You can overwrite this default with %scf ConvForced false 


INFO   : the flag for use of the SHARK integral package has been found!

================================================================================
                                       INPUT FILE
================================================================================
NAME = /scratch/allen/tmpyp4_amber_gaff2/2.Mdgx/conf11/conf11/Conf337.orca
|  1> ! PAL2
|  2> ! mp2 cc-pvdz TightSCF  NoKeepInts
|  3> 
|  4> %scf
|  5>   MaxCore 2000
|  6> end
|  7> %mp2
|  8>   MaxCore 2000
|  9> end
| 10> * xyz 0 1
| 11>    C       -3.12500         6.42200         0.59300
| 12>    C        1.47400         4.04100         0.05700
| 13>    C       -2.80200         4.09300         0.04900
| 14>    C       -4.11400         4.08000        -0.45000
| 15>    C       -4.88000         5.22800        -0.41400
| 16>    C       -5.22000         7.59800         0.09400
| 17>    C        0.13200         4.30700         0.06100
| 18>    C       -0.56900         3.05600         0.04700
| 19>    C        1.64900         2.61800         0.02300
| 20>    C       -2.31800         5.30100         0.57400
| 21>    N       -4.38600         6.37600         0.10500
| 22>    N        0.38800         2.06700         0.02500
| 23>    N       -2.01000         0.39500        -0.07500
| 24>    N       -0.38800        -2.07400        -0.02700
| 25>    N        2.01000        -0.40100         0.06500
| 26>    C       -1.96000         2.86100         0.02400
| 27>    C       -2.62300         1.61500        -0.01800
| 28>    C       -5.57300        -4.32900         1.06600
| 29>    C       -4.07300         1.47100         0.05600
| 30>    C       -4.10600        -2.75600        -0.02600
| 31>    C       -4.99500        -2.75700        -1.11100
| 32>    C       -6.13200        -3.54200        -1.07600
| 33>    C       -7.65100        -5.11300         0.04000
| 34>    C       -4.32400         0.14100         0.03700
| 35>    C       -3.02500        -0.52000        -0.04800
| 36>    C       -4.42200        -3.56600         1.07500
| 37>    N       -6.40700        -4.31300         0.00100
| 38>    C       -2.86700        -1.92200        -0.04000
| 39>    C       -1.65000        -2.62400        -0.02700
| 40>    C        3.56800        -6.14200        -1.04000
| 41>    C       -1.47600        -4.04900        -0.03400
| 42>    C        2.80300        -4.09900        -0.00800
| 43>    C        3.65700        -4.38400         1.06900
| 44>    C        4.42700        -5.53000         1.05900
| 45>    C        5.24500        -7.58800         0.01400
| 46>    C       -0.13400        -4.31500        -0.02200
| 47>    C        0.56800        -3.06400        -0.02700
| 48>    C        2.77500        -5.01200        -1.07400
| 49>    N        4.37600        -6.39100         0.01700
| 50>    C        1.95900        -2.86900        -0.00900
| 51>    C        2.62100        -1.62200         0.00900
| 52>    C        5.54300         4.33900        -1.13000
| 53>    C        4.07000        -1.47900        -0.09400
| 54>    C        4.10400         2.75100        -0.02100
| 55>    C        5.02700         2.72900         1.03600
| 56>    C        6.16600         3.50900         0.97800
| 57>    C        7.61900         5.15300        -0.11500
| 58>    C        4.32100        -0.14800        -0.09200
| 59>    C        3.02500         0.51400         0.01500
| 60>    C        4.38700         3.58200        -1.11500
| 61>    C        2.86600         1.91600         0.01300
| 62>    N        6.41300         4.29600        -0.09500
| 63>    H       -2.79800         7.37100         0.99900
| 64>    H        2.27400         4.76600         0.08100
| 65>    H       -4.54100         3.18100        -0.87600
| 66>    H       -5.89300         5.26900        -0.79400
| 67>    H       -5.09800         8.10300        -0.86800
| 68>    H       -6.26200         7.31300         0.23900
| 69>    H       -4.89500         8.25100         0.90300
| 70>    H       -0.33200         5.28200         0.06900
| 71>    H       -1.31800         5.37200         0.98700
| 72>    H        0.18200         1.07200         0.00500
| 73>    H       -0.18300        -1.08000        -0.02100
| 74>    H       -5.86400        -4.96200         1.89500
| 75>    H       -4.79400         2.27200         0.13900
| 76>    H       -4.80000        -2.16000        -1.99400
| 77>    H       -6.84100        -3.58200        -1.89300
| 78>    H       -8.42800        -4.53600         0.54600
| 79>    H       -7.95600        -5.33700        -0.98100
| 80>    H       -7.45600        -6.03700         0.58400
| 81>    H       -5.28700        -0.34400         0.10000
| 82>    H       -3.78000        -3.60100         1.94700
| 83>    H        3.58700        -6.86800        -1.84300
| 84>    H       -2.27600        -4.77400        -0.05000
| 85>    H        3.71400        -3.72400         1.92600
| 86>    H        5.09200        -5.79500         1.87100
| 87>    H        6.20500        -7.32900        -0.43900
| 88>    H        5.39300        -7.91700         1.04200
| 89>    H        4.75900        -8.37300        -0.56400
| 90>    H        0.32900        -5.29000        -0.00800
| 91>    H        2.14600        -4.84200        -1.94000
| 92>    H        5.80800         4.98600        -1.95600
| 93>    H        4.78800        -2.28100        -0.18500
| 94>    H        4.86000         2.11400         1.91200
| 95>    H        6.90100         3.53100         1.77200
| 96>    H        7.38300         6.10900         0.35600
| 97>    H        8.41400         4.65200         0.43500
| 98>    H        7.92100         5.31000        -1.15000
| 99>    H        5.28300         0.33600        -0.17900
|100>    H        3.72000         3.63200        -1.96700
|101> *
|102> 
|103>                          ****END OF INPUT****
================================================================================

                       ****************************
                       * Single Point Calculation *
                       ****************************

---------------------------------
CARTESIAN COORDINATES (ANGSTROEM)
---------------------------------
  C     -3.125000    6.422000    0.593000
  C      1.474000    4.041000    0.057000
  C     -2.802000    4.093000    0.049000
  C     -4.114000    4.080000   -0.450000
  C     -4.880000    5.228000   -0.414000
  C     -5.220000    7.598000    0.094000
  C      0.132000    4.307000    0.061000
  C     -0.569000    3.056000    0.047000
  C      1.649000    2.618000    0.023000
  C     -2.318000    5.301000    0.574000
  N     -4.386000    6.376000    0.105000
  N      0.388000    2.067000    0.025000
  N     -2.010000    0.395000   -0.075000
  N     -0.388000   -2.074000   -0.027000
  N      2.010000   -0.401000    0.065000
  C     -1.960000    2.861000    0.024000
  C     -2.623000    1.615000   -0.018000
  C     -5.573000   -4.329000    1.066000
  C     -4.073000    1.471000    0.056000
  C     -4.106000   -2.756000   -0.026000
  C     -4.995000   -2.757000   -1.111000
  C     -6.132000   -3.542000   -1.076000
  C     -7.651000   -5.113000    0.040000
  C     -4.324000    0.141000    0.037000
  C     -3.025000   -0.520000   -0.048000
  C     -4.422000   -3.566000    1.075000
  N     -6.407000   -4.313000    0.001000
  C     -2.867000   -1.922000   -0.040000
  C     -1.650000   -2.624000   -0.027000
  C      3.568000   -6.142000   -1.040000
  C     -1.476000   -4.049000   -0.034000
  C      2.803000   -4.099000   -0.008000
  C      3.657000   -4.384000    1.069000
  C      4.427000   -5.530000    1.059000
  C      5.245000   -7.588000    0.014000
  C     -0.134000   -4.315000   -0.022000
  C      0.568000   -3.064000   -0.027000
  C      2.775000   -5.012000   -1.074000
  N      4.376000   -6.391000    0.017000
  C      1.959000   -2.869000   -0.009000
  C      2.621000   -1.622000    0.009000
  C      5.543000    4.339000   -1.130000
  C      4.070000   -1.479000   -0.094000
  C      4.104000    2.751000   -0.021000
  C      5.027000    2.729000    1.036000
  C      6.166000    3.509000    0.978000
  C      7.619000    5.153000   -0.115000
  C      4.321000   -0.148000   -0.092000
  C      3.025000    0.514000    0.015000
  C      4.387000    3.582000   -1.115000
  C      2.866000    1.916000    0.013000
  N      6.413000    4.296000   -0.095000
  H     -2.798000    7.371000    0.999000
  H      2.274000    4.766000    0.081000
  H     -4.541000    3.181000   -0.876000
  H     -5.893000    5.269000   -0.794000
  H     -5.098000    8.103000   -0.868000
  H     -6.262000    7.313000    0.239000
  H     -4.895000    8.251000    0.903000
  H     -0.332000    5.282000    0.069000
  H     -1.318000    5.372000    0.987000
  H      0.182000    1.072000    0.005000
  H     -0.183000   -1.080000   -0.021000
  H     -5.864000   -4.962000    1.895000
  H     -4.794000    2.272000    0.139000
  H     -4.800000   -2.160000   -1.994000
  H     -6.841000   -3.582000   -1.893000
  H     -8.428000   -4.536000    0.546000
  H     -7.956000   -5.337000   -0.981000
  H     -7.456000   -6.037000    0.584000
  H     -5.287000   -0.344000    0.100000
  H     -3.780000   -3.601000    1.947000
  H      3.587000   -6.868000   -1.843000
  H     -2.276000   -4.774000   -0.050000
  H      3.714000   -3.724000    1.926000
  H      5.092000   -5.795000    1.871000
  H      6.205000   -7.329000   -0.439000
  H      5.393000   -7.917000    1.042000
  H      4.759000   -8.373000   -0.564000
  H      0.329000   -5.290000   -0.008000
  H      2.146000   -4.842000   -1.940000
  H      5.808000    4.986000   -1.956000
  H      4.788000   -2.281000   -0.185000
  H      4.860000    2.114000    1.912000
  H      6.901000    3.531000    1.772000
  H      7.383000    6.109000    0.356000
  H      8.414000    4.652000    0.435000
  H      7.921000    5.310000   -1.150000
  H      5.283000    0.336000   -0.179000
  H      3.720000    3.632000   -1.967000

----------------------------
CARTESIAN COORDINATES (A.U.)
----------------------------
  NO LB      ZA    FRAG     MASS         X           Y           Z
   0 C     6.0000    0    12.011   -5.905394   12.135821    1.120608
   1 C     6.0000    0    12.011    2.785456    7.636383    0.107714
   2 C     6.0000    0    12.011   -5.295013    7.734649    0.092597
   3 C     6.0000    0    12.011   -7.774333    7.710083   -0.850377
   4 C     6.0000    0    12.011   -9.221864    9.879488   -0.782347
   5 C     6.0000    0    12.011   -9.864370   14.358139    0.177634
   6 C     6.0000    0    12.011    0.249444    8.139050    0.115273
   7 C     6.0000    0    12.011   -1.075254    5.775003    0.088817
   8 C     6.0000    0    12.011    3.116158    4.947303    0.043464
   9 C     6.0000    0    12.011   -4.380385   10.017438    1.084703
  10 N     7.0000    0    14.007   -8.288339   12.048894    0.198421
  11 N     7.0000    0    14.007    0.733214    3.906064    0.047243
  12 N     7.0000    0    14.007   -3.798350    0.746442   -0.141729
  13 N     7.0000    0    14.007   -0.733214   -3.919292   -0.051023
  14 N     7.0000    0    14.007    3.798350   -0.757780    0.122832
  15 C     6.0000    0    12.011   -3.703863    5.406506    0.045353
  16 C     6.0000    0    12.011   -4.956752    3.051908   -0.034015
  17 C     6.0000    0    12.011  -10.531444   -8.180624    2.014448
  18 C     6.0000    0    12.011   -7.696855    2.779787    0.105825
  19 C     6.0000    0    12.011   -7.759216   -5.208085   -0.049133
  20 C     6.0000    0    12.011   -9.439182   -5.209975   -2.099486
  21 C     6.0000    0    12.011  -11.587801   -6.693410   -2.033345
  22 C     6.0000    0    12.011  -14.458295   -9.662170    0.075589
  23 C     6.0000    0    12.011   -8.171176    0.266451    0.069920
  24 C     6.0000    0    12.011   -5.716422   -0.982658   -0.090707
  25 C     6.0000    0    12.011   -8.356369   -6.738763    2.031456
  26 N     7.0000    0    14.007  -12.107475   -8.150389    0.001890
  27 C     6.0000    0    12.011   -5.417845   -3.632054   -0.075589
  28 C     6.0000    0    12.011   -3.118048   -4.958641   -0.051023
  29 C     6.0000    0    12.011    6.742543  -11.606698   -1.965315
  30 C     6.0000    0    12.011   -2.789236   -7.651501   -0.064251
  31 C     6.0000    0    12.011    5.296902   -7.745987   -0.015118
  32 C     6.0000    0    12.011    6.910728   -8.284559    2.020117
  33 C     6.0000    0    12.011    8.365818  -10.450186    2.001220
  34 C     6.0000    0    12.011    9.911614  -14.339242    0.026456
  35 C     6.0000    0    12.011   -0.253223   -8.154168   -0.041574
  36 C     6.0000    0    12.011    1.073364   -5.790121   -0.051023
  37 C     6.0000    0    12.011    5.243990   -9.471307   -2.029566
  38 N     7.0000    0    14.007    8.269442  -12.077240    0.032125
  39 C     6.0000    0    12.011    3.701973   -5.421624   -0.017008
  40 C     6.0000    0    12.011    4.952972   -3.065136    0.017008
  41 C     6.0000    0    12.011   10.474752    8.199522   -2.135391
  42 C     6.0000    0    12.011    7.691185   -2.794905   -0.177634
  43 C     6.0000    0    12.011    7.755436    5.198637   -0.039684
  44 C     6.0000    0    12.011    9.499653    5.157063    1.957756
  45 C     6.0000    0    12.011   11.652051    6.631049    1.848152
  46 C     6.0000    0    12.011   14.397823    9.737759   -0.217319
  47 C     6.0000    0    12.011    8.165507   -0.279679   -0.173855
  48 C     6.0000    0    12.011    5.716422    0.971319    0.028346
  49 C     6.0000    0    12.011    8.290229    6.768999   -2.107045
  50 C     6.0000    0    12.011    5.415955    3.620715    0.024566
  51 N     7.0000    0    14.007   12.118814    8.118263   -0.179524
  52 H     1.0000    0     1.008   -5.287454   13.929171    1.887836
  53 H     1.0000    0     1.008    4.297237    9.006435    0.153068
  54 H     1.0000    0     1.008   -8.581246    6.011219   -1.655400
  55 H     1.0000    0     1.008  -11.136156    9.956967   -1.500443
  56 H     1.0000    0     1.008   -9.633824   15.312451   -1.640282
  57 H     1.0000    0     1.008  -11.833465   13.819567    0.451645
  58 H     1.0000    0     1.008   -9.250209   15.592130    1.706423
  59 H     1.0000    0     1.008   -0.627389    9.981533    0.130391
  60 H     1.0000    0     1.008   -2.490659   10.151609    1.865160
  61 H     1.0000    0     1.008    0.343930    2.025786    0.009449
  62 H     1.0000    0     1.008   -0.345820   -2.040904   -0.039684
  63 H     1.0000    0     1.008  -11.081354   -9.376821    3.581031
  64 H     1.0000    0     1.008   -9.059347    4.293458    0.262672
  65 H     1.0000    0     1.008   -9.070685   -4.081808   -3.768114
  66 H     1.0000    0     1.008  -12.927616   -6.768999   -3.577252
  67 H     1.0000    0     1.008  -15.926612   -8.571798    1.031790
  68 H     1.0000    0     1.008  -15.034661  -10.085468   -1.853821
  69 H     1.0000    0     1.008  -14.089798  -11.408277    1.103600
  70 H     1.0000    0     1.008   -9.990982   -0.650066    0.188973
  71 H     1.0000    0     1.008   -7.143165   -6.804904    3.679297
  72 H     1.0000    0     1.008    6.778448  -12.978639   -3.482765
  73 H     1.0000    0     1.008   -4.301017   -9.021553   -0.094486
  74 H     1.0000    0     1.008    7.018443   -7.037340    3.639613
  75 H     1.0000    0     1.008    9.622485  -10.950963    3.535678
  76 H     1.0000    0     1.008   11.725751  -13.849803   -0.829590
  77 H     1.0000    0     1.008   10.191293  -14.960962    1.969095
  78 H     1.0000    0     1.008    8.993207  -15.822677   -1.065806
  79 H     1.0000    0     1.008    0.621720   -9.996651   -0.015118
  80 H     1.0000    0     1.008    4.055352   -9.150054   -3.666069
  81 H     1.0000    0     1.008   10.975529    9.422175   -3.696304
  82 H     1.0000    0     1.008    9.048009   -4.310465   -0.349599
  83 H     1.0000    0     1.008    9.184069    3.994881    3.613156
  84 H     1.0000    0     1.008   13.041000    6.672623    3.348595
  85 H     1.0000    0     1.008   13.951848   11.544337    0.672743
  86 H     1.0000    0     1.008   15.900156    8.791006    0.822031
  87 H     1.0000    0     1.008   14.968521   10.034446   -2.173185
  88 H     1.0000    0     1.008    9.983423    0.634948   -0.338261
  89 H     1.0000    0     1.008    7.029781    6.863485   -3.717091

--------------------------------
INTERNAL COORDINATES (ANGSTROEM)
--------------------------------
 C      0   0   0     0.000000000000     0.00000000     0.00000000
 C      1   0   0     5.206463098880     0.00000000     0.00000000
 C      1   2   0     2.413401334217    54.35585879     0.00000000
 C      3   1   2     1.403749977738    87.93552240   199.87194145
 C      4   3   1     1.380563653006   120.10660054     0.13363066
 C      5   4   3     2.447562869468   152.58325139     1.60823223
 C      2   1   3     1.368114030335    17.12185205     7.21725179
 C      7   2   1     1.434084376876   108.05010202   199.24589343
 C      2   1   3     1.434123425651   124.33275907   345.79464723
 C      1   2   3     1.381394585193    27.30724259    21.61475251
 N      1   2   3     1.352915740170   140.41049368   327.84636149
 N      9   2   1     1.376127174356   106.58526707     5.73769719
 N     12   9   2     2.925062050624   168.53581413   171.12065651
 N     13  12   9     2.954513327098    91.55032014    11.12112580
 N     14  13  12     2.925371258490    88.43092389   359.84326247
 C      8   7   2     1.404790019896   127.24786865   181.11170171
 C     13  12   9     1.366535034311    81.72106996   188.00453233
 C     14  13  12     5.758810554272    80.56209567   166.76250791
 C     17  13  12     1.459010623676   111.08861209   183.82872609
 C     18  14  13     2.412235892279    27.27532823    36.33507194
 C     20  18  14     1.402692767501    87.95206320   148.94598259
 C     21  20  18     1.382106725257   120.14573887   359.70382047
 C     18  14  13     2.446510985056   144.15733107    82.80075377
 C     19  17  13     1.353610726908   106.29293361   359.75308708
 C     13  12   9     1.366813447402   172.21332906    33.46711076
 C     18  14  13     1.380960173213    15.08449437   309.23336894
 N     22  21  20     1.352773077792   120.73759875     0.27865223
 C     25  13  17     1.410897586645   125.60330303   182.37774668
 C     14  13  12     1.376642291955    80.24689249   177.85461986
 C     14  13  12     5.764089607215   164.51507311   312.20821879
 C     29  14  13     1.435600919476   106.58649366   178.76395472
 C     30  14  13     2.413316804732    27.10625047    82.12560436
 C     32  30  14     1.403734305344    87.90059683   149.76154742
 C     33  32  30     1.380694028378   120.14881443   359.74174632
 C     34  33  32     2.448777858443   152.49203239     2.45173620
 C     31  29  14     1.368160809262   108.16950133     0.70383075
 C     14  13  12     1.376239804685   169.26375223   353.09862627
 C     30  14  13     1.380907310430    14.68948582   353.70041132
 N     34  33  32     1.352658863128   120.85575621     0.19603406
 C     37  14  29     1.404717053360   126.01551127   180.90772073
 C     15  14  13     1.366491126938    81.61824056   183.09049352
 C      2   1   3     4.249062720177   147.41345029   147.11944272
 C     41  15  14     1.459677704153   111.05201287   175.08990246
 C     42   2   1     2.412953791518    41.78584867   171.71082588
 C     44  42   2     1.403446472082    87.95153797   233.97558675
 C     45  44  42     1.381696421071   120.11137308     0.19721020
 C     42   2   1     2.450019795838   135.97209175    82.02567499
 C     43  41  15     1.354461516618   106.26758155     0.30894352
 C     15  14  13     1.367461151185   171.87382904   332.35056460
 C     42   2   1     1.381886391857    32.59078432   220.56610508
 C      9   2   1     1.404988612053   126.98745415   186.74203472
 N     42   2   1     1.352765315936   113.57249190   109.76226418
 H      1   2   3     1.082758514166    99.94218807   170.42668182
 H      2   1   3     1.079907866440   110.18557778   171.73811032
 H      4   3   1     1.082592259348   121.07864975   179.56691017
 H      5   4   3     1.082704945957   122.78319237   179.47759411
 H      6   5   4     1.093322001974   104.42622427   100.08366245
 H      6   5   4     1.089960549745    84.67651809   209.55236923
 H      6   5   4     1.089272693131   133.88296509   322.41915351
 H      7   2   1     1.079807853278   126.66122480    19.48430722
 H     10   1   2     1.084255504943   118.71267432    37.63167455
 H     12   9   2     1.016297692608   125.29023241   180.00180175
 H     14  13  12     1.014936943854    44.97226959   359.42596618
 H     18  14  13     1.082871645210   128.03556573   234.20482432
 H     19  17  13     1.080893611786   126.41830519   178.11313280
 H     21  20  18     1.083569563987   121.05669627   180.67006309
 H     22  21  20     1.082483256222   122.73097286   180.59748951
 H     23  18  14     1.092105306278   103.92715769   234.93429879
 H     23  18  14     1.088871893291   134.19244188    12.25587044
 H     23  18  14     1.089833473518    84.85857450   125.45241208
 H     24  19  17     1.080075460327   127.28078426   178.44613241
 H     26  18  14     1.083408048706   118.76995697   244.94906660
 H     30  14  13     1.082703098730   127.99711412   279.66882698
 H     31  29  14     1.079759695488   125.22293469   180.92530585
 H     33  32  30     1.083188810873   121.01964473   180.74284758
 H     34  33  32     1.082494341787   122.70821597   180.59516895
 H     35  34  33     1.092652735319   105.73575241    97.19771933
 H     35  34  33     1.089462711615    84.05943581   206.43036958
 H     35  34  33     1.089268102902   133.08365142   318.50306270
 H     36  31  29     1.079439669458   126.61599965   178.98859863
 H     38  30  73     1.083742127999   118.77264435   359.90091293
 H     42   2   1     1.082178358682   119.31790784   326.39379463
 H     43  41  15     1.080281907652   126.36969097   182.06329380
 H     45  44  42     1.083277434455   121.10105945   179.58025624
 H     46  45  44     1.082194529648   122.72144639   179.46906377
 H     47  42   2     1.091546151109   106.65128841   315.16475048
 H     47  42   2     1.088818625851   132.46019523    94.52397119
 H     47  42   2     1.089531091801    83.63838232   206.04504406
 H     48  43  41     1.080402239909   127.23657387   181.62955349
 H     50  42   2     1.083186502870   118.77001737    94.71359229

---------------------------
INTERNAL COORDINATES (A.U.)
---------------------------
 C      0   0   0     0.000000000000     0.00000000     0.00000000
 C      1   0   0     9.838789383250     0.00000000     0.00000000
 C      1   2   0     4.560667572910    54.35585879     0.00000000
 C      3   1   2     2.652703018423    87.93552240   199.87194145
 C      4   3   1     2.608887214626   120.10660054     0.13363066
 C      5   4   3     4.625223518850   152.58325139     1.60823223
 C      2   1   3     2.585360837309    17.12185205     7.21725179
 C      7   2   1     2.710026725231   108.05010202   199.24589343
 C      2   1   3     2.710100516721   124.33275907   345.79464723
 C      1   2   3     2.610457448896    27.30724259    21.61475251
 N      1   2   3     2.556640231193   140.41049368   327.84636149
 N      9   2   1     2.600503484979   106.58526707     5.73769719
 N     12   9   2     5.527566200405   168.53581413   171.12065651
 N     13  12   9     5.583221047236    91.55032014    11.12112580
 N     14  13  12     5.528150518591    88.43092389   359.84326247
 C      8   7   2     2.654668413270   127.24786865   181.11170171
 C     13  12   9     2.582376967257    81.72106996   188.00453233
 C     14  13  12    10.882574804710    80.56209567   166.76250791
 C     17  13  12     2.757130505230   111.08861209   183.82872609
 C     18  14  13     4.558465206823    27.27532823    36.33507194
 C     20  18  14     2.650705180609    87.95206320   148.94598259
 C     21  20  18     2.611803198586   120.14573887   359.70382047
 C     18  14  13     4.623235745386   144.15733107    82.80075377
 C     19  17  13     2.557953565794   106.29293361   359.75308708
 C     13  12   9     2.582903091751   172.21332906    33.46711076
 C     18  14  13     2.609636529225    15.08449437   309.23336894
 N     22  21  20     2.556370638369   120.73759875     0.27865223
 C     25  13  17     2.666210041769   125.60330303   182.37774668
 C     14  13  12     2.601476916169    80.24689249   177.85461986
 C     14  13  12    10.892550769017   164.51507311   312.20821879
 C     29  14  13     2.712892575415   106.58649366   178.76395472
 C     30  14  13     4.560507835333    27.10625047    82.12560436
 C     32  30  14     2.652673401891    87.90059683   149.76154742
 C     33  32  30     2.609133588376   120.14881443   359.74174632
 C     34  33  32     4.627519515267   152.49203239     2.45173620
 C     31  29  14     2.585449236669   108.16950133     0.70383075
 C     14  13  12     2.600716325456   169.26375223   353.09862627
 C     30  14  13     2.609536633043    14.68948582   353.70041132
 N     34  33  32     2.556154803934   120.85575621     0.19603406
 C     37  14  29     2.654530526499   126.01551127   180.90772073
 C     15  14  13     2.582293994346    81.61824056   183.09049352
 C      2   1   3     8.029564866989   147.41345029   147.11944272
 C     41  15  14     2.758391104639   111.05201287   175.08990246
 C     42   2   1     4.559821839776    41.78584867   171.71082588
 C     44  42   2     2.652129475853    87.95153797   233.97558675
 C     45  44  42     2.611027836043   120.11137308     0.19721020
 C     42   2   1     4.629866436820   135.97209175    82.02567499
 C     43  41  15     2.559561325344   106.26758155     0.30894352
 C     15  14  13     2.584127074516   171.87382904   332.35056460
 C     42   2   1     2.611386828803    32.59078432   220.56610508
 C      9   2   1     2.655043698059   126.98745415   186.74203472
 N     42   2   1     2.556355970587   113.57249190   109.76226418
 H      1   2   3     2.046117060946    99.94218807   170.42668182
 H      2   1   3     2.040730117440   110.18557778   171.73811032
 H      4   3   1     2.045802884871   121.07864975   179.56691017
 H      5   4   3     2.046015831701   122.78319237   179.47759411
 H      6   5   4     2.066079159921   104.42622427   100.08366245
 H      6   5   4     2.059726935796    84.67651809   209.55236923
 H      6   5   4     2.058427075176   133.88296509   322.41915351
 H      7   2   1     2.040541119952   126.66122480    19.48430722
 H     10   1   2     2.048945963539   118.71267432    37.63167455
 H     12   9   2     1.920524309565   125.29023241   180.00180175
 H     14  13  12     1.917952867083    44.97226959   359.42596618
 H     18  14  13     2.046330847636   128.03556573   234.20482432
 H     19  17  13     2.042592906181   126.41830519   178.11313280
 H     21  20  18     2.047649722989   121.05669627   180.67006309
 H     22  21  20     2.045596898814   122.73097286   180.59748951
 H     23  18  14     2.063779938267   103.92715769   234.93429879
 H     23  18  14     2.057669673245   134.19244188    12.25587044
 H     23  18  14     2.059486796529    84.85857450   125.45241208
 H     24  19  17     2.041046823986   127.28078426   178.44613241
 H     26  18  14     2.047344503340   118.76995697   244.94906660
 H     30  14  13     2.046012340948   127.99711412   279.66882698
 H     31  29  14     2.040450114918   125.22293469   180.92530585
 H     33  32  30     2.046930203877   121.01964473   180.74284758
 H     34  33  32     2.045617847496   122.70821597   180.59516895
 H     35  34  33     2.064814429233   105.73575241    97.19771933
 H     35  34  33     2.058786158072    84.05943581   206.43036958
 H     35  34  33     2.058418400901   133.08365142   318.50306270
 H     36  31  29     2.039845353366   126.61599965   178.98859863
 H     38  30  73     2.047975821711   118.77264435   359.90091293
 H     42   2   1     2.045020725966   119.31790784   326.39379463
 H     43  41  15     2.041436952892   126.36969097   182.06329380
 H     45  44  42     2.047097678177   121.10105945   179.58025624
 H     46  45  44     2.045051284662   122.72144639   179.46906377
 H     47  42   2     2.062723288131   106.65128841   315.16475048
 H     47  42   2     2.057569012371   132.46019523    94.52397119
 H     47  42   2     2.058915377895    83.63838232   206.04504406
 H     48  43  41     2.041664347903   127.23657387   181.62955349
 H     50  42   2     2.046925842384   118.77001737    94.71359229

---------------------
BASIS SET INFORMATION
---------------------
There are 3 groups of distinct atoms

 Group   1 Type C   : 17s4p1d contracted to 3s2p1d pattern {881/31/1}
 Group   2 Type N   : 17s4p1d contracted to 3s2p1d pattern {881/31/1}
 Group   3 Type H   : 4s1p contracted to 2s1p pattern {31/1}

Atom   0C    basis set group =>   1
Atom   1N    basis set group =>   2
Atom   2C    basis set group =>   1
Atom   3N    basis set group =>   2
Atom   4C    basis set group =>   1
Atom   5N    basis set group =>   2
Atom   6C    basis set group =>   1
Atom   7N    basis set group =>   2
Atom   8C    basis set group =>   1
Atom   9N    basis set group =>   2
Atom  10C    basis set group =>   1
Atom  11N    basis set group =>   2
Atom  12C    basis set group =>   1
Atom  13N    basis set group =>   2
Atom  14C    basis set group =>   1
Atom  15N    basis set group =>   2
Atom  16C    basis set group =>   1
Atom  17C    basis set group =>   1
Atom  18C    basis set group =>   1
Atom  19C    basis set group =>   1
Atom  20C    basis set group =>   1
Atom  21C    basis set group =>   1
Atom  22C    basis set group =>   1
Atom  23C    basis set group =>   1
Atom  24C    basis set group =>   1
Atom  25C    basis set group =>   1
Atom  26C    basis set group =>   1
Atom  27C    basis set group =>   1
Atom  28C    basis set group =>   1
Atom  29C    basis set group =>   1
Atom  30C    basis set group =>   1
Atom  31C    basis set group =>   1
Atom  32C    basis set group =>   1
Atom  33C    basis set group =>   1
Atom  34C    basis set group =>   1
Atom  35C    basis set group =>   1
Atom  36C    basis set group =>   1
Atom  37C    basis set group =>   1
Atom  38C    basis set group =>   1
Atom  39C    basis set group =>   1
Atom  40C    basis set group =>   1
Atom  41C    basis set group =>   1
Atom  42C    basis set group =>   1
Atom  43C    basis set group =>   1
Atom  44C    basis set group =>   1
Atom  45C    basis set group =>   1
Atom  46C    basis set group =>   1
Atom  47C    basis set group =>   1
Atom  48C    basis set group =>   1
Atom  49C    basis set group =>   1
Atom  50C    basis set group =>   1
Atom  51C    basis set group =>   1
Atom  52H    basis set group =>   3
Atom  53H    basis set group =>   3
Atom  54H    basis set group =>   3
Atom  55H    basis set group =>   3
Atom  56H    basis set group =>   3
Atom  57H    basis set group =>   3
Atom  58H    basis set group =>   3
Atom  59H    basis set group =>   3
Atom  60H    basis set group =>   3
Atom  61H    basis set group =>   3
Atom  62H    basis set group =>   3
Atom  63H    basis set group =>   3
Atom  64H    basis set group =>   3
Atom  65H    basis set group =>   3
Atom  66H    basis set group =>   3
Atom  67H    basis set group =>   3
Atom  68H    basis set group =>   3
Atom  69H    basis set group =>   3
Atom  70H    basis set group =>   3
Atom  71H    basis set group =>   3
Atom  72H    basis set group =>   3
Atom  73H    basis set group =>   3
Atom  74H    basis set group =>   3
Atom  75H    basis set group =>   3
Atom  76H    basis set group =>   3
Atom  77H    basis set group =>   3
Atom  78H    basis set group =>   3
Atom  79H    basis set group =>   3
Atom  80H    basis set group =>   3
Atom  81H    basis set group =>   3
Atom  82H    basis set group =>   3
Atom  83H    basis set group =>   3
Atom  84H    basis set group =>   3
Atom  85H    basis set group =>   3
Atom  86H    basis set group =>   3
Atom  87H    basis set group =>   3
Atom  88H    basis set group =>   3
Atom  89H    basis set group =>   3


           ************************************************************
           *        Program running with 8 parallel MPI-processes     *
           *              working on a common directory               *
           ************************************************************
------------------------------------------------------------------------------
                           ORCA GTO INTEGRAL CALCULATION
------------------------------------------------------------------------------
------------------------------------------------------------------------------
                   ___                                                        
                  /   \      - P O W E R E D   B Y -                         
                 /     \                                                     
                 |  |  |   _    _      __       _____    __    __             
                 |  |  |  | |  | |    /  \     |  _  \  |  |  /  |          
                  \  \/   | |  | |   /    \    | | | |  |  | /  /          
                 / \  \   | |__| |  /  /\  \   | |_| |  |  |/  /          
                |  |  |   |  __  | /  /__\  \  |    /   |      \           
                |  |  |   | |  | | |   __   |  |    \   |  |\   \          
                \     /   | |  | | |  |  |  |  | |\  \  |  | \   \       
                 \___/    |_|  |_| |__|  |__|  |_| \__\ |__|  \__/        
                                                                              
                      - O R C A' S   B I G   F R I E N D -                    
                                      &                                       
                       - I N T E G R A L  F E E D E R -                       
                                                                              
 v1 FN, 2020, v2 2021                                                         
------------------------------------------------------------------------------


Reading SHARK input file /scratch/chu_02/allen/tmpyp4_amber_gaff2/conf1/conf1/Conf337.orca.SHARKINP.tmp ... ok
----------------------
SHARK INTEGRAL PACKAGE
----------------------

Number of atoms                             ...     90
Number of basis functions                   ...   1230
Number of shells                            ...    738
Maximum angular momentum                    ...      2
Integral batch strategy                     ... SHARK/LIBINT Hybrid
RI-J (if used) integral strategy            ... SPLIT-RIJ (Revised 2003 algorithm where possible)
Printlevel                                  ...      1
Contraction scheme used                     ... PARTIAL GENERAL contraction
Coulomb Range Separation                    ... NOT USED
Exchange Range Separation                   ... NOT USED
Finite Nucleus Model                        ... NOT USED
Auxiliary Coulomb fitting basis             ... NOT available
Auxiliary J/K fitting basis                 ... NOT available
Auxiliary Correlation fitting basis         ... NOT available
Auxiliary 'external' fitting basis          ... NOT available
Integral threshold                          ...     2.500000e-11
Primitive cut-off                           ...     2.500000e-12
Primitive pair pre-selection threshold      ...     2.500000e-12

Calculating pre-screening integrals         ... done (  0.1 sec) Dimension = 738
Calculating pre-screening integrals (ORCA)  ... done (  0.3 sec) Dimension = 426
Organizing shell pair data                  ... done (  0.5 sec)
Shell pair information
Total number of shell pairs                 ...    272691
Shell pairs after pre-screening             ...     71681
Total number of primitive shell pairs       ...    422091
Primitive shell pairs kept                  ...     92556
          la=0 lb=0:  29418 shell pairs
          la=1 lb=0:  26015 shell pairs
          la=1 lb=1:   4704 shell pairs
          la=2 lb=0:   7891 shell pairs
          la=2 lb=1:   3124 shell pairs
          la=2 lb=2:    529 shell pairs

Calculating one electron integrals          ... done (  0.2 sec)
Calculating Nuclear repulsion               ... done (  0.0 sec) ENN=   6232.516398174873 Eh

SHARK setup successfully completed in   1.6 seconds

Maximum memory used throughout the entire GTOINT-calculation: 99.0 MB


           ************************************************************
           *        Program running with 8 parallel MPI-processes     *
           *              working on a common directory               *
           ************************************************************
-------------------------------------------------------------------------------
                                 ORCA SCF
-------------------------------------------------------------------------------

------------
SCF SETTINGS
------------
Hamiltonian:
 Ab initio Hamiltonian  Method          .... Hartree-Fock(GTOs)


General Settings:
 Integral files         IntName         .... /scratch/chu_02/allen/tmpyp4_amber_gaff2/conf1/conf1/Conf337.orca
 Hartree-Fock type      HFTyp           .... RHF
 Total Charge           Charge          ....    0
 Multiplicity           Mult            ....    1
 Number of Electrons    NEL             ....  358
 Basis Dimension        Dim             ....  918
 Nuclear Repulsion      ENuc            ....   6232.5163981749 Eh

Convergence Acceleration:
 DIIS                   CNVDIIS         .... on
   Start iteration      DIISMaxIt       ....    12
   Startup error        DIISStart       ....  0.200000
   # of expansion vecs  DIISMaxEq       ....     5
   Bias factor          DIISBfac        ....   1.050
   Max. coefficient     DIISMaxC        ....  10.000
 Trust-Rad. Augm. Hess. CNVTRAH         .... auto
   Auto Start mean grad. ratio tolernc. ....  1.125000
   Auto Start start iteration           ....    20
   Auto Start num. interpolation iter.  ....    10
   Max. Number of Micro iterations      ....    16
   Max. Number of Macro iterations      .... Maxiter - #DIIS iter
   Number of Davidson start vectors     ....     2
   Converg. threshold I  (grad. norm)   ....   1.000e-05
   Converg. threshold II (energy diff.) ....   1.000e-08
   Grad. Scal. Fac. for Micro threshold ....   0.100
   Minimum threshold for Micro iter.    ....   0.010
   NR start threshold (gradient norm)   ....   0.001
   Initial trust radius                 ....   0.400
   Minimum AH scaling param. (alpha)    ....   1.000
   Maximum AH scaling param. (alpha)    .... 1000.000
   Orbital update algorithm             .... Taylor
   White noise on init. David. guess    .... on
   Maximum white noise                  ....   0.010
   Quad. conv. algorithm                .... NR
 SOSCF                  CNVSOSCF        .... on
   Start iteration      SOSCFMaxIt      ....   150
   Startup grad/error   SOSCFStart      ....  0.003300
 Level Shifting         CNVShift        .... on
   Level shift para.    LevelShift      ....    0.2500
   Turn off err/grad.   ShiftErr        ....    0.0010
 Zerner damping         CNVZerner       .... off
 Static damping         CNVDamp         .... on
   Fraction old density DampFac         ....    0.7000
   Max. Damping (<1)    DampMax         ....    0.9800
   Min. Damping (>=0)   DampMin         ....    0.0000
   Turn off err/grad.   DampErr         ....    0.1000
 Fernandez-Rico         CNVRico         .... off

SCF Procedure:
 Maximum # iterations   MaxIter         ....   125
 SCF integral mode      SCFMode         .... Direct
   Integral package                     .... SHARK and LIBINT hybrid scheme
 Reset frequency        DirectResetFreq ....    20
 Integral Threshold     Thresh          ....  2.500e-11 Eh
 Primitive CutOff       TCut            ....  2.500e-12 Eh

Convergence Tolerance:
 Convergence Check Mode ConvCheckMode   .... Total+1el-Energy
 Convergence forced     ConvForced      .... 1
 Energy Change          TolE            ....  1.000e-08 Eh
 1-El. energy change                    ....  1.000e-05 Eh
 Orbital Gradient       TolG            ....  1.000e-05
 Orbital Rotation angle TolX            ....  1.000e-05
 DIIS Error             TolErr          ....  5.000e-07


Diagonalization of the overlap matrix:
Smallest eigenvalue                        ... 2.098e-04
Time for diagonalization                   ...    0.212 sec
Threshold for overlap eigenvalues          ... 1.000e-08
Number of eigenvalues below threshold      ... 0
Time for construction of square roots      ...    0.124 sec
Total time needed                          ...    0.342 sec

Time for model grid setup =    1.345 sec

------------------------------
INITIAL GUESS: MODEL POTENTIAL
------------------------------
Loading Hartree-Fock densities                     ... done
Calculating cut-offs                               ... done
Initializing the effective Hamiltonian             ... done
Setting up the integral package (SHARK)            ... done
Starting the Coulomb interaction                   ... done (   1.6 sec)
Reading the grid                                   ... done
Mapping shells                                     ... done
Starting the XC term evaluation                    ... done (   0.3 sec)
Transforming the Hamiltonian                       ... done (   0.1 sec)
Diagonalizing the Hamiltonian                      ... done (   0.2 sec)
Back transforming the eigenvectors                 ... done (   0.0 sec)
Now organizing SCF variables                       ... done
                      ------------------
                      INITIAL GUESS DONE (   3.6 sec)
                      ------------------
--------------
SCF ITERATIONS
--------------
ITER       Energy         Delta-E        Max-DP      RMS-DP      [F,P]     Damp
               ***  Starting incremental Fock matrix formation  ***
  0  -2121.6789092866   0.000000000000 0.08316889  0.00122799  0.2316924 0.7000
  1  -2122.3287787846  -0.649869497933 0.06254611  0.00099867  0.1436505 0.7000
                               ***Turning on DIIS***
  2  -2122.7333754039  -0.404596619293 0.14530771  0.00226999  0.0802723 0.0000
  3  -2118.0004240803   4.732951323618 0.03735112  0.00067097  0.0436776 0.0000
  4  -2123.4174805584  -5.417056478193 0.01176889  0.00022524  0.0086767 0.0000
  5  -2123.5650263552  -0.147545796712 0.00577215  0.00013196  0.0049343 0.0000
  6  -2123.5490881455   0.015938209615 0.00365920  0.00008474  0.0021226 0.0000
  7  -2123.6443172281  -0.095229082583 0.00313514  0.00006690  0.0016006 0.0000
  8  -2123.6534383887  -0.009121160587 0.00331446  0.00006361  0.0014921 0.0000
  9  -2123.6244888522   0.028949536549 0.00264509  0.00004493  0.0011968 0.0000
 10  -2123.6332325564  -0.008743704244 0.00531863  0.00009440  0.0009298 0.0000
                      *** Initiating the SOSCF procedure ***
                           *** Shutting down DIIS ***
                      *** Re-Reading the Fockian *** 
                      *** Removing any level shift *** 
ITER      Energy       Delta-E        Grad      Rot      Max-DP    RMS-DP
 11  -2123.52553507   0.1076974895  0.000176  0.000176  0.000234  0.000005
               *** Restarting incremental Fock matrix formation ***
 12  -2123.59158251  -0.0660474479  0.000861  0.006403  0.001436  0.000035
 13  -2123.59169138  -0.0001088616  0.001079  0.031977  0.006646  0.000138
 14  -2123.59187743  -0.0001860531  0.000354  0.001449  0.000625  0.000012
 15  -2123.59189263  -0.0000151978  0.000154  0.001958  0.000622  0.000015
 16  -2123.59190053  -0.0000079016  0.000150  0.002460  0.000453  0.000009
 17  -2123.59190308  -0.0000025521  0.000119  0.001746  0.000290  0.000006
 18  -2123.59190433  -0.0000012486  0.000062  0.000563  0.000248  0.000003
 19  -2123.59190491  -0.0000005847  0.000041  0.000677  0.000165  0.000003
 20  -2123.59190516  -0.0000002437  0.000020  0.000425  0.000094  0.000002
 21  -2123.59190527  -0.0000001105  0.000020  0.000555  0.000111  0.000002
 22  -2123.59190536  -0.0000000927  0.000017  0.000544  0.000097  0.000002
 23  -2123.59190542  -0.0000000598  0.000010  0.000367  0.000067  0.000001
 24  -2123.59190546  -0.0000000354  0.000006  0.000307  0.000047  0.000001
 25  -2123.59190548  -0.0000000255  0.000007  0.000176  0.000030  0.000001
 26  -2123.59190550  -0.0000000154  0.000004  0.000149  0.000025  0.000001
 27  -2123.59190551  -0.0000000112  0.000003  0.000115  0.000022  0.000000
                  ***Gradient check signals convergence***
              ***Rediagonalizing the Fockian in SOSCF/NRSCF***

               *****************************************************
               *                     SUCCESS                       *
               *           SCF CONVERGED AFTER  28 CYCLES          *
               *****************************************************


----------------
TOTAL SCF ENERGY
----------------

Total Energy       :        -2123.59190551 Eh          -57785.87353 eV

Components:
Nuclear Repulsion  :         6232.51639817 Eh          169595.39326 eV
Electronic Energy  :        -8356.10830369 Eh         -227381.26678 eV
One Electron Energy:       -15305.74694256 Eh         -416490.54828 eV
Two Electron Energy:         6949.63863887 Eh          189109.28149 eV

Virial components:
Potential Energy   :        -4245.85025113 Eh         -115535.45904 eV
Kinetic Energy     :         2122.25834562 Eh           57749.58552 eV
Virial Ratio       :            2.00062837


---------------
SCF CONVERGENCE
---------------

  Last Energy change         ...   -4.4147e-09  Tolerance :   1.0000e-08
  Last MAX-Density change    ...    1.1829e-05  Tolerance :   1.0000e-07
  Last RMS-Density change    ...    2.4683e-07  Tolerance :   5.0000e-09
  Last Orbital Gradient      ...    2.0178e-06  Tolerance :   1.0000e-05
  Last Orbital Rotation      ...    6.9149e-05  Tolerance :   1.0000e-05

             **** THE GBW FILE WAS UPDATED (/scratch/chu_02/allen/tmpyp4_amber_gaff2/conf1/conf1/Conf337.orca.gbw) ****
             **** DENSITY /scratch/chu_02/allen/tmpyp4_amber_gaff2/conf1/conf1/Conf337.orca.scfp WAS UPDATED ****
             **** ENERGY FILE WAS UPDATED (/scratch/chu_02/allen/tmpyp4_amber_gaff2/conf1/conf1/Conf337.orca.en.tmp) ****
             **** THE GBW FILE WAS UPDATED (/scratch/chu_02/allen/tmpyp4_amber_gaff2/conf1/conf1/Conf337.orca.gbw) ****
             **** DENSITY /scratch/chu_02/allen/tmpyp4_amber_gaff2/conf1/conf1/Conf337.orca.scfp WAS UPDATED ****
----------------
ORBITAL ENERGIES
----------------

  NO   OCC          E(Eh)            E(eV) 
   0   2.0000     -15.676600      -426.5820 
   1   2.0000     -15.636385      -425.4877 
   2   2.0000     -15.629537      -425.3013 
   3   2.0000     -15.588127      -424.1745 
   4   2.0000     -15.525549      -422.4717 
   5   2.0000     -15.515634      -422.2019 
   6   2.0000     -15.452727      -420.4901 
   7   2.0000     -15.441967      -420.1973 
   8   2.0000     -11.327117      -308.2265 
   9   2.0000     -11.325964      -308.1951 
  10   2.0000     -11.325314      -308.1775 
  11   2.0000     -11.300843      -307.5116 
  12   2.0000     -11.296901      -307.4043 
  13   2.0000     -11.294849      -307.3485 
  14   2.0000     -11.289066      -307.1911 
  15   2.0000     -11.288955      -307.1881 
  16   2.0000     -11.284744      -307.0735 
  17   2.0000     -11.279083      -306.9195 
  18   2.0000     -11.271179      -306.7044 
  19   2.0000     -11.261178      -306.4322 
  20   2.0000     -11.260216      -306.4061 
  21   2.0000     -11.254185      -306.2419 
  22   2.0000     -11.250847      -306.1511 
  23   2.0000     -11.240097      -305.8586 
  24   2.0000     -11.234373      -305.7028 
  25   2.0000     -11.233037      -305.6665 
  26   2.0000     -11.232437      -305.6502 
  27   2.0000     -11.228037      -305.5304 
  28   2.0000     -11.227710      -305.5215 
  29   2.0000     -11.211418      -305.0782 
  30   2.0000     -11.209932      -305.0378 
  31   2.0000     -11.196730      -304.6785 
  32   2.0000     -11.190274      -304.5028 
  33   2.0000     -11.189460      -304.4807 
  34   2.0000     -11.188413      -304.4522 
  35   2.0000     -11.187005      -304.4139 
  36   2.0000     -11.186264      -304.3937 
  37   2.0000     -11.186057      -304.3881 
  38   2.0000     -11.185072      -304.3613 
  39   2.0000     -11.174406      -304.0711 
  40   2.0000     -11.174115      -304.0631 
  41   2.0000     -11.169126      -303.9274 
  42   2.0000     -11.169103      -303.9267 
  43   2.0000     -11.160908      -303.7037 
  44   2.0000     -11.159754      -303.6724 
  45   2.0000     -11.158820      -303.6469 
  46   2.0000     -11.156492      -303.5836 
  47   2.0000     -11.154444      -303.5279 
  48   2.0000     -11.146569      -303.3136 
  49   2.0000     -11.137500      -303.0668 
  50   2.0000     -11.132119      -302.9203 
  51   2.0000     -11.121770      -302.6388 
  52   2.0000      -1.357668       -36.9440 
  53   2.0000      -1.323325       -36.0095 
  54   2.0000      -1.317632       -35.8546 
  55   2.0000      -1.282062       -34.8867 
  56   2.0000      -1.226497       -33.3747 
  57   2.0000      -1.209935       -32.9240 
  58   2.0000      -1.171874       -31.8883 
  59   2.0000      -1.152258       -31.3545 
  60   2.0000      -1.141379       -31.0585 
  61   2.0000      -1.111969       -30.2582 
  62   2.0000      -1.107365       -30.1329 
  63   2.0000      -1.079571       -29.3766 
  64   2.0000      -1.078591       -29.3499 
  65   2.0000      -1.047446       -28.5025 
  66   2.0000      -1.042380       -28.3646 
  67   2.0000      -1.039708       -28.2919 
  68   2.0000      -1.015229       -27.6258 
  69   2.0000      -1.011937       -27.5362 
  70   2.0000      -1.009012       -27.4566 
  71   2.0000      -0.993813       -27.0430 
  72   2.0000      -0.986129       -26.8339 
  73   2.0000      -0.981007       -26.6946 
  74   2.0000      -0.971806       -26.4442 
  75   2.0000      -0.960804       -26.1448 
  76   2.0000      -0.953463       -25.9450 
  77   2.0000      -0.945831       -25.7374 
  78   2.0000      -0.935147       -25.4466 
  79   2.0000      -0.918282       -24.9877 
  80   2.0000      -0.908252       -24.7148 
  81   2.0000      -0.894727       -24.3468 
  82   2.0000      -0.875512       -23.8239 
  83   2.0000      -0.873315       -23.7641 
  84   2.0000      -0.868497       -23.6330 
  85   2.0000      -0.856954       -23.3189 
  86   2.0000      -0.839120       -22.8336 
  87   2.0000      -0.836387       -22.7592 
  88   2.0000      -0.824430       -22.4339 
  89   2.0000      -0.797485       -21.7007 
  90   2.0000      -0.790448       -21.5092 
  91   2.0000      -0.752068       -20.4648 
  92   2.0000      -0.744507       -20.2591 
  93   2.0000      -0.733670       -19.9642 
  94   2.0000      -0.724896       -19.7254 
  95   2.0000      -0.722026       -19.6473 
  96   2.0000      -0.716546       -19.4982 
  97   2.0000      -0.712599       -19.3908 
  98   2.0000      -0.707614       -19.2552 
  99   2.0000      -0.697571       -18.9819 
 100   2.0000      -0.696280       -18.9467 
 101   2.0000      -0.684951       -18.6385 
 102   2.0000      -0.682175       -18.5629 
 103   2.0000      -0.679528       -18.4909 
 104   2.0000      -0.679014       -18.4769 
 105   2.0000      -0.672629       -18.3032 
 106   2.0000      -0.670213       -18.2374 
 107   2.0000      -0.660921       -17.9846 
 108   2.0000      -0.655288       -17.8313 
 109   2.0000      -0.654469       -17.8090 
 110   2.0000      -0.649817       -17.6824 
 111   2.0000      -0.643879       -17.5208 
 112   2.0000      -0.643601       -17.5133 
 113   2.0000      -0.638878       -17.3848 
 114   2.0000      -0.636872       -17.3302 
 115   2.0000      -0.626929       -17.0596 
 116   2.0000      -0.622304       -16.9337 
 117   2.0000      -0.619005       -16.8440 
 118   2.0000      -0.614323       -16.7166 
 119   2.0000      -0.613279       -16.6882 
 120   2.0000      -0.609812       -16.5938 
 121   2.0000      -0.609214       -16.5776 
 122   2.0000      -0.599376       -16.3099 
 123   2.0000      -0.586211       -15.9516 
 124   2.0000      -0.582863       -15.8605 
 125   2.0000      -0.580458       -15.7951 
 126   2.0000      -0.578817       -15.7504 
 127   2.0000      -0.574596       -15.6356 
 128   2.0000      -0.568538       -15.4707 
 129   2.0000      -0.559145       -15.2151 
 130   2.0000      -0.550693       -14.9851 
 131   2.0000      -0.547704       -14.9038 
 132   2.0000      -0.543420       -14.7872 
 133   2.0000      -0.542062       -14.7503 
 134   2.0000      -0.539482       -14.6800 
 135   2.0000      -0.534654       -14.5487 
 136   2.0000      -0.528268       -14.3749 
 137   2.0000      -0.521242       -14.1837 
 138   2.0000      -0.518316       -14.1041 
 139   2.0000      -0.514157       -13.9909 
 140   2.0000      -0.511807       -13.9270 
 141   2.0000      -0.510647       -13.8954 
 142   2.0000      -0.510061       -13.8795 
 143   2.0000      -0.503768       -13.7082 
 144   2.0000      -0.500729       -13.6255 
 145   2.0000      -0.495819       -13.4919 
 146   2.0000      -0.493098       -13.4179 
 147   2.0000      -0.482697       -13.1349 
 148   2.0000      -0.478361       -13.0169 
 149   2.0000      -0.466994       -12.7075 
 150   2.0000      -0.465968       -12.6796 
 151   2.0000      -0.457233       -12.4419 
 152   2.0000      -0.450509       -12.2590 
 153   2.0000      -0.445924       -12.1342 
 154   2.0000      -0.441011       -12.0005 
 155   2.0000      -0.428283       -11.6542 
 156   2.0000      -0.424136       -11.5413 
 157   2.0000      -0.414739       -11.2856 
 158   2.0000      -0.407102       -11.0778 
 159   2.0000      -0.387300       -10.5390 
 160   2.0000      -0.385551       -10.4914 
 161   2.0000      -0.378095       -10.2885 
 162   2.0000      -0.371376       -10.1056 
 163   2.0000      -0.358366        -9.7516 
 164   2.0000      -0.354265        -9.6400 
 165   2.0000      -0.340642        -9.2693 
 166   2.0000      -0.337864        -9.1938 
 167   2.0000      -0.326511        -8.8848 
 168   2.0000      -0.322195        -8.7674 
 169   2.0000      -0.305594        -8.3156 
 170   2.0000      -0.299393        -8.1469 
 171   2.0000      -0.285265        -7.7624 
 172   2.0000      -0.280544        -7.6340 
 173   2.0000      -0.262613        -7.1461 
 174   2.0000      -0.242622        -6.6021 
 175   2.0000      -0.190094        -5.1727 
 176   2.0000      -0.180605        -4.9145 
 177   2.0000      -0.077555        -2.1104 
 178   2.0000      -0.058953        -1.6042 
 179   0.0000       0.028221         0.7679 
 180   0.0000       0.065622         1.7857 
 181   0.0000       0.090943         2.4747 
 182   0.0000       0.108230         2.9451 
 183   0.0000       0.112000         3.0477 
 184   0.0000       0.135506         3.6873 
 185   0.0000       0.140749         3.8300 
 186   0.0000       0.142590         3.8801 
 187   0.0000       0.163674         4.4538 
 188   0.0000       0.164730         4.4825 
 189   0.0000       0.166925         4.5422 
 190   0.0000       0.171872         4.6769 
 191   0.0000       0.182026         4.9532 
 192   0.0000       0.185444         5.0462 
 193   0.0000       0.188396         5.1265 
 194   0.0000       0.203483         5.5371 
 195   0.0000       0.206771         5.6265 
 196   0.0000       0.206923         5.6307 
 197   0.0000       0.209996         5.7143 
 198   0.0000       0.218059         5.9337 
 199   0.0000       0.227488         6.1903 
 200   0.0000       0.234084         6.3698 
 201   0.0000       0.235195         6.4000 
 202   0.0000       0.238211         6.4821 
 203   0.0000       0.240711         6.5501 
 204   0.0000       0.246985         6.7208 
 205   0.0000       0.255501         6.9525 
 206   0.0000       0.256217         6.9720 
 207   0.0000       0.258463         7.0331 
 208   0.0000       0.260227         7.0811 
 209   0.0000       0.261237         7.1086 
 210   0.0000       0.263369         7.1666 
 211   0.0000       0.266922         7.2633 
 212   0.0000       0.269399         7.3307 
 213   0.0000       0.270749         7.3675 
 214   0.0000       0.272407         7.4126 
 215   0.0000       0.276894         7.5347 
 216   0.0000       0.279063         7.5937 
 217   0.0000       0.280312         7.6277 
 218   0.0000       0.286149         7.7865 
 219   0.0000       0.288363         7.8468 
 220   0.0000       0.289344         7.8735 
 221   0.0000       0.292249         7.9525 
 222   0.0000       0.294531         8.0146 
 223   0.0000       0.295552         8.0424 
 224   0.0000       0.298315         8.1176 
 225   0.0000       0.299465         8.1489 
 226   0.0000       0.305027         8.3002 
 227   0.0000       0.308797         8.4028 
 228   0.0000       0.310033         8.4364 
 229   0.0000       0.324158         8.8208 
 230   0.0000       0.327637         8.9155 
 231   0.0000       0.333168         9.0660 
 232   0.0000       0.337892         9.1945 
 233   0.0000       0.344163         9.3651 
 234   0.0000       0.354188         9.6380 
 235   0.0000       0.355744         9.6803 
 236   0.0000       0.376146        10.2355 
 237   0.0000       0.379783        10.3344 
 238   0.0000       0.392533        10.6814 
 239   0.0000       0.396115        10.7788 
 240   0.0000       0.400985        10.9113 
 241   0.0000       0.409503        11.1431 
 242   0.0000       0.413207        11.2439 
 243   0.0000       0.419471        11.4144 
 244   0.0000       0.427747        11.6396 
 245   0.0000       0.434454        11.8221 
 246   0.0000       0.437164        11.8958 
 247   0.0000       0.439414        11.9571 
 248   0.0000       0.442702        12.0465 
 249   0.0000       0.448393        12.2014 
 250   0.0000       0.458636        12.4801 
 251   0.0000       0.464815        12.6483 
 252   0.0000       0.468228        12.7411 
 253   0.0000       0.470080        12.7915 
 254   0.0000       0.472944        12.8695 
 255   0.0000       0.475454        12.9378 
 256   0.0000       0.476159        12.9569 
 257   0.0000       0.480480        13.0745 
 258   0.0000       0.486840        13.2476 
 259   0.0000       0.496708        13.5161 
 260   0.0000       0.503160        13.6917 
 261   0.0000       0.504188        13.7196 
 262   0.0000       0.507706        13.8154 
 263   0.0000       0.510879        13.9017 
 264   0.0000       0.514567        14.0021 
 265   0.0000       0.517115        14.0714 
 266   0.0000       0.524724        14.2785 
 267   0.0000       0.528814        14.3898 
 268   0.0000       0.534071        14.5328 
 269   0.0000       0.537666        14.6306 
 270   0.0000       0.539904        14.6915 
 271   0.0000       0.545473        14.8431 
 272   0.0000       0.556496        15.1430 
 273   0.0000       0.559131        15.2147 
 274   0.0000       0.561879        15.2895 
 275   0.0000       0.564885        15.3713 
 276   0.0000       0.569747        15.5036 
 277   0.0000       0.573075        15.5942 
 278   0.0000       0.577179        15.7059 
 279   0.0000       0.586386        15.9564 
 280   0.0000       0.589859        16.0509 
 281   0.0000       0.590722        16.0744 
 282   0.0000       0.594634        16.1808 
 283   0.0000       0.595986        16.2176 
 284   0.0000       0.597970        16.2716 
 285   0.0000       0.601223        16.3601 
 286   0.0000       0.608115        16.5477 
 287   0.0000       0.612097        16.6560 
 288   0.0000       0.614486        16.7210 
 289   0.0000       0.626141        17.0382 
 290   0.0000       0.626512        17.0482 
 291   0.0000       0.628639        17.1061 
 292   0.0000       0.635638        17.2966 
 293   0.0000       0.638072        17.3628 
 294   0.0000       0.645235        17.5577 
 295   0.0000       0.648922        17.6581 
 296   0.0000       0.653472        17.7819 
 297   0.0000       0.656053        17.8521 
 298   0.0000       0.662771        18.0349 
 299   0.0000       0.666661        18.1408 
 300   0.0000       0.670375        18.2418 
 301   0.0000       0.674645        18.3580 
 302   0.0000       0.676477        18.4079 
 303   0.0000       0.677821        18.4444 
 304   0.0000       0.681024        18.5316 
 305   0.0000       0.685018        18.6403 
 306   0.0000       0.689588        18.7646 
 307   0.0000       0.691235        18.8095 
 308   0.0000       0.696032        18.9400 
 309   0.0000       0.698371        19.0036 
 310   0.0000       0.701706        19.0944 
 311   0.0000       0.704501        19.1705 
 312   0.0000       0.708443        19.2777 
 313   0.0000       0.710579        19.3358 
 314   0.0000       0.711576        19.3630 
 315   0.0000       0.714397        19.4397 
 316   0.0000       0.717039        19.5116 
 317   0.0000       0.718909        19.5625 
 318   0.0000       0.721443        19.6315 
 319   0.0000       0.723041        19.6749 
 320   0.0000       0.727703        19.8018 
 321   0.0000       0.729758        19.8577 
 322   0.0000       0.731357        19.9012 
 323   0.0000       0.733624        19.9629 
 324   0.0000       0.737509        20.0686 
 325   0.0000       0.741551        20.1786 
 326   0.0000       0.744289        20.2531 
 327   0.0000       0.748503        20.3678 
 328   0.0000       0.751198        20.4411 
 329   0.0000       0.753102        20.4929 
 330   0.0000       0.755148        20.5486 
 331   0.0000       0.757957        20.6251 
 332   0.0000       0.761029        20.7087 
 333   0.0000       0.763177        20.7671 
 334   0.0000       0.768717        20.9178 
 335   0.0000       0.771859        21.0033 
 336   0.0000       0.775318        21.0975 
 337   0.0000       0.782144        21.2832 
 338   0.0000       0.785623        21.3779 
 339   0.0000       0.787973        21.4418 
 340   0.0000       0.789602        21.4862 
 341   0.0000       0.794536        21.6204 
 342   0.0000       0.796427        21.6719 
 343   0.0000       0.802843        21.8465 
 344   0.0000       0.805134        21.9088 
 345   0.0000       0.807335        21.9687 
 346   0.0000       0.807962        21.9858 
 347   0.0000       0.812462        22.1082 
 348   0.0000       0.816671        22.2227 
 349   0.0000       0.817586        22.2477 
 350   0.0000       0.818575        22.2746 
 351   0.0000       0.818957        22.2850 
 352   0.0000       0.823107        22.3979 
 353   0.0000       0.826457        22.4890 
 354   0.0000       0.828892        22.5553 
 355   0.0000       0.830597        22.6017 
 356   0.0000       0.832897        22.6643 
 357   0.0000       0.836317        22.7574 
 358   0.0000       0.837331        22.7849 
 359   0.0000       0.839840        22.8532 
 360   0.0000       0.841444        22.8969 
 361   0.0000       0.842820        22.9343 
 362   0.0000       0.844159        22.9707 
 363   0.0000       0.847676        23.0664 
 364   0.0000       0.848265        23.0825 
 365   0.0000       0.854940        23.2641 
 366   0.0000       0.856978        23.3195 
 367   0.0000       0.862278        23.4638 
 368   0.0000       0.864487        23.5239 
 369   0.0000       0.865971        23.5643 
 370   0.0000       0.870759        23.6945 
 371   0.0000       0.871149        23.7052 
 372   0.0000       0.874098        23.7854 
 373   0.0000       0.877663        23.8824 
 374   0.0000       0.879433        23.9306 
 375   0.0000       0.881283        23.9809 
 376   0.0000       0.887446        24.1486 
 377   0.0000       0.887720        24.1561 
 378   0.0000       0.892214        24.2784 
 379   0.0000       0.895141        24.3580 
 380   0.0000       0.896694        24.4003 
 381   0.0000       0.898157        24.4401 
 382   0.0000       0.900136        24.4939 
 383   0.0000       0.902195        24.5500 
 384   0.0000       0.904467        24.6118 
 385   0.0000       0.905569        24.6418 
 386   0.0000       0.907487        24.6940 
 387   0.0000       0.909442        24.7472 
 388   0.0000       0.912165        24.8213 
 389   0.0000       0.915114        24.9015 
 390   0.0000       0.920757        25.0551 
 391   0.0000       0.923950        25.1420 
 392   0.0000       0.924995        25.1704 
 393   0.0000       0.927612        25.2416 
 394   0.0000       0.929161        25.2837 
 395   0.0000       0.930433        25.3184 
 396   0.0000       0.934857        25.4387 
 397   0.0000       0.939352        25.5611 
 398   0.0000       0.942351        25.6427 
 399   0.0000       0.944499        25.7011 
 400   0.0000       0.945465        25.7274 
 401   0.0000       0.952096        25.9079 
 402   0.0000       0.952634        25.9225 
 403   0.0000       0.953536        25.9470 
 404   0.0000       0.960616        26.1397 
 405   0.0000       0.964542        26.2465 
 406   0.0000       0.967421        26.3249 
 407   0.0000       0.972556        26.4646 
 408   0.0000       0.975886        26.5552 
 409   0.0000       0.978759        26.6334 
 410   0.0000       0.981631        26.7115 
 411   0.0000       0.985857        26.8265 
 412   0.0000       0.991874        26.9903 
 413   0.0000       1.000955        27.2374 
 414   0.0000       1.003027        27.2938 
 415   0.0000       1.009197        27.4616 
 416   0.0000       1.009592        27.4724 
 417   0.0000       1.013612        27.5818 
 418   0.0000       1.018348        27.7107 
 419   0.0000       1.024363        27.8743 
 420   0.0000       1.030299        28.0359 
 421   0.0000       1.032975        28.1087 
 422   0.0000       1.043802        28.4033 
 423   0.0000       1.046450        28.4754 
 424   0.0000       1.051271        28.6065 
 425   0.0000       1.059809        28.8389 
 426   0.0000       1.068201        29.0672 
 427   0.0000       1.069720        29.1086 
 428   0.0000       1.076231        29.2857 
 429   0.0000       1.079873        29.3848 
 430   0.0000       1.081935        29.4410 
 431   0.0000       1.084759        29.5178 
 432   0.0000       1.089904        29.6578 
 433   0.0000       1.096307        29.8320 
 434   0.0000       1.097003        29.8510 
 435   0.0000       1.103973        30.0406 
 436   0.0000       1.109559        30.1926 
 437   0.0000       1.112396        30.2698 
 438   0.0000       1.113878        30.3102 
 439   0.0000       1.118147        30.4263 
 440   0.0000       1.121511        30.5179 
 441   0.0000       1.122290        30.5391 
 442   0.0000       1.126738        30.6601 
 443   0.0000       1.130924        30.7740 
 444   0.0000       1.131915        30.8010 
 445   0.0000       1.135247        30.8916 
 446   0.0000       1.141510        31.0621 
 447   0.0000       1.148470        31.2515 
 448   0.0000       1.149417        31.2772 
 449   0.0000       1.153584        31.3906 
 450   0.0000       1.155517        31.4432 
 451   0.0000       1.157274        31.4910 
 452   0.0000       1.162386        31.6301 
 453   0.0000       1.166130        31.7320 
 454   0.0000       1.167930        31.7810 
 455   0.0000       1.172316        31.9003 
 456   0.0000       1.175919        31.9984 
 457   0.0000       1.179854        32.1055 
 458   0.0000       1.185262        32.2526 
 459   0.0000       1.190469        32.3943 
 460   0.0000       1.193805        32.4851 
 461   0.0000       1.198562        32.6145 
 462   0.0000       1.202381        32.7184 
 463   0.0000       1.204291        32.7704 
 464   0.0000       1.206510        32.8308 
 465   0.0000       1.209446        32.9107 
 466   0.0000       1.213354        33.0170 
 467   0.0000       1.217857        33.1396 
 468   0.0000       1.221566        33.2405 
 469   0.0000       1.227108        33.3913 
 470   0.0000       1.229516        33.4568 
 471   0.0000       1.233953        33.5776 
 472   0.0000       1.235286        33.6138 
 473   0.0000       1.238152        33.6918 
 474   0.0000       1.242166        33.8011 
 475   0.0000       1.242792        33.8181 
 476   0.0000       1.249170        33.9916 
 477   0.0000       1.251670        34.0597 
 478   0.0000       1.254042        34.1242 
 479   0.0000       1.254619        34.1399 
 480   0.0000       1.259210        34.2649 
 481   0.0000       1.262525        34.3551 
 482   0.0000       1.270736        34.5785 
 483   0.0000       1.273384        34.6505 
 484   0.0000       1.274157        34.6716 
 485   0.0000       1.279416        34.8147 
 486   0.0000       1.282428        34.8966 
 487   0.0000       1.284330        34.9484 
 488   0.0000       1.289165        35.0800 
 489   0.0000       1.292982        35.1838 
 490   0.0000       1.295929        35.2640 
 491   0.0000       1.299762        35.3683 
 492   0.0000       1.300807        35.3968 
 493   0.0000       1.305691        35.5297 
 494   0.0000       1.310761        35.6676 
 495   0.0000       1.313957        35.7546 
 496   0.0000       1.318645        35.8822 
 497   0.0000       1.323026        36.0014 
 498   0.0000       1.323639        36.0181 
 499   0.0000       1.327181        36.1144 
 500   0.0000       1.329743        36.1842 
 501   0.0000       1.335598        36.3435 
 502   0.0000       1.340631        36.4804 
 503   0.0000       1.343565        36.5603 
 504   0.0000       1.344317        36.5807 
 505   0.0000       1.348919        36.7060 
 506   0.0000       1.351209        36.7683 
 507   0.0000       1.355485        36.8846 
 508   0.0000       1.358957        36.9791 
[...]
 76 H s       :     0.885817  s :     0.885817
      pz      :     0.022107  p :     0.079772
      px      :     0.043599
      py      :     0.014066
 77 H s       :     0.884835  s :     0.884835
      pz      :     0.047959  p :     0.079266
      px      :     0.015023
      py      :     0.016285
 78 H s       :     0.885234  s :     0.885234
      pz      :     0.025870  p :     0.079226
      px      :     0.020461
      py      :     0.032895
 79 H s       :     0.910387  s :     0.910387
      pz      :     0.021818  p :     0.086358
      px      :     0.021668
      py      :     0.042871
 80 H s       :     0.864946  s :     0.864946
      pz      :     0.039355  p :     0.084793
      px      :     0.030271
      py      :     0.015167
 81 H s       :     0.887025  s :     0.887025
      pz      :     0.037807  p :     0.084100
      px      :     0.016191
      py      :     0.030103
 82 H s       :     0.916164  s :     0.916164
      pz      :     0.021979  p :     0.086725
      px      :     0.031625
      py      :     0.033121
 83 H s       :     0.873755  s :     0.873755
      pz      :     0.039238  p :     0.084052
      px      :     0.015283
      py      :     0.029531
 84 H s       :     0.887060  s :     0.887060
      pz      :     0.035747  p :     0.083454
      px      :     0.031685
      py      :     0.016022
 85 H s       :     0.893185  s :     0.893185
      pz      :     0.022483  p :     0.079769
      px      :     0.014082
      py      :     0.043204
 86 H s       :     0.891213  s :     0.891213
      pz      :     0.024722  p :     0.078810
      px      :     0.032965
      py      :     0.021123
 87 H s       :     0.890040  s :     0.890040
      pz      :     0.048000  p :     0.078722
      px      :     0.015586
      py      :     0.015136
 88 H s       :     0.910749  s :     0.910749
      pz      :     0.021686  p :     0.087038
      px      :     0.042898
      py      :     0.022454
 89 H s       :     0.871267  s :     0.871267
      pz      :     0.037947  p :     0.083836
      px      :     0.030478
      py      :     0.015410


                      *****************************
                      * MAYER POPULATION ANALYSIS *
                      *****************************

  NA   - Mulliken gross atomic population
  ZA   - Total nuclear charge
  QA   - Mulliken gross atomic charge
  VA   - Mayer's total valence
  BVA  - Mayer's bonded valence
  FA   - Mayer's free valence

  ATOM       NA         ZA         QA         VA         BVA        FA
  0 C      5.7854     6.0000     0.2146     3.8464     3.8464    -0.0000
  1 N      7.4566     7.0000    -0.4566     3.3309     3.3309    -0.0000
  2 C      6.0712     6.0000    -0.0712     3.9224     3.9224    -0.0000
  3 N      7.3384     7.0000    -0.3384     3.4593     3.4593     0.0000
  4 C      6.0565     6.0000    -0.0565     4.0545     4.0545     0.0000
  5 N      7.5635     7.0000    -0.5635     3.0966     3.0966    -0.0000
  6 C      6.1153     6.0000    -0.1153     3.9815     3.9815    -0.0000
  7 N      7.3406     7.0000    -0.3406     3.4331     3.4331     0.0000
  8 C      5.7935     6.0000     0.2065     3.8408     3.8408     0.0000
  9 N      7.5626     7.0000    -0.5626     3.0779     3.0779    -0.0000
 10 C      5.8811     6.0000     0.1189     3.9098     3.9098     0.0000
 11 N      7.4380     7.0000    -0.4380     3.3806     3.3806     0.0000
 12 C      6.0749     6.0000    -0.0749     3.8841     3.8841     0.0000
 13 N      7.4301     7.0000    -0.4301     3.4249     3.4249    -0.0000
 14 C      5.7825     6.0000     0.2175     3.7865     3.7865    -0.0000
 15 N      7.4414     7.0000    -0.4414     3.3701     3.3701    -0.0000
 16 C      5.7689     6.0000     0.2311     3.7775     3.7775    -0.0000
 17 C      6.1271     6.0000    -0.1271     3.9850     3.9850     0.0000
 18 C      6.1569     6.0000    -0.1569     3.7523     3.7523    -0.0000
 19 C      5.7966     6.0000     0.2034     3.8657     3.8657    -0.0000
 20 C      5.7857     6.0000     0.2143     3.8286     3.8286    -0.0000
 21 C      6.0884     6.0000    -0.0884     3.8788     3.8788    -0.0000
 22 C      6.0892     6.0000    -0.0892     3.9819     3.9819     0.0000
 23 C      6.0403     6.0000    -0.0403     3.9924     3.9924    -0.0000
 24 C      5.8047     6.0000     0.1953     3.8213     3.8213     0.0000
 25 C      5.8857     6.0000     0.1143     3.8907     3.8907     0.0000
 26 C      6.0821     6.0000    -0.0821     3.9058     3.9058    -0.0000
 27 C      5.7876     6.0000     0.2124     3.8619     3.8619    -0.0000
 28 C      6.0609     6.0000    -0.0609     3.9888     3.9888     0.0000
 29 C      6.1817     6.0000    -0.1817     3.7463     3.7463    -0.0000
 30 C      5.7546     6.0000     0.2454     3.7985     3.7985    -0.0000
 31 C      5.7702     6.0000     0.2298     3.8181     3.8181     0.0000
 32 C      6.0614     6.0000    -0.0614     3.9234     3.9234     0.0000
 33 C      6.0619     6.0000    -0.0619     3.9724     3.9724     0.0000
 34 C      6.0501     6.0000    -0.0501     3.9843     3.9843    -0.0000
 35 C      5.7742     6.0000     0.2258     3.8170     3.8170     0.0000
 36 C      5.8914     6.0000     0.1086     3.8759     3.8759     0.0000
 37 C      6.0644     6.0000    -0.0644     3.9175     3.9175     0.0000
 38 C      5.7676     6.0000     0.2324     3.8019     3.8019     0.0000
 39 C      6.0588     6.0000    -0.0588     3.9836     3.9836    -0.0000
 40 C      6.1811     6.0000    -0.1811     3.7277     3.7277     0.0000
 41 C      5.7755     6.0000     0.2245     3.8863     3.8863    -0.0000
 42 C      5.8028     6.0000     0.1972     3.8262     3.8262    -0.0000
 43 C      6.0727     6.0000    -0.0727     3.9000     3.9000     0.0000
 44 C      6.0909     6.0000    -0.0909     3.9858     3.9858     0.0000
 45 C      6.0611     6.0000    -0.0611     3.9921     3.9921    -0.0000
 46 C      5.7900     6.0000     0.2100     3.8287     3.8287    -0.0000
 47 C      5.8844     6.0000     0.1156     3.8937     3.8937    -0.0000
 48 C      6.0677     6.0000    -0.0677     3.9090     3.9090     0.0000
 49 C      5.7623     6.0000     0.2377     3.8948     3.8948    -0.0000
 50 C      6.0467     6.0000    -0.0467     3.9905     3.9905     0.0000
 51 C      6.1945     6.0000    -0.1945     3.7368     3.7368    -0.0000
 52 H      0.9616     1.0000     0.0384     0.9859     0.9859    -0.0000
 53 H      1.0173     1.0000    -0.0173     0.9987     0.9987    -0.0000
 54 H      0.9469     1.0000     0.0531     1.0206     1.0206     0.0000
 55 H      0.9635     1.0000     0.0365     0.9868     0.9868    -0.0000
 56 H      0.9513     1.0000     0.0487     0.9695     0.9695    -0.0000
 57 H      0.9516     1.0000     0.0484     0.9824     0.9824    -0.0000
 58 H      0.9535     1.0000     0.0465     0.9850     0.9850    -0.0000
 59 H      0.9996     1.0000     0.0004     1.0030     1.0030     0.0000
 60 H      0.9499     1.0000     0.0501     1.0155     1.0155     0.0000
 61 H      0.8291     1.0000     0.1709     1.0419     1.0419     0.0000
 62 H      0.8244     1.0000     0.1756     1.0436     1.0436    -0.0000
 63 H      0.9438     1.0000     0.0562     0.9852     0.9852     0.0000
 64 H      1.0049     1.0000    -0.0049     0.9962     0.9962    -0.0000
 65 H      0.9530     1.0000     0.0470     1.0098     1.0098    -0.0000
 66 H      0.9437     1.0000     0.0563     0.9854     0.9854    -0.0000
 67 H      0.9369     1.0000     0.0631     0.9720     0.9720    -0.0000
 68 H      0.9424     1.0000     0.0576     0.9868     0.9868     0.0000
 69 H      0.9430     1.0000     0.0570     0.9828     0.9828    -0.0000
 70 H      1.0290     1.0000    -0.0290     0.9934     0.9934    -0.0000
 71 H      0.9542     1.0000     0.0458     1.0059     1.0059     0.0000
 72 H      0.9296     1.0000     0.0704     0.9836     0.9836    -0.0000
 73 H      1.0081     1.0000    -0.0081     1.0007     1.0007    -0.0000
 74 H      0.9404     1.0000     0.0596     1.0102     1.0102    -0.0000
 75 H      0.9303     1.0000     0.0697     0.9840     0.9840     0.0000
 76 H      0.9258     1.0000     0.0742     0.9721     0.9721     0.0000
 77 H      0.9326     1.0000     0.0674     0.9855     0.9855    -0.0000
 78 H      0.9334     1.0000     0.0666     0.9854     0.9854     0.0000
 79 H      1.0160     1.0000    -0.0160     0.9978     0.9978     0.0000
 80 H      0.9397     1.0000     0.0603     1.0071     1.0071    -0.0000
 81 H      0.9461     1.0000     0.0539     0.9857     0.9857    -0.0000
 82 H      1.0252     1.0000    -0.0252     0.9933     0.9933    -0.0000
 83 H      0.9589     1.0000     0.0411     1.0083     1.0083     0.0000
 84 H      0.9466     1.0000     0.0534     0.9853     0.9853    -0.0000
 85 H      0.9398     1.0000     0.0602     0.9716     0.9716    -0.0000
 86 H      0.9449     1.0000     0.0551     0.9839     0.9839    -0.0000
 87 H      0.9431     1.0000     0.0569     0.9856     0.9856     0.0000
 88 H      1.0149     1.0000    -0.0149     0.9967     0.9967     0.0000
 89 H      0.9533     1.0000     0.0467     1.0072     1.0072     0.0000

  Mayer bond orders larger than 0.100000
B(  0-C ,  1-N ) :   1.0954 B(  0-C , 17-C ) :   1.7102 B(  0-C , 52-H ) :   0.9652 
B(  1-N ,  8-C ) :   1.0837 B(  1-N , 10-C ) :   0.9784 B(  2-C , 12-C ) :   1.5009 
B(  2-C , 16-C ) :   1.3609 B(  2-C , 53-H ) :   0.9752 B(  3-N , 14-C ) :   1.2187 
B(  3-N , 16-C ) :   1.1891 B(  3-N , 61-H ) :   0.8993 B(  4-C ,  6-C ) :   1.2117 
B(  4-C , 17-C ) :   1.2105 B(  4-C , 18-C ) :   1.4493 B(  5-N , 19-C ) :   1.4543 
B(  5-N , 27-C ) :   1.3773 B(  6-C ,  8-C ) :   1.7149 B(  6-C , 54-H ) :   0.9461 
B(  7-N , 30-C ) :   1.1943 B(  7-N , 38-C ) :   1.1914 B(  7-N , 62-H ) :   0.8967 
B(  8-C , 55-H ) :   0.9668 B(  9-N , 41-C ) :   1.3926 B(  9-N , 49-C ) :   1.4277 
B( 10-C , 56-H ) :   0.9770 B( 10-C , 57-H ) :   0.9831 B( 10-C , 58-H ) :   0.9835 
B( 11-N , 20-C ) :   1.1320 B( 11-N , 24-C ) :   1.1094 B( 11-N , 25-C ) :   0.9593 
B( 12-C , 14-C ) :   1.3577 B( 12-C , 59-H ) :   0.9694 B( 13-N , 31-C ) :   1.1600 
B( 13-N , 35-C ) :   1.1559 B( 13-N , 36-C ) :   0.9426 B( 14-C , 18-C ) :   1.1251 
B( 15-N , 42-C ) :   1.1068 B( 15-N , 46-C ) :   1.1221 B( 15-N , 47-C ) :   0.9621 
B( 16-C , 51-C ) :   1.1697 B( 17-C , 60-H ) :   0.9458 B( 18-C , 19-C ) :   1.1256 
B( 19-C , 21-C ) :   1.2480 B( 20-C , 28-C ) :   1.6266 B( 20-C , 63-H ) :   0.9702 
B( 21-C , 26-C ) :   1.6024 B( 21-C , 64-H ) :   0.9679 B( 22-C , 23-C ) :   1.2907 
B( 22-C , 28-C ) :   1.2662 B( 22-C , 29-C ) :   1.2219 B( 23-C , 24-C ) :   1.6181 
B( 23-C , 65-H ) :   0.9704 B( 24-C , 66-H ) :   0.9695 B( 25-C , 67-H ) :   0.9760 
B( 25-C , 68-H ) :   0.9828 B( 25-C , 69-H ) :   0.9823 B( 26-C , 27-C ) :   1.2445 
B( 26-C , 70-H ) :   0.9694 B( 27-C , 29-C ) :   1.2109 B( 28-C , 71-H ) :   0.9719 
B( 29-C , 30-C ) :   1.2449 B( 30-C , 32-C ) :   1.2798 B( 31-C , 39-C ) :   1.5909 
B( 31-C , 72-H ) :   0.9682 B( 32-C , 37-C ) :   1.5795 B( 32-C , 73-H ) :   0.9785 
B( 33-C , 34-C ) :   1.3062 B( 33-C , 39-C ) :   1.3008 B( 33-C , 40-C ) :   1.1795 
B( 34-C , 35-C ) :   1.5876 B( 34-C , 74-H ) :   0.9696 B( 35-C , 75-H ) :   0.9682 
B( 36-C , 76-H ) :   0.9767 B( 36-C , 77-H ) :   0.9816 B( 36-C , 78-H ) :   0.9824 
B( 37-C , 38-C ) :   1.2847 B( 37-C , 79-H ) :   0.9766 B( 38-C , 40-C ) :   1.2336 
B( 39-C , 80-H ) :   0.9706 B( 40-C , 41-C ) :   1.2485 B( 41-C , 43-C ) :   1.1880 
B( 42-C , 50-C ) :   1.6354 B( 42-C , 81-H ) :   0.9697 B( 43-C , 48-C ) :   1.6642 
B( 43-C , 82-H ) :   0.9721 B( 44-C , 45-C ) :   1.2623 B( 44-C , 50-C ) :   1.2700 
B( 44-C , 51-C ) :   1.2646 B( 45-C , 46-C ) :   1.6365 B( 45-C , 83-H ) :   0.9718 
B( 46-C , 84-H ) :   0.9701 B( 47-C , 85-H ) :   0.9762 B( 47-C , 86-H ) :   0.9829 
B( 47-C , 87-H ) :   0.9825 B( 48-C , 49-C ) :   1.1915 B( 48-C , 88-H ) :   0.9749 
B( 49-C , 51-C ) :   1.2395 B( 50-C , 89-H ) :   0.9709 

-------
TIMINGS
-------

Total SCF time: 0 days 0 hours 43 min 28 sec 

Total time                  ....    2608.136 sec
Sum of individual times     ....    2605.160 sec  ( 99.9%)

Fock matrix formation       ....    2587.502 sec  ( 99.2%)
Diagonalization             ....       4.728 sec  (  0.2%)
Density matrix formation    ....       0.493 sec  (  0.0%)
Population analysis         ....       0.315 sec  (  0.0%)
Initial guess               ....       2.301 sec  (  0.1%)
Orbital Transformation      ....       0.000 sec  (  0.0%)
Orbital Orthonormalization  ....       0.000 sec  (  0.0%)
DIIS solution               ....       2.586 sec  (  0.1%)
SOSCF solution              ....       5.890 sec  (  0.2%)

Maximum memory used throughout the entire SCF-calculation: 304.2 MB


           ************************************************************
           *        Program running with 8 parallel MPI-processes     *
           *              working on a common directory               *
           ************************************************************

------------------------------------------------------------------------------
                                ORCA  MP2 
------------------------------------------------------------------------------

Freezing NCore=104 chemical core electrons

----------
MP2 ENERGY (disk based algorithm)
----------

Dimension of the basis                    ...  918
Memory devoted to MP2                     ... 7000 MB   
Data format for buffers                   ... DOUBLE
Compression type for matrix containers    ... UNCOMPRESSED

-------------------------------
PARTIAL EXCHANGE TRANSFORMATION
-------------------------------

Transformation type                        ... one-operator
Generation of integrals (i,mue|j,nue)      ... ON
Generation of integrals (mue,kappa|nue,tau)... OFF
Generation of integrals (i,mue|a,nue)      ... OFF
Dimension of the basis                     ...  918
Number of internal MOs                     ...  127 (  52- 178)
Pair cutoff                                ... 2.500e-12 Eh
Number of AO pairs in the trafo            ... 421821
Total Number of distinct AO pairs          ... 421821
Memory devoted for trafo                   ... 7000.0 MB 
Max. Number of MO pairs treated together   ... 1088      
Number Format for Storage                  ... Double (8 Byte)
Integral package used                      ... LIBINT

Starting integral evaluation:
    ... done with AO integral generation
Closing buffer AOK     (38.27 GB; CompressionRatio= 1.32)
Collecting buffer AOK 
Number of MO pairs included in the trafo   ... 8128
------------------------
SORTING OF (i,mue|j,nue)
------------------------

IBATCH = 1 of  1
Closing buffer KAO     (51.03 GB; CompressionRatio= 1.00)
Collecting buffer KAO 
N(AO-Batches) Done                         ... 174819041 
N(AO-Batches) Skipped                      ... 167223309 
N(IJ)-pairs Skipped                        ...         0 
TOTAL TIME for half transformation         ...  1142.347 sec
AO-integral generation                     ...   256.047 sec
Half transformation                        ...   463.554 sec
K-integral sorting                         ...    95.082 sec

Finished integral transformation - now doing MP2 part

OPERATOR COMBINATION   0   0: ij=( 52..178, 52..178)
Process 2:   Internal MO  84
Process 5:   Internal MO 132
Process 0:   Internal MO  54
Process 0:   Internal MO  57
Process 1:   Internal MO  69
Process 0:   Internal MO  60
Process 4:   Internal MO 117
Process 0:   Internal MO  63
Process 1:   Internal MO  72
Process 2:   Internal MO  87
Process 0:   Internal MO  66
Process 3:   Internal MO 102
Process 7:   Internal MO 165
Process 1:   Internal MO  75
Process 6:   Internal MO 150
Process 2:   Internal MO  90
Process 1:   Internal MO  78
Process 5:   Internal MO 135
Process 3:   Internal MO 105
Process 4:   Internal MO 120
Process 1:   Internal MO  81
Process 2:   Internal MO  93
Process 3:   Internal MO 108
Process 2:   Internal MO  96
Process 7:   Internal MO 168
Process 4:   Internal MO 123
Process 6:   Internal MO 153
Process 5:   Internal MO 138
Process 2:   Internal MO  99
Process 3:   Internal MO 111
Process 4:   Internal MO 126
Process 5:   Internal MO 141
Process 3:   Internal MO 114
Process 6:   Internal MO 156
Process 7:   Internal MO 171
Process 4:   Internal MO 129
Process 5:   Internal MO 144
Process 6:   Internal MO 159
Process 7:   Internal MO 174
Process 5:   Internal MO 147
Process 6:   Internal MO 162
Process 7:   Internal MO 177
-----------------------------------------------
 MP2 CORRELATION ENERGY   :     -7.282503335 Eh
-----------------------------------------------


-------
TIMINGS
-------
Total time                : 1301.613 sec
Integral trafo            : 1151.153 sec ( 88.4%)
K(i,j)                    :    9.391 sec (  0.7%)
T(i,j)                    :    0.160 sec (  0.0%)

---------------------------------------
MP2 TOTAL ENERGY:    -2130.874408848 Eh
---------------------------------------

Maximum memory used throughout the entire MP2-calculation: 6735.8 MB

-------------------------   --------------------
FINAL SINGLE POINT ENERGY     -2130.874408847586
-------------------------   --------------------


                            ***************************************
                            *     ORCA property calculations      *
                            ***************************************


  WARNING: The energy has been calculated at the MP2 level but the densities
           used in the property calculations are still SCF densities
           MP2 response densities have not been calculated 
           use %mp2 Density relaxed end
           or  %mp2 Density unrelaxed end

                                    ---------------------
                                    Active property flags
                                    ---------------------
   (+) Dipole Moment


------------------------------------------------------------------------------
                       ORCA ELECTRIC PROPERTIES CALCULATION
------------------------------------------------------------------------------

Dipole Moment Calculation                       ... on
Quadrupole Moment Calculation                   ... off
Polarizability Calculation                      ... off
GBWName                                         ... /scratch/chu_02/allen/tmpyp4_amber_gaff2/conf1/conf1/Conf337.orca.gbw
Electron density                                ... /scratch/chu_02/allen/tmpyp4_amber_gaff2/conf1/conf1/Conf337.orca.scfp
The origin for moment calculation is the CENTER OF MASS  = (-0.001380, -0.005013  0.000838)

-------------
DIPOLE MOMENT
-------------
                                X             Y             Z
Electronic contribution:      2.44188      -4.23602      -0.06764
Nuclear contribution   :     -0.01430       0.17887       0.07808
                        -----------------------------------------
Total Dipole Moment    :      2.42758      -4.05715       0.01045
                        -----------------------------------------
Magnitude (a.u.)       :      4.72797
Magnitude (Debye)      :     12.01754



--------------------
Rotational spectrum 
--------------------
 
Rotational constants in cm-1:     0.001503     0.001477     0.000760 
Rotational constants in MHz :    45.046353    44.267834    22.796110 

 Dipole components along the rotational axes: 
x,y,z [a.u.] :     3.226677    -3.455732     0.012910 
x,y,z [Debye]:     8.201560    -8.783772     0.032815 

 

Timings for individual modules:

Sum of individual times         ...     3915.335 sec (=  65.256 min)
GTO integral calculation        ...        2.853 sec (=   0.048 min)   0.1 %
SCF iterations                  ...     2609.362 sec (=  43.489 min)  66.6 %
MP2 module                      ...     1303.120 sec (=  21.719 min)  33.3 %
                             ****ORCA TERMINATED NORMALLY****
TOTAL RUN TIME: 0 days 1 hours 5 minutes 17 seconds 403 msec
# of primitive gaussian functions

